 vasp.6.2.0 18Jan21 (build Jun 12 2021 23:27:24) complex                        
  
 executed on             LinuxIFC date 2022.05.26  19:36:58
 running on   28 total cores
 distrk:  each k-point on   28 cores,    1 groups
 distr:  one band on NCORE=   1 cores,   28 groups


--------------------------------------------------------------------------------------------------------


 INCAR:
   ISMEAR = -5
   SIGMA = 0.1
   ISPIN = 1
   EDIFF = 1.d-5
   EDIFFG = -0.01
   NSW = 0
   NELM = 150
   ENCUT = 500
   ISIF = 2
   IBRION = 2
   LREAL = Auto
   ALGO = Fast
   ICHARG = 11
   LORBIT = 10
   LCHARG = .F.
   LWAVE = .F.

 POTCAR:    PAW_PBE Ag 02Apr2005                  
 POTCAR:    PAW_PBE Ti 08Apr2002                  
 POTCAR:    PAW_PBE H 15Jun2001                   
 -----------------------------------------------------------------------------
|                                                                             |
|           W    W    AA    RRRRR   N    N  II  N    N   GGGG   !!!           |
|           W    W   A  A   R    R  NN   N  II  NN   N  G    G  !!!           |
|           W    W  A    A  R    R  N N  N  II  N N  N  G       !!!           |
|           W WW W  AAAAAA  RRRRR   N  N N  II  N  N N  G  GGG   !            |
|           WW  WW  A    A  R   R   N   NN  II  N   NN  G    G                |
|           W    W  A    A  R    R  N    N  II  N    N   GGGG   !!!           |
|                                                                             |
|     For optimal performance we recommend to set                             |
|       NCORE = 2 up to number-of-cores-per-socket                            |
|     NCORE specifies how many cores store one orbital (NPAR=cpu/NCORE).      |
|     This setting can greatly improve the performance of VASP for DFT.       |
|     The default, NCORE=1 might be grossly inefficient on modern             |
|     multi-core architectures or massively parallel machines. Do your        |
|     own testing! More info at https://www.vasp.at/wiki/index.php/NCORE      |
|     Unfortunately you need to use the default for GW and RPA                |
|     calculations (for HF NCORE is supported but not extensively tested      |
|     yet).                                                                   |
|                                                                             |
 -----------------------------------------------------------------------------

 POTCAR:    PAW_PBE Ag 02Apr2005                  
   VRHFIN =Ag : s1 d10                                                                              
   LEXCH  = PE                                                                                      
   EATOM  =  1037.2675 eV,   76.2370 Ry                                                             
                                                                                                    
   TITEL  = PAW_PBE Ag 02Apr2005                                                                    
   LULTRA =        F    use ultrasoft PP ?                                                          
   IUNSCR =        1    unscreen: 0-lin 1-nonlin 2-no                                               
   RPACOR =    2.000    partial core radius                                                         
   POMASS =  107.868; ZVAL   =   11.000    mass and valenz                                          
   RCORE  =    2.500    outmost cutoff radius                                                       
   RWIGS  =    2.840; RWIGS  =    1.503    wigner-seitz radius (au A)                               
   ENMAX  =  249.844; ENMIN  =  187.383 eV                                                          
   ICORE  =        3    local potential                                                             
   LCOR   =        T    correct aug charges                                                         
   LPAW   =        T    paw PP                                                                      
   EAUG   =  412.496                                                                                
   DEXC   =    0.000                                                                                
   RMAX   =    2.560    core radius for proj-oper                                                   
   RAUG   =    1.300    factor for augmentation sphere                                              
   RDEP   =    2.576    radius for radial grids                                                     
   RDEPT  =    2.072    core radius for aug-charge                                                  
                                                                                                    
   Atomic configuration                                                                             
   12 entries                                                                                       
     n  l   j            E        occ.                                                              
     1  0  0.50    -25324.9161   2.0000                                                             
     2  0  0.50     -3728.5341   2.0000                                                             
     2  1  1.50     -3344.0404   6.0000                                                             
     3  0  0.50      -683.5581   2.0000                                                             
     3  1  1.50      -557.3225   6.0000                                                             
     3  2  2.50      -358.3853  10.0000                                                             
     4  0  0.50       -95.0341   2.0000                                                             
     4  1  1.50       -58.5511   6.0000                                                             
     4  2  2.50        -7.4440  10.0000                                                             
     5  0  0.50        -4.4045   1.0000                                                             
     5  1  0.50        -1.3606   0.0000                                                             
     4  3  2.50        -1.3606   0.0000                                                             
   Description                                                                                      
     l       E           TYP  RCUT    TYP  RCUT                                                     
     2     -7.4439781     23  2.400                                                                 
     2     -8.8045607     23  2.400                                                                 
     0     -4.4044681     23  2.400                                                                 
     0      1.9520038     23  2.400                                                                 
     1     -1.3605826     23  2.500                                                                 
     1     27.2116520     23  2.500                                                                 
     3     -4.0817478     23  2.400                                                                 
  local pseudopotential read in
  partial core-charges read in
  partial kinetic energy density read in
  atomic valenz-charges read in
  non local Contribution for L=           2  read in
    real space projection operators read in
  non local Contribution for L=           2  read in
    real space projection operators read in
  non local Contribution for L=           0  read in
    real space projection operators read in
  non local Contribution for L=           0  read in
    real space projection operators read in
  non local Contribution for L=           1  read in
    real space projection operators read in
  non local Contribution for L=           1  read in
    real space projection operators read in
    PAW grid and wavefunctions read in
 
   number of l-projection  operators is LMAX  =           6
   number of lm-projection operators is LMMAX =          18
 
 POTCAR:    PAW_PBE Ti 08Apr2002                  
   VRHFIN =Ti: d3 s1                                                                                
   LEXCH  = PE                                                                                      
   EATOM  =    94.7928 eV,    6.9671 Ry                                                             
                                                                                                    
   TITEL  = PAW_PBE Ti 08Apr2002                                                                    
   LULTRA =        F    use ultrasoft PP ?                                                          
   IUNSCR =        1    unscreen: 0-lin 1-nonlin 2-no                                               
   RPACOR =    2.200    partial core radius                                                         
   POMASS =   47.880; ZVAL   =    4.000    mass and valenz                                          
   RCORE  =    2.800    outmost cutoff radius                                                       
   RWIGS  =    2.500; RWIGS  =    1.323    wigner-seitz radius (au A)                               
   ENMAX  =  178.330; ENMIN  =  133.747 eV                                                          
   RCLOC  =    2.215    cutoff for local pot                                                        
   LCOR   =        T    correct aug charges                                                         
   LPAW   =        T    paw PP                                                                      
   EAUG   =  328.883                                                                                
   DEXC   =    0.000                                                                                
   RMAX   =    2.868    core radius for proj-oper                                                   
   RAUG   =    1.300    factor for augmentation sphere                                              
   RDEP   =    2.885    radius for radial grids                                                     
   RDEPT  =    2.320    core radius for aug-charge                                                  
                                                                                                    
   Atomic configuration                                                                             
    9 entries                                                                                       
     n  l   j            E        occ.                                                              
     1  0  0.50     -4865.3608   2.0000                                                             
     2  0  0.50      -533.1367   2.0000                                                             
     2  1  1.50      -440.5031   6.0000                                                             
     3  0  0.50       -59.3186   2.0000                                                             
     3  1  1.50       -35.7012   6.0000                                                             
     3  2  2.50        -1.9157   3.0000                                                             
     4  0  0.50        -3.7291   1.0000                                                             
     4  1  1.50        -4.0817   0.0000                                                             
     4  3  2.50        -1.3606   0.0000                                                             
   Description                                                                                      
     l       E           TYP  RCUT    TYP  RCUT                                                     
     2     -1.9156924     23  2.800                                                                 
     2     -0.4062961     23  2.800                                                                 
     0     -3.7290832     23  2.800                                                                 
     0     20.4087390     23  2.800                                                                 
     1     -5.4423304     23  2.800                                                                 
  local pseudopotential read in
  partial core-charges read in
  partial kinetic energy density read in
  atomic valenz-charges read in
  non local Contribution for L=           2  read in
    real space projection operators read in
  non local Contribution for L=           2  read in
    real space projection operators read in
  non local Contribution for L=           0  read in
    real space projection operators read in
  non local Contribution for L=           0  read in
    real space projection operators read in
  non local Contribution for L=           1  read in
    real space projection operators read in
    PAW grid and wavefunctions read in
 
   number of l-projection  operators is LMAX  =           5
   number of lm-projection operators is LMMAX =          15
 
 POTCAR:    PAW_PBE H 15Jun2001                   
   VRHFIN =H: ultrasoft test                                                                        
   LEXCH  = PE                                                                                      
   EATOM  =    12.4884 eV,    0.9179 Ry                                                             
                                                                                                    
   TITEL  = PAW_PBE H 15Jun2001                                                                     
   LULTRA =        F    use ultrasoft PP ?                                                          
   IUNSCR =        0    unscreen: 0-lin 1-nonlin 2-no                                               
   RPACOR =    0.000    partial core radius                                                         
   POMASS =    1.000; ZVAL   =    1.000    mass and valenz                                          
   RCORE  =    1.100    outmost cutoff radius                                                       
   RWIGS  =    0.700; RWIGS  =    0.370    wigner-seitz radius (au A)                               
   ENMAX  =  250.000; ENMIN  =  200.000 eV                                                          
   RCLOC  =    0.701    cutoff for local pot                                                        
   LCOR   =        T    correct aug charges                                                         
   LPAW   =        T    paw PP                                                                      
   EAUG   =  400.000                                                                                
   RMAX   =    1.123    core radius for proj-oper                                                   
   RAUG   =    1.200    factor for augmentation sphere                                              
   RDEP   =    1.112    radius for radial grids                                                     
   RDEPT  =    0.926    core radius for aug-charge                                                  
                                                                                                    
   Atomic configuration                                                                             
    2 entries                                                                                       
     n  l   j            E        occ.                                                              
     1  0  0.50        -6.4927   1.0000                                                             
     2  1  0.50        -3.4015   0.0000                                                             
   Description                                                                                      
     l       E           TYP  RCUT    TYP  RCUT                                                     
     0     -6.4927494     23  1.100                                                                 
     0      6.8029130     23  1.100                                                                 
     1     -4.0817478     23  1.100                                                                 
  local pseudopotential read in
  atomic valenz-charges read in
  non local Contribution for L=           0  read in
    real space projection operators read in
  non local Contribution for L=           0  read in
    real space projection operators read in
  non local Contribution for L=           1  read in
    real space projection operators read in
    PAW grid and wavefunctions read in
 
   number of l-projection  operators is LMAX  =           3
   number of lm-projection operators is LMMAX =           5
 
 Optimization of the real space projectors (new method)

 maximal supplied QI-value         = 15.12
 optimisation between [QCUT,QGAM] = [ 11.34, 22.83] = [ 36.00,145.93] Ry 
 Optimized for a Real-space Cutoff    1.43 Angstroem

   l    n(q)    QCUT    max X(q) W(low)/X(q) W(high)/X(q)  e(spline) 
   2      9    11.338    53.897    0.16E-03    0.20E-03    0.28E-06
   2      9    11.338    52.416    0.16E-03    0.20E-03    0.29E-06
   0     10    11.338   122.045    0.31E-04    0.76E-04    0.15E-06
   0     10    11.338    73.629    0.30E-04    0.72E-04    0.15E-06
   1      9    11.338    15.255    0.20E-03    0.19E-04    0.17E-06
   1      9    11.338     9.562    0.16E-03    0.15E-04    0.14E-06
 Optimization of the real space projectors (new method)

 maximal supplied QI-value         = 13.42
 optimisation between [QCUT,QGAM] = [ 11.40, 22.81] = [ 36.42,145.68] Ry 
 Optimized for a Real-space Cutoff    1.56 Angstroem

   l    n(q)    QCUT    max X(q) W(low)/X(q) W(high)/X(q)  e(spline) 
   2     10    11.404    49.363    0.27E-03    0.67E-03    0.76E-06
   2     10    11.404    47.669    0.26E-03    0.65E-03    0.73E-06
   0     11    11.404    26.374    0.17E-03    0.20E-03    0.34E-06
   0     11    11.404    11.549    0.14E-03    0.16E-03    0.29E-06
   1     10    11.404     9.492    0.33E-04    0.56E-04    0.16E-06
 Optimization of the real space projectors (new method)

 maximal supplied QI-value         = 34.20
 optimisation between [QCUT,QGAM] = [ 11.29, 22.57] = [ 35.68,142.71] Ry 
 Optimized for a Real-space Cutoff    1.16 Angstroem

   l    n(q)    QCUT    max X(q) W(low)/X(q) W(high)/X(q)  e(spline) 
   0      8    11.287    19.460    0.40E-03    0.73E-03    0.16E-06
   0      8    11.287    12.209    0.38E-03    0.70E-03    0.15E-06
   1      7    11.287     4.655    0.22E-03    0.25E-04    0.22E-06
  PAW_PBE Ag 02Apr2005                  :
 energy of atom  1       EATOM=-1037.2675
 kinetic energy error for atom=    0.0052 (will be added to EATOM!!)
  PAW_PBE Ti 08Apr2002                  :
 energy of atom  2       EATOM=  -94.7928
 kinetic energy error for atom=    0.0002 (will be added to EATOM!!)
  PAW_PBE H 15Jun2001                   :
 energy of atom  3       EATOM=  -12.4884
 kinetic energy error for atom=    0.0020 (will be added to EATOM!!)
 
 
 POSCAR: Ag-Ti-H
  positions in direct lattice
  velocities in cartesian coordinates
 exchange correlation table for  LEXCH =        8
   RHO(1)=    0.500       N(1)  =     2000
   RHO(2)=  100.500       N(2)  =     4000

 VTST: version 3.2, (02/03/18)

 CHAIN: initializing optimizer
 
 OPT: Using VASP Conjugate-Gradient optimizer
 CHAIN: Read ICHAIN            0
 
 POSCAR: Ag-Ti-H
  positions in direct lattice
  velocities in cartesian coordinates
 


--------------------------------------------------------------------------------------------------------


 ion  position               nearest neighbor table
   1  0.000  0.000  0.238-   2 2.93   8 2.93   7 2.93   6 2.93   4 2.93  12 2.93  16 2.93  10 2.93
                             3 2.93
   2  0.333  0.000  0.238-   1 2.93   8 2.93   9 2.93   3 2.93   4 2.93   5 2.93  10 2.93  17 2.93
                            11 2.93
   3  0.667  0.000  0.238-   9 2.93   2 2.93   5 2.93  11 2.93   7 2.93  18 2.93   1 2.93   6 2.93
                            12 2.93
   4  0.000  0.333  0.238-   5 2.93   6 2.93   2 2.93   1 2.93   7 2.93  13 2.93  15 2.93   9 2.93
                            10 2.93
   5  0.333  0.333  0.238-   4 2.93   3 2.93   7 2.93   2 2.93   8 2.93  14 2.93  13 2.93  11 2.93
                             6 2.93
   6  0.667  0.333  0.238-   4 2.93   9 2.93   1 2.93  15 2.93   8 2.93  12 2.93   3 2.93   5 2.93
                            14 2.93
   7  0.000  0.667  0.238-   8 2.93   1 2.93   5 2.93   3 2.93   4 2.93  16 2.93  18 2.93  13 2.93
                             9 2.93
   8  0.333  0.667  0.238-   7 2.93   1 2.93   2 2.93   9 2.93   5 2.93  16 2.93   6 2.93  17 2.93
                            14 2.93
   9  0.667  0.667  0.238-   3 2.93   2 2.93   8 2.93   6 2.93  17 2.93   4 2.93  15 2.93   7 2.93
                            18 2.93
  10  0.111  0.111  0.346-  20 2.91  19 2.92  26 2.92  12 2.93  16 2.93  15 2.93  17 2.93  13 2.93
                            11 2.93   2 2.93   1 2.93   4 2.93
  11  0.444  0.111  0.346-  21 2.91  20 2.91  27 2.92  14 2.93  17 2.93  18 2.93   3 2.93  12 2.93
                            13 2.93  10 2.93   5 2.93   2 2.93
  12  0.778  0.111  0.346-  21 2.91  25 2.92  19 2.92  10 2.93  16 2.93  18 2.93  15 2.93  11 2.93
                             1 2.93  14 2.93   6 2.93   3 2.93
  13  0.111  0.444  0.346-  20 2.91  23 2.91  22 2.92  15 2.93  14 2.93  18 2.93  10 2.93  11 2.93
                            16 2.93   4 2.93   5 2.93   7 2.93
  14  0.444  0.444  0.346-  23 2.91  21 2.91  24 2.92  13 2.93  11 2.93  16 2.93   5 2.93  12 2.93
                            17 2.93   8 2.93  15 2.93   6 2.93
  15  0.778  0.444  0.346-  19 2.92  24 2.92  22 2.92  13 2.93  10 2.93  12 2.93  17 2.93  18 2.93
                             4 2.93   6 2.93   9 2.93  14 2.93
  16  0.111  0.778  0.346-  23 2.91  26 2.92  25 2.92  18 2.93  12 2.93  10 2.93  14 2.93  17 2.93
                            13 2.93   7 2.93   8 2.93   1 2.93
  17  0.444  0.778  0.346-  26 2.92  27 2.92  24 2.92  11 2.93  10 2.93   9 2.93  18 2.93  15 2.93
                            16 2.93   2 2.93  14 2.93   8 2.93
  18  0.778  0.778  0.346-  25 2.92  22 2.92  27 2.92  16 2.93  12 2.93  13 2.93  11 2.93  17 2.93
                            15 2.93   7 2.93   3 2.93   9 2.93
  19  0.889  0.222  0.453-  10 2.92  12 2.92  15 2.92  28 2.92  26 2.93  25 2.93  24 2.93  22 2.93
                            20 2.94  21 2.94  32 2.96  31 2.96
  20  0.223  0.223  0.453-  36 2.82  13 2.91  11 2.91  10 2.91  21 2.92  23 2.92  27 2.93  22 2.93
                            19 2.94  26 2.94  31 2.94  29 2.94
  21  0.555  0.223  0.453-  36 2.82  11 2.91  14 2.91  12 2.91  20 2.92  23 2.92  27 2.93  24 2.93
                            25 2.94  19 2.94  30 2.94  32 2.94
  22  0.889  0.556  0.453-  18 2.92  15 2.92  13 2.92  24 2.93  27 2.93  25 2.93  19 2.93  35 2.93
                            23 2.93  20 2.93  33 2.94  31 2.94
  23  0.223  0.555  0.453-  36 2.82  14 2.91  13 2.91  16 2.91  21 2.92  20 2.92  22 2.93  24 2.93
                            26 2.94  25 2.94  34 2.94  33 2.94
  24  0.556  0.556  0.453-  15 2.92  17 2.92  14 2.92  27 2.93  22 2.93  19 2.93  26 2.93  35 2.93
                            23 2.93  21 2.93  32 2.94  34 2.94
  25  0.889  0.889  0.453-  16 2.92  12 2.92  18 2.92  28 2.92  26 2.93  19 2.93  22 2.93  27 2.93
                            23 2.94  21 2.94  33 2.96  30 2.96
  26  0.222  0.889  0.453-  16 2.92  10 2.92  17 2.92  28 2.92  25 2.93  19 2.93  27 2.93  24 2.93
                            23 2.94  20 2.94  34 2.96  29 2.96
  27  0.556  0.889  0.453-  17 2.92  18 2.92  11 2.92  24 2.93  22 2.93  26 2.93  25 2.93  35 2.93
                            20 2.93  21 2.93  29 2.94  30 2.94
  28  0.000  0.000  0.561-  26 2.92  25 2.92  19 2.92  29 2.95  34 2.95  33 2.95  32 2.95  31 2.95
                            30 2.95
  29  0.334  0.004  0.562-  30 2.89  31 2.90  36 2.90  20 2.94  27 2.94  35 2.95  28 2.95  26 2.96
                            34 3.00
  30  0.662  0.004  0.562-  29 2.89  32 2.90  36 2.90  21 2.94  27 2.94  35 2.95  28 2.95  25 2.96
                            33 3.00
  31  0.004  0.334  0.562-  33 2.89  29 2.90  36 2.90  20 2.94  22 2.94  35 2.95  28 2.95  19 2.96
                            32 3.00
  32  0.662  0.334  0.562-  34 2.89  30 2.90  36 2.90  21 2.94  24 2.94  35 2.95  28 2.95  19 2.96
                            31 3.00
  33  0.004  0.662  0.562-  31 2.89  34 2.90  36 2.90  23 2.94  22 2.94  35 2.95  28 2.95  25 2.96
                            30 3.00
  34  0.334  0.662  0.562-  32 2.89  33 2.90  36 2.90  23 2.94  24 2.94  35 2.95  28 2.95  26 2.96
                            29 3.00
  35  0.667  0.667  0.562-  24 2.93  27 2.93  22 2.93  30 2.95  32 2.95  29 2.95  34 2.95  31 2.95
                            33 2.95
  36  0.333  0.333  0.555-  37 1.73  21 2.82  20 2.82  23 2.82  31 2.90  33 2.90  30 2.90  29 2.90
                            34 2.90  32 2.90
  37  0.333  0.333  0.633-  36 1.73
 
  LATTYP: Found a hexagonal cell.
 ALAT       =     8.7913665772
 C/A-ratio  =     2.5227160501
  
  Lattice vectors:
  
 A1 = (  -4.3956832886,  -7.6135467898,   0.0000000000)
 A2 = (   8.7913665771,   0.0000000000,   0.0000000000)
 A3 = (   0.0000000000,   0.0000000000,  22.1781215668)


Analysis of symmetry for initial positions (statically):
=====================================================================
 Subroutine PRICEL returns:
 Original cell was already a primitive cell.
 

 Routine SETGRP: Setting up the symmetry group for a 
 hexagonal supercell.


 Subroutine GETGRP returns: Found  6 space group operations
 (whereof  6 operations were pure point group operations)
 out of a pool of 24 trial point group operations.


The static configuration has the point symmetry C_3v.


Analysis of symmetry for dynamics (positions and initial velocities):
=====================================================================
 Subroutine PRICEL returns:
 Original cell was already a primitive cell.
 

 Routine SETGRP: Setting up the symmetry group for a 
 hexagonal supercell.


 Subroutine GETGRP returns: Found  6 space group operations
 (whereof  6 operations were pure point group operations)
 out of a pool of 24 trial point group operations.


The dynamic configuration has the point symmetry C_3v.


Analysis of constrained symmetry for selective dynamics:
=====================================================================
 Subroutine PRICEL returns:
 Original cell was already a primitive cell.
 

 Routine SETGRP: Setting up the symmetry group for a 
 hexagonal supercell.


 Subroutine GETGRP returns: Found  6 space group operations
 (whereof  6 operations were pure point group operations)
 out of a pool of 24 trial point group operations.


The constrained configuration has the point symmetry C_3v.


 Subroutine INISYM returns: Found  6 space group operations
 (whereof  6 operations are pure point group operations),
 and found     1 'primitive' translations


----------------------------------------------------------------------------------------

                                     Primitive cell                                     

  volume of cell :    1484.4589

  direct lattice vectors                    reciprocal lattice vectors
     8.791366577  0.000000000  0.000000000     0.113747958 -0.065672414  0.000000000
     4.395683289  7.613546790  0.000000000     0.000000000  0.131344829  0.000000000
     0.000000000  0.000000000 22.178121567     0.000000000  0.000000000  0.045089481

  length of vectors
     8.791366577  8.791366577 22.178121567     0.131344829  0.131344829  0.045089481

  position of ions in fractional coordinates (direct lattice)
     0.000000000  0.000000000  0.238171124
     0.333333313  0.000000000  0.238171124
     0.666666627  0.000000000  0.238171124
     0.000000000  0.333333343  0.238171124
     0.333333313  0.333333343  0.238171124
     0.666666687  0.333333343  0.238171124
     0.000000000  0.666666687  0.238171124
     0.333333313  0.666666687  0.238171124
     0.666666627  0.666666687  0.238171124
     0.111111104  0.111111112  0.346057051
     0.444444448  0.111111112  0.346057051
     0.777777791  0.111111112  0.346057051
     0.111111097  0.444444448  0.346057051
     0.444444418  0.444444448  0.346057051
     0.777777791  0.444444448  0.346057051
     0.111111104  0.777777791  0.346057051
     0.444444448  0.777777791  0.346057051
     0.777777791  0.777777791  0.346057051
     0.888965348  0.222069319  0.453214465
     0.222608922  0.222608937  0.452741434
     0.554782097  0.222608937  0.452741434
     0.888549089  0.555725486  0.453485214
     0.222608937  0.554782157  0.452741434
     0.555725486  0.555725486  0.453485214
     0.888965348  0.888965348  0.453214465
     0.222069289  0.888965348  0.453214465
     0.555725426  0.888549089  0.453485214
     0.000000000  0.000000000  0.560648641
     0.333630460  0.003871759  0.561777603
     0.662497721  0.003871759  0.561777603
     0.003871759  0.333630490  0.561777603
     0.662497781  0.333630490  0.561777603
     0.003871759  0.662497781  0.561777603
     0.333630460  0.662497781  0.561777603
     0.666666627  0.666666687  0.561557070
     0.333333313  0.333333343  0.554704153
     0.333333313  0.333333343  0.632556163

  ion indices of the primitive-cell ions
   primitive index   ion index
                 1           1
                 2           2
                 3           3
                 4           4
                 5           5
                 6           6
                 7           7
                 8           8
                 9           9
                10          10
                11          11
                12          12
                13          13
                14          14
                15          15
                16          16
                17          17
                18          18
                19          19
                20          20
                21          21
                22          22
                23          23
                24          24
                25          25
                26          26
                27          27
                28          28
                29          29
                30          30
                31          31
                32          32
                33          33
                34          34
                35          35
                36          36
                37          37

----------------------------------------------------------------------------------------

 
 
 KPOINTS: Automatic mesh                          

Automatic generation of k-mesh.
 Grid dimensions read from file:
 generate k-points for:    8    8    1

 Generating k-lattice:

  Cartesian coordinates                     Fractional coordinates (reciprocal lattice)
     0.014218495 -0.008209052  0.000000000     0.125000000  0.000000000  0.000000000
     0.000000000  0.016418104  0.000000000     0.000000000  0.125000000  0.000000000
     0.000000000  0.000000000  0.045089481     0.000000000  0.000000000  1.000000000

  Length of vectors
     0.016418104  0.016418104  0.045089481

  Shift w.r.t. Gamma in fractional coordinates (k-lattice)
     0.000000000  0.000000000  0.000000000

 TETIRR: Found     36 inequivalent tetrahedra from      384
 
 Subroutine IBZKPT returns following result:
 ===========================================
 
 Found     10 irreducible k-points:
 
 Following reciprocal coordinates:
            Coordinates               Weight
  0.000000  0.000000  0.000000      1.000000
  0.125000 -0.000000  0.000000      6.000000
  0.250000 -0.000000  0.000000      6.000000
  0.375000 -0.000000  0.000000      6.000000
  0.500000 -0.000000  0.000000      3.000000
  0.250000  0.125000  0.000000      6.000000
  0.375000  0.125000  0.000000     12.000000
  0.500000  0.125000  0.000000     12.000000
  0.500000  0.250000  0.000000      6.000000
 -0.375000  0.250000  0.000000      6.000000
 
 Following cartesian coordinates:
            Coordinates               Weight
  0.000000  0.000000  0.000000      1.000000
  0.014218 -0.008209  0.000000      6.000000
  0.028437 -0.016418  0.000000      6.000000
  0.042655 -0.024627  0.000000      6.000000
  0.056874 -0.032836  0.000000      3.000000
  0.028437 -0.000000  0.000000      6.000000
  0.042655 -0.008209  0.000000     12.000000
  0.056874 -0.016418  0.000000     12.000000
  0.056874 -0.000000  0.000000      6.000000
 -0.042655  0.057463  0.000000      6.000000
 


--------------------------------------------------------------------------------------------------------




 Dimension of arrays:
   k-points           NKPTS =     10   k-points in BZ     NKDIM =     10   number of bands    NBANDS=    252
   number of dos      NEDOS =    301   number of ions     NIONS =     37
   non local maximal  LDIM  =      6   non local SUM 2l+1 LMDIM =     18
   total plane-waves  NPLWV = 290304
   max r-space proj   IRMAX =   3185   max aug-charges    IRDMAX=  13704
   dimension x,y,z NGX =    48 NGY =   48 NGZ =  126
   dimension x,y,z NGXF=    96 NGYF=   96 NGZF=  252
   support grid    NGXF=    96 NGYF=   96 NGZF=  252
   ions per type =              35   1   1
   NGX,Y,Z   is equivalent  to a cutoff of   9.08,  9.08,  9.44 a.u.
   NGXF,Y,Z  is equivalent  to a cutoff of  18.15, 18.15, 18.89 a.u.

 SYSTEM =  unknown system                          
 POSCAR =  Ag-Ti-H                                 

 Startparameter for this run:
   NWRITE =      2    write-flag & timer
   PREC   = normal    normal or accurate (medium, high low for compatibility)
   ISTART =      0    job   : 0-new  1-cont  2-samecut
   ICHARG =     11    charge: 1-file 2-atom 10-const
   ISPIN  =      1    spin polarized calculation?
   LNONCOLLINEAR =      F non collinear calculations
   LSORBIT =      F    spin-orbit coupling
   INIWAV =      1    electr: 0-lowe 1-rand  2-diag
   LASPH  =      F    aspherical Exc in radial PAW
   METAGGA=      F    non-selfconsistent MetaGGA calc.

 Electronic Relaxation 1
   ENCUT  =  500.0 eV  36.75 Ry    6.06 a.u.  16.03 16.03 40.44*2*pi/ulx,y,z
   ENINI  =  500.0     initial cutoff
   ENAUG  =  412.5 eV  augmentation charge cutoff
   NELM   =    150;   NELMIN=  2; NELMDL= -5     # of ELM steps 
   EDIFF  = 0.1E-04   stopping-criterion for ELM
   LREAL  =      T    real-space projection
   NLSPLINE    = F    spline interpolate recip. space projectors
   LCOMPAT=      F    compatible to vasp.4.4
   GGA_COMPAT  = T    GGA compatible to vasp.4.4-vasp.4.6
   LMAXPAW     = -100 max onsite density
   LMAXMIX     =    2 max onsite mixed and CHGCAR
   VOSKOWN=      0    Vosko Wilk Nusair interpolation
   ROPT   =   -0.00050  -0.00050  -0.00050
 Ionic relaxation
   EDIFFG = -.1E-01   stopping-criterion for IOM
   NSW    =      0    number of steps for IOM
   NBLOCK =      1;   KBLOCK =      1    inner block; outer block 
   IBRION =     -1    ionic relax: 0-MD 1-quasi-New 2-CG
   NFREE  =      1    steps in history (QN), initial steepest desc. (CG)
   ISIF   =      2    stress and relaxation
   IWAVPR =     10    prediction:  0-non 1-charg 2-wave 3-comb
   ISYM   =      2    0-nonsym 1-usesym 2-fastsym
   LCORR  =      T    Harris-Foulkes like correction to forces

   POTIM  = 0.5000    time-step for ionic-motion
   TEIN   =    0.0    initial temperature
   TEBEG  =    0.0;   TEEND  =   0.0 temperature during run
   SMASS  =  -3.00    Nose mass-parameter (am)
   estimated Nose-frequenzy (Omega)   =  0.10E-29 period in steps = 0.13E+47 mass=  -0.177E-26a.u.
   SCALEE = 1.0000    scale energy and forces
   NPACO  =    256;   APACO  = 16.0  distance and # of slots for P.C.
   PSTRESS=    0.0 pullay stress

  Mass of Ions in am
   POMASS = 107.87 47.88  1.00
  Ionic Valenz
   ZVAL   =  11.00  4.00  1.00
  Atomic Wigner-Seitz radii
   RWIGS  =  -1.00 -1.00 -1.00
  virtual crystal weights 
   VCA    =   1.00  1.00  1.00
   NELECT =     390.0000    total number of electrons
   NUPDOWN=      -1.0000    fix difference up-down

 DOS related values:
   EMIN   =  10.00;   EMAX   =-10.00  energy-range for DOS
   EFERMI =   0.00
   ISMEAR =    -5;   SIGMA  =   0.10  broadening in eV -4-tet -1-fermi 0-gaus

 Electronic relaxation 2 (details)
   IALGO  =     68    algorithm
   LDIAG  =      T    sub-space diagonalisation (order eigenvalues)
   LSUBROT=      F    optimize rotation matrix (better conditioning)
   TURBO    =      0    0=normal 1=particle mesh
   IRESTART =      0    0=no restart 2=restart with 2 vectors
   NREBOOT  =      0    no. of reboots
   NMIN     =      0    reboot dimension
   EREF     =   0.00    reference energy to select bands
   IMIX   =      4    mixing-type and parameters
     AMIX     =   0.40;   BMIX     =  1.00
     AMIX_MAG =   1.60;   BMIX_MAG =  1.00
     AMIN     =   0.10
     WC   =   100.;   INIMIX=   1;  MIXPRE=   1;  MAXMIX= -45

 Intra band minimization:
   WEIMIN = 0.0000     energy-eigenvalue tresh-hold
   EBREAK =  0.99E-08  absolut break condition
   DEPER  =   0.30     relativ break condition  

   TIME   =   0.40     timestep for ELM

  volume/ion in A,a.u.               =      40.12       270.75
  Fermi-wavevector in a.u.,A,eV,Ry     =   1.048513  1.981401 14.957954  1.099379
  Thomas-Fermi vector in A             =   2.183437
 
 Write flags
   LWAVE        =      F    write WAVECAR
   LDOWNSAMPLE  =      F    k-point downsampling of WAVECAR
   LCHARG       =      F    write CHGCAR
   LVTOT        =      F    write LOCPOT, total local potential
   LVHAR        =      F    write LOCPOT, Hartree potential only
   LELF         =      F    write electronic localiz. function (ELF)
   LORBIT       =     10    0 simple, 1 ext, 2 COOP (PROOUT), +10 PAW based schemes


 Dipole corrections
   LMONO  =      F    monopole corrections only (constant potential shift)
   LDIPOL =      F    correct potential (dipole corrections)
   IDIPOL =      0    1-x, 2-y, 3-z, 4-all directions 
   EPSILON=  1.0000000 bulk dielectric constant

 Exchange correlation treatment:
   GGA     =    --    GGA type
   LEXCH   =     8    internal setting for exchange type
   VOSKOWN=      0    Vosko Wilk Nusair interpolation
   LHFCALC =     F    Hartree Fock is set to
   LHFONE  =     F    Hartree Fock one center treatment
   AEXX    =    0.0000 exact exchange contribution

 Linear response parameters
   LEPSILON=     F    determine dielectric tensor
   LRPA    =     F    only Hartree local field effects (RPA)
   LNABLA  =     F    use nabla operator in PAW spheres
   LVEL    =     F    velocity operator in full k-point grid
   LINTERFAST=   F  fast interpolation
   KINTER  =     0    interpolate to denser k-point grid
   CSHIFT  =0.1000    complex shift for real part using Kramers Kronig
   OMEGAMAX=  -1.0    maximum frequency
   DEG_THRESHOLD= 0.2000000E-02 threshold for treating states as degnerate
   RTIME   =   -0.100 relaxation time in fs
  (WPLASMAI=    0.000 imaginary part of plasma frequency in eV, 0.658/RTIME)
   DFIELD  = 0.0000000 0.0000000 0.0000000 field for delta impulse in time
 
 Orbital magnetization related:
   ORBITALMAG=     F  switch on orbital magnetization
   LCHIMAG   =     F  perturbation theory with respect to B field
   DQ        =  0.001000  dq finite difference perturbation B field
   LLRAUG    =     F  two centre corrections for induced B field



--------------------------------------------------------------------------------------------------------


 Static calculation
 charge density and potential remain constant during run
 non-spin polarized calculation
 RMM-DIIS sequential band-by-band and
  variant of blocked Davidson during initial phase
 perform sub-space diagonalisation
    before iterative eigenvector-optimisation
 no mixing
 using additional bands           57
 real space projection scheme for non local part
 use partial core corrections
 calculate Harris-corrections to forces 
   (improved forces if not selfconsistent)
 use gradient corrections 
 WARNING: stress and forces are not correct
  (second derivative of E(xc) not defined)
 use of overlap-Matrix (Vanderbilt PP)
 Fermi weights with tetrahedron method with Bloechl corrections


--------------------------------------------------------------------------------------------------------


  energy-cutoff  :      500.00
  volume of cell :     1484.46
      direct lattice vectors                 reciprocal lattice vectors
     8.791366577  0.000000000  0.000000000     0.113747958 -0.065672414  0.000000000
     4.395683289  7.613546790  0.000000000     0.000000000  0.131344829  0.000000000
     0.000000000  0.000000000 22.178121567     0.000000000  0.000000000  0.045089481

  length of vectors
     8.791366577  8.791366577 22.178121567     0.131344829  0.131344829  0.045089481


 
 k-points in units of 2pi/SCALE and weight: Automatic mesh                          
   0.00000000  0.00000000  0.00000000       0.016
   0.01421849 -0.00820905  0.00000000       0.094
   0.02843699 -0.01641810  0.00000000       0.094
   0.04265548 -0.02462716  0.00000000       0.094
   0.05687398 -0.03283621  0.00000000       0.047
   0.02843699 -0.00000000  0.00000000       0.094
   0.04265548 -0.00820905  0.00000000       0.188
   0.05687398 -0.01641810  0.00000000       0.188
   0.05687398 -0.00000000  0.00000000       0.094
  -0.04265548  0.05746336  0.00000000       0.094
 
 k-points in reciprocal lattice and weights: Automatic mesh                          
   0.00000000  0.00000000  0.00000000       0.016
   0.12500000 -0.00000000  0.00000000       0.094
   0.25000000 -0.00000000  0.00000000       0.094
   0.37500000 -0.00000000  0.00000000       0.094
   0.50000000 -0.00000000  0.00000000       0.047
   0.25000000  0.12500000  0.00000000       0.094
   0.37500000  0.12500000  0.00000000       0.188
   0.50000000  0.12500000  0.00000000       0.188
   0.50000000  0.25000000  0.00000000       0.094
  -0.37500000  0.25000000  0.00000000       0.094
 
 position of ions in fractional coordinates (direct lattice) 
   0.00000000  0.00000000  0.23817112
   0.33333331  0.00000000  0.23817112
   0.66666663  0.00000000  0.23817112
   0.00000000  0.33333334  0.23817112
   0.33333331  0.33333334  0.23817112
   0.66666669  0.33333334  0.23817112
   0.00000000  0.66666669  0.23817112
   0.33333331  0.66666669  0.23817112
   0.66666663  0.66666669  0.23817112
   0.11111110  0.11111111  0.34605705
   0.44444445  0.11111111  0.34605705
   0.77777779  0.11111111  0.34605705
   0.11111110  0.44444445  0.34605705
   0.44444442  0.44444445  0.34605705
   0.77777779  0.44444445  0.34605705
   0.11111110  0.77777779  0.34605705
   0.44444445  0.77777779  0.34605705
   0.77777779  0.77777779  0.34605705
   0.88896535  0.22206932  0.45321446
   0.22260892  0.22260894  0.45274143
   0.55478210  0.22260894  0.45274143
   0.88854909  0.55572549  0.45348521
   0.22260894  0.55478216  0.45274143
   0.55572549  0.55572549  0.45348521
   0.88896535  0.88896535  0.45321446
   0.22206929  0.88896535  0.45321446
   0.55572543  0.88854909  0.45348521
   0.00000000  0.00000000  0.56064864
   0.33363046  0.00387176  0.56177760
   0.66249772  0.00387176  0.56177760
   0.00387176  0.33363049  0.56177760
   0.66249778  0.33363049  0.56177760
   0.00387176  0.66249778  0.56177760
   0.33363046  0.66249778  0.56177760
   0.66666663  0.66666669  0.56155707
   0.33333331  0.33333334  0.55470415
   0.33333331  0.33333334  0.63255616
 
 position of ions in cartesian coordinates  (Angst):
   0.00000000  0.00000000  5.28218814
   2.93045535  0.00000000  5.28218814
   5.86091070  0.00000000  5.28218814
   1.46522781  2.53784900  5.28218814
   4.39568315  2.53784900  5.28218814
   7.32613904  2.53784900  5.28218814
   2.93045562  5.07569801  5.28218814
   5.86091096  5.07569801  5.28218814
   8.79136632  5.07569801  5.28218814
   1.46522770  0.84594965  7.67489535
   4.39568332  0.84594965  7.67489535
   7.32613893  0.84594965  7.67489535
   2.93045542  3.38379860  7.67489535
   5.86091083  3.38379860  7.67489535
   8.79136671  3.38379860  7.67489535
   4.39568328  5.92164760  7.67489535
   7.32613890  5.92164760  7.67489535
  10.25659451  5.92164760  7.67489535
   8.79136665  1.69073515 10.05144549
   2.93555502  1.69484356 10.04095455
   5.85581116  1.69484356 10.04095455
  10.25435399  4.23104199 10.05745020
   4.39568342  4.22385991 10.04095455
   7.32837969  4.23104199 10.05745020
  11.72283038  6.76817927 10.05144549
   5.85990265  6.76817927 10.05144549
   8.79136631  6.76501006 10.05745020
   0.00000000  0.00000000 12.43413371
   2.95008670  0.02947782 12.45917197
   5.84127935  0.02947782 12.45917197
   1.50057202  2.54011134 12.45917197
   7.29079482  2.54011134 12.45917197
   2.94616848  5.04395785 12.45917197
   5.84519810  5.04395785 12.45917197
   8.79136632  5.07569801 12.45428096
   4.39568315  2.53784900 12.30229615
   4.39568315  2.53784900 14.02890749
 


--------------------------------------------------------------------------------------------------------


 k-point   1 :   0.0000 0.0000 0.0000  plane waves:   37683
 k-point   2 :   0.1250-0.0000 0.0000  plane waves:   37658
 k-point   3 :   0.2500-0.0000 0.0000  plane waves:   37682
 k-point   4 :   0.3750-0.0000 0.0000  plane waves:   37686
 k-point   5 :   0.5000-0.0000 0.0000  plane waves:   37668
 k-point   6 :   0.2500 0.1250 0.0000  plane waves:   37666
 k-point   7 :   0.3750 0.1250 0.0000  plane waves:   37708
 k-point   8 :   0.5000 0.1250 0.0000  plane waves:   37726
 k-point   9 :   0.5000 0.2500 0.0000  plane waves:   37706
 k-point  10 :  -0.3750 0.2500 0.0000  plane waves:   37686

 maximum and minimum number of plane-waves per node :     37726    37658

 maximum number of plane-waves:     37726
 maximum index in each direction: 
   IXMAX=   16   IYMAX=   16   IZMAX=   40
   IXMIN=  -16   IYMIN=  -16   IZMIN=  -40


 serial   3D FFT for wavefunctions
 parallel 3D FFT for charge:
    minimum data exchange during FFTs selected (reduces bandwidth)


 total amount of memory used by VASP MPI-rank0   123409. kBytes
=======================================================================

   base      :      30000. kBytes
   nonlr-proj:      15306. kBytes
   fftplans  :       4330. kBytes
   grid      :      17879. kBytes
   one-center:        575. kBytes
   wavefun   :      55319. kBytes
 
     INWAV:  cpu time    0.0000: real time    0.0000
 initial charge density was supplied:
 number of electron     389.9999960 magnetization 
 keeping initial charge density in first step


--------------------------------------------------------------------------------------------------------


 Maximum index for non-local projection operator         3047
 Maximum index for augmentation-charges          706 (set IRDMAX)


--------------------------------------------------------------------------------------------------------


 First call to EWALD:  gamma=   0.155
 Maximum number of real-space cells 4x 4x 2
 Maximum number of reciprocal cells 2x 2x 5

    FEWALD:  cpu time    0.0013: real time    0.0013


--------------------------------------- Iteration      1(   1)  ---------------------------------------


    POTLOK:  cpu time    0.0453: real time    0.0456
    SETDIJ:  cpu time    0.0049: real time    0.0049
     EDDAV:  cpu time    7.1925: real time    7.1959
 BZINTS: Fermi energy:    9.135220;  390.000000 electrons
         Band energy: 0.114910E+04;  BLOECHL correction:   -0.007476
       DOS:  cpu time    0.0102: real time    0.0103
    --------------------------------------------
      LOOP:  cpu time    7.2529: real time    7.2568

 eigenvalue-minimisations  :  5040
 total energy-change (2. order) : 0.2367566E+04  (-0.1790190E+05)
 number of electron     389.9999960 magnetization 
 augmentation part      389.9999960 magnetization 

 Free energy of the ion-electron system (eV)
  ---------------------------------------------------
  alpha Z        PSCENC =       734.81428718
  Ewald energy   TEWEN  =     96064.79425443
  -Hartree energ DENC   =   -133144.36759774
  -exchange      EXHF   =         0.00000000
  -V(xc)+E(xc)   XCENC  =      -423.50928444
  PAW double counting   =     38496.23045910   -36920.95608194
  entropy T*S    EENTRO =         0.00000000
  eigenvalues    EBANDS =      1149.09958536
  atomic energy  EATOM  =     36411.45990022
  Solvation  Ediel_sol  =         0.00000000
  ---------------------------------------------------
  free energy    TOTEN  =      2367.56552216 eV

  energy without entropy =     2367.56552216  energy(sigma->0) =     2367.56552216


--------------------------------------------------------------------------------------------------------




--------------------------------------- Iteration      1(   2)  ---------------------------------------


     EDDAV:  cpu time    7.4759: real time    7.4781
 BZINTS: Fermi energy:    1.132901;  390.000000 electrons
         Band energy:-0.124163E+04;  BLOECHL correction:   -0.028309
       DOS:  cpu time    0.0095: real time    0.0095
    --------------------------------------------
      LOOP:  cpu time    7.4855: real time    7.4876

 eigenvalue-minimisations  :  5320
 total energy-change (2. order) :-0.2390726E+04  (-0.2262090E+04)
 number of electron     389.9999960 magnetization 
 augmentation part      389.9999960 magnetization 

 Free energy of the ion-electron system (eV)
  ---------------------------------------------------
  alpha Z        PSCENC =       734.81428718
  Ewald energy   TEWEN  =     96064.79425443
  -Hartree energ DENC   =   -133144.36759774
  -exchange      EXHF   =         0.00000000
  -V(xc)+E(xc)   XCENC  =      -423.50928444
  PAW double counting   =     38496.23045910   -36920.95608194
  entropy T*S    EENTRO =         0.00000000
  eigenvalues    EBANDS =     -1241.62668921
  atomic energy  EATOM  =     36411.45990022
  Solvation  Ediel_sol  =         0.00000000
  ---------------------------------------------------
  free energy    TOTEN  =       -23.16075240 eV

  energy without entropy =      -23.16075240  energy(sigma->0) =      -23.16075240


--------------------------------------------------------------------------------------------------------




--------------------------------------- Iteration      1(   3)  ---------------------------------------


     EDDAV:  cpu time    7.9758: real time    7.9809
 BZINTS: Fermi energy:    0.735190;  390.000000 electrons
         Band energy:-0.131635E+04;  BLOECHL correction:   -0.038462
       DOS:  cpu time    0.0099: real time    0.0099
    --------------------------------------------
      LOOP:  cpu time    7.9857: real time    7.9908

 eigenvalue-minimisations  :  5740
 total energy-change (2. order) :-0.7472829E+02  (-0.7338698E+02)
 number of electron     389.9999960 magnetization 
 augmentation part      389.9999960 magnetization 

 Free energy of the ion-electron system (eV)
  ---------------------------------------------------
  alpha Z        PSCENC =       734.81428718
  Ewald energy   TEWEN  =     96064.79425443
  -Hartree energ DENC   =   -133144.36759774
  -exchange      EXHF   =         0.00000000
  -V(xc)+E(xc)   XCENC  =      -423.50928444
  PAW double counting   =     38496.23045910   -36920.95608194
  entropy T*S    EENTRO =         0.00000000
  eigenvalues    EBANDS =     -1316.35497564
  atomic energy  EATOM  =     36411.45990022
  Solvation  Ediel_sol  =         0.00000000
  ---------------------------------------------------
  free energy    TOTEN  =       -97.88903883 eV

  energy without entropy =      -97.88903883  energy(sigma->0) =      -97.88903883


--------------------------------------------------------------------------------------------------------




--------------------------------------- Iteration      1(   4)  ---------------------------------------


     EDDAV:  cpu time    8.2223: real time    8.2245
 BZINTS: Fermi energy:    0.729473;  390.000000 electrons
         Band energy:-0.131720E+04;  BLOECHL correction:   -0.038699
       DOS:  cpu time    0.0098: real time    0.0100
    --------------------------------------------
      LOOP:  cpu time    8.2322: real time    8.2345

 eigenvalue-minimisations  :  5964
 total energy-change (2. order) :-0.8419844E+00  (-0.8414856E+00)
 number of electron     389.9999960 magnetization 
 augmentation part      389.9999960 magnetization 

 Free energy of the ion-electron system (eV)
  ---------------------------------------------------
  alpha Z        PSCENC =       734.81428718
  Ewald energy   TEWEN  =     96064.79425443
  -Hartree energ DENC   =   -133144.36759774
  -exchange      EXHF   =         0.00000000
  -V(xc)+E(xc)   XCENC  =      -423.50928444
  PAW double counting   =     38496.23045910   -36920.95608194
  entropy T*S    EENTRO =         0.00000000
  eigenvalues    EBANDS =     -1317.19696008
  atomic energy  EATOM  =     36411.45990022
  Solvation  Ediel_sol  =         0.00000000
  ---------------------------------------------------
  free energy    TOTEN  =       -98.73102328 eV

  energy without entropy =      -98.73102328  energy(sigma->0) =      -98.73102328


--------------------------------------------------------------------------------------------------------




--------------------------------------- Iteration      1(   5)  ---------------------------------------


     EDDAV:  cpu time    8.7169: real time    8.7194
 BZINTS: Fermi energy:    0.729264;  390.000000 electrons
         Band energy:-0.131722E+04;  BLOECHL correction:   -0.038706
       DOS:  cpu time    0.0102: real time    0.0102
    --------------------------------------------
      LOOP:  cpu time    8.7271: real time    8.7296

 eigenvalue-minimisations  :  6412
 total energy-change (2. order) :-0.1938673E-01  (-0.1938660E-01)
 number of electron     389.9999960 magnetization 
 augmentation part      389.9999960 magnetization 

 Free energy of the ion-electron system (eV)
  ---------------------------------------------------
  alpha Z        PSCENC =       734.81428718
  Ewald energy   TEWEN  =     96064.79425443
  -Hartree energ DENC   =   -133144.36759774
  -exchange      EXHF   =         0.00000000
  -V(xc)+E(xc)   XCENC  =      -423.50928444
  PAW double counting   =     38496.23045910   -36920.95608194
  entropy T*S    EENTRO =         0.00000000
  eigenvalues    EBANDS =     -1317.21634682
  atomic energy  EATOM  =     36411.45990022
  Solvation  Ediel_sol  =         0.00000000
  ---------------------------------------------------
  free energy    TOTEN  =       -98.75041001 eV

  energy without entropy =      -98.75041001  energy(sigma->0) =      -98.75041001


--------------------------------------------------------------------------------------------------------




--------------------------------------- Iteration      1(   6)  ---------------------------------------


    EDDIAG:  cpu time    1.3967: real time    1.3976
  RMM-DIIS:  cpu time    3.8841: real time    3.8853
    ORTHCH:  cpu time    0.2609: real time    0.2609
 BZINTS: Fermi energy:    0.729262;  390.000000 electrons
         Band energy:-0.131722E+04;  BLOECHL correction:   -0.038706
       DOS:  cpu time    0.0101: real time    0.0101
    --------------------------------------------
      LOOP:  cpu time    5.5519: real time    5.5539

 eigenvalue-minimisations  :  4921
 total energy-change (2. order) :-0.4080315E-03  (-0.4077879E-03)
 number of electron     389.9999960 magnetization 
 augmentation part      389.9999960 magnetization 

 Free energy of the ion-electron system (eV)
  ---------------------------------------------------
  alpha Z        PSCENC =       734.81428718
  Ewald energy   TEWEN  =     96064.79425443
  -Hartree energ DENC   =   -133144.36759774
  -exchange      EXHF   =         0.00000000
  -V(xc)+E(xc)   XCENC  =      -423.50928444
  PAW double counting   =     38496.23045910   -36920.95608194
  entropy T*S    EENTRO =         0.00000000
  eigenvalues    EBANDS =     -1317.21675485
  atomic energy  EATOM  =     36411.45990022
  Solvation  Ediel_sol  =         0.00000000
  ---------------------------------------------------
  free energy    TOTEN  =       -98.75081804 eV

  energy without entropy =      -98.75081804  energy(sigma->0) =      -98.75081804


--------------------------------------------------------------------------------------------------------




--------------------------------------- Iteration      1(   7)  ---------------------------------------


    EDDIAG:  cpu time    1.3981: real time    1.3986
  RMM-DIIS:  cpu time    5.4071: real time    5.4088
    ORTHCH:  cpu time    0.2614: real time    0.2614
 BZINTS: Fermi energy:    0.729262;  390.000000 electrons
         Band energy:-0.131722E+04;  BLOECHL correction:   -0.038707
       DOS:  cpu time    0.0100: real time    0.0100
    --------------------------------------------
      LOOP:  cpu time    7.0765: real time    7.0787

 eigenvalue-minimisations  :  6839
 total energy-change (2. order) :-0.1336409E-03  (-0.1333071E-03)
 number of electron     389.9999960 magnetization 
 augmentation part      389.9999960 magnetization 

 Free energy of the ion-electron system (eV)
  ---------------------------------------------------
  alpha Z        PSCENC =       734.81428718
  Ewald energy   TEWEN  =     96064.79425443
  -Hartree energ DENC   =   -133144.36759774
  -exchange      EXHF   =         0.00000000
  -V(xc)+E(xc)   XCENC  =      -423.50928444
  PAW double counting   =     38496.23045910   -36920.95608194
  entropy T*S    EENTRO =         0.00000000
  eigenvalues    EBANDS =     -1317.21688849
  atomic energy  EATOM  =     36411.45990022
  Solvation  Ediel_sol  =         0.00000000
  ---------------------------------------------------
  free energy    TOTEN  =       -98.75095168 eV

  energy without entropy =      -98.75095168  energy(sigma->0) =      -98.75095168


--------------------------------------------------------------------------------------------------------




--------------------------------------- Iteration      1(   8)  ---------------------------------------


    EDDIAG:  cpu time    1.4006: real time    1.4011
  RMM-DIIS:  cpu time    3.5538: real time    3.5549
    ORTHCH:  cpu time    0.2612: real time    0.2612
 BZINTS: Fermi energy:    0.729262;  390.000000 electrons
         Band energy:-0.131722E+04;  BLOECHL correction:   -0.038707
       DOS:  cpu time    0.0097: real time    0.0097
    --------------------------------------------
      LOOP:  cpu time    5.2253: real time    5.2269

 eigenvalue-minimisations  :  3882
 total energy-change (2. order) :-0.5479873E-05  (-0.5378888E-05)
 number of electron     389.9999960 magnetization 
 augmentation part      389.9999960 magnetization 

 Free energy of the ion-electron system (eV)
  ---------------------------------------------------
  alpha Z        PSCENC =       734.81428718
  Ewald energy   TEWEN  =     96064.79425443
  -Hartree energ DENC   =   -133144.36759774
  -exchange      EXHF   =         0.00000000
  -V(xc)+E(xc)   XCENC  =      -423.50928444
  PAW double counting   =     38496.23045910   -36920.95608194
  entropy T*S    EENTRO =         0.00000000
  eigenvalues    EBANDS =     -1317.21689397
  atomic energy  EATOM  =     36411.45990022
  Solvation  Ediel_sol  =         0.00000000
  ---------------------------------------------------
  free energy    TOTEN  =       -98.75095716 eV

  energy without entropy =      -98.75095716  energy(sigma->0) =      -98.75095716


--------------------------------------------------------------------------------------------------------




 average (electrostatic) potential at core
  the test charge radii are     1.1249  1.2598  0.5201
  (the norm of the test charge is              1.0000)
       1 -78.1606       2 -78.1639       3 -78.1638       4 -78.1639       5 -78.1685
       6 -78.1636       7 -78.1638       8 -78.1636       9 -78.1641      10 -78.4082
      11 -78.3988      12 -78.4080      13 -78.3988      14 -78.3987      15 -78.3865
      16 -78.4080      17 -78.3865      18 -78.3865      19 -78.3975      20 -78.5888
      21 -78.5888      22 -78.3754      23 -78.5888      24 -78.3754      25 -78.3975
      26 -78.3975      27 -78.3754      28 -78.1843      29 -78.2680      30 -78.2680
      31 -78.2680      32 -78.2679      33 -78.2680      34 -78.2679      35 -78.1505
      36 -29.8527      37 -34.3366
 
 
 
 E-fermi :   0.7293     XC(G=0):  -5.9100     alpha+bet : -5.5585

 Fermi energy:         0.7292621187

 k-point     1 :       0.0000    0.0000    0.0000
  band No.  band energies     occupation 
      1      -6.4179      2.00000
      2      -5.5527      2.00000
      3      -5.2658      2.00000
      4      -5.1733      2.00000
      5      -5.1479      2.00000
      6      -5.1479      2.00000
      7      -5.1347      2.00000
      8      -5.1334      2.00000
      9      -5.1334      2.00000
     10      -5.1165      2.00000
     11      -5.0960      2.00000
     12      -5.0934      2.00000
     13      -5.0934      2.00000
     14      -5.0911      2.00000
     15      -5.0821      2.00000
     16      -5.0821      2.00000
     17      -4.9506      2.00000
     18      -4.9408      2.00000
     19      -4.9408      2.00000
     20      -4.9256      2.00000
     21      -4.9146      2.00000
     22      -4.9146      2.00000
     23      -4.7707      2.00000
     24      -4.7457      2.00000
     25      -4.7377      2.00000
     26      -4.7377      2.00000
     27      -4.7147      2.00000
     28      -4.7056      2.00000
     29      -4.7055      2.00000
     30      -4.7044      2.00000
     31      -4.6863      2.00000
     32      -4.6862      2.00000
     33      -4.6724      2.00000
     34      -4.6724      2.00000
     35      -4.6198      2.00000
     36      -4.5896      2.00000
     37      -4.5886      2.00000
     38      -4.5886      2.00000
     39      -4.4957      2.00000
     40      -4.4957      2.00000
     41      -4.3597      2.00000
     42      -4.3562      2.00000
     43      -4.3562      2.00000
     44      -4.3383      2.00000
     45      -4.3383      2.00000
     46      -4.3348      2.00000
     47      -4.3276      2.00000
     48      -4.3276      2.00000
     49      -4.3032      2.00000
     50      -4.3032      2.00000
     51      -4.1854      2.00000
     52      -4.1837      2.00000
     53      -4.1603      2.00000
     54      -4.1551      2.00000
     55      -4.0017      2.00000
     56      -3.9748      2.00000
     57      -3.9748      2.00000
     58      -3.9610      2.00000
     59      -3.9536      2.00000
     60      -3.9536      2.00000
     61      -3.9360      2.00000
     62      -3.9283      2.00000
     63      -3.9283      2.00000
     64      -3.8886      2.00000
     65      -3.8886      2.00000
     66      -3.8043      2.00000
     67      -3.8043      2.00000
     68      -3.7970      2.00000
     69      -3.7913      2.00000
     70      -3.7913      2.00000
     71      -3.7836      2.00000
     72      -3.7836      2.00000
     73      -3.7829      2.00000
     74      -3.7597      2.00000
     75      -3.7597      2.00000
     76      -3.7521      2.00000
     77      -3.7493      2.00000
     78      -3.7222      2.00000
     79      -3.7222      2.00000
     80      -3.6938      2.00000
     81      -3.6938      2.00000
     82      -3.6830      2.00000
     83      -3.6519      2.00000
     84      -3.6518      2.00000
     85      -3.6071      2.00000
     86      -3.6071      2.00000
     87      -3.5803      2.00000
     88      -3.5675      2.00000
     89      -3.5675      2.00000
     90      -3.5548      2.00000
     91      -3.5548      2.00000
     92      -3.4763      2.00000
     93      -3.4762      2.00000
     94      -3.4761      2.00000
     95      -3.4680      2.00000
     96      -3.4680      2.00000
     97      -3.4438      2.00000
     98      -3.4438      2.00000
     99      -3.2686      2.00000
    100      -3.2580      2.00000
    101      -3.2580      2.00000
    102      -3.2370      2.00000
    103      -3.2370      2.00000
    104      -3.2189      2.00000
    105      -3.2189      2.00000
    106      -3.2163      2.00000
    107      -3.1949      2.00000
    108      -3.1732      2.00000
    109      -3.1732      2.00000
    110      -3.1236      2.00000
    111      -3.1140      2.00000
    112      -3.0775      2.00000
    113      -3.0762      2.00000
    114      -3.0762      2.00000
    115      -3.0003      2.00000
    116      -3.0003      2.00000
    117      -2.9537      2.00000
    118      -2.9537      2.00000
    119      -2.9403      2.00000
    120      -2.9403      2.00000
    121      -2.9012      2.00000
    122      -2.9012      2.00000
    123      -2.8985      2.00000
    124      -2.8727      2.00000
    125      -2.8675      2.00000
    126      -2.8674      2.00000
    127      -2.8535      2.00000
    128      -2.8535      2.00000
    129      -2.8457      2.00000
    130      -2.8455      2.00000
    131      -2.8455      2.00000
    132      -2.8423      2.00000
    133      -2.7487      2.00000
    134      -2.7487      2.00000
    135      -2.6867      2.00000
    136      -2.6866      2.00000
    137      -2.6664      2.00000
    138      -2.6654      2.00000
    139      -2.6530      2.00000
    140      -2.6530      2.00000
    141      -2.6413      2.00000
    142      -2.6413      2.00000
    143      -2.6412      2.00000
    144      -2.6131      2.00000
    145      -2.6131      2.00000
    146      -2.6103      2.00000
    147      -2.6066      2.00000
    148      -2.5774      2.00000
    149      -2.5728      2.00000
    150      -2.5654      2.00000
    151      -2.5465      2.00000
    152      -2.5465      2.00000
    153      -2.5426      2.00000
    154      -2.5426      2.00000
    155      -2.5141      2.00000
    156      -2.5049      2.00000
    157      -2.5049      2.00000
    158      -2.4951      2.00000
    159      -2.4562      2.00000
    160      -2.4540      2.00000
    161      -2.4540      2.00000
    162      -2.4366      2.00000
    163      -2.4310      2.00000
    164      -2.4310      2.00000
    165      -2.4275      2.00000
    166      -2.4142      2.00000
    167      -2.4106      2.00000
    168      -2.4106      2.00000
    169      -2.3751      2.00000
    170      -2.3751      2.00000
    171      -2.3474      2.00000
    172      -2.3474      2.00000
    173      -2.2773      2.00000
    174      -2.2772      2.00000
    175      -2.2745      2.00000
    176      -2.2528      2.00000
    177      -2.2528      2.00000
    178      -2.2454      2.00000
    179      -2.2450      2.00000
    180      -2.1608      2.00000
    181      -2.1608      2.00000
    182      -2.1514      2.00000
    183      -2.1513      2.00000
    184      -2.1490      2.00000
    185      -1.7080      2.00000
    186      -1.4130      2.00000
    187      -1.4130      2.00000
    188      -1.3853      2.00000
    189      -1.3853      2.00000
    190      -1.3642      2.00000
    191      -0.9165      2.00000
    192      -0.0560      2.00000
    193       0.2460      2.00000
    194       0.2836      2.00000
    195       0.2836      2.00000
    196       0.3053      2.00000
    197       0.3053      2.00000
    198       0.3835      2.32281
    199       1.0924      0.00000
    200       1.0924      0.00000
    201       1.1227      0.00000
    202       1.2372      0.00000
    203       1.2372      0.00000
    204       2.0808      0.00000
    205       2.5977      0.00000
    206       2.6107      0.00000
    207       2.6107      0.00000
    208       2.8761      0.00000
    209       2.8761      0.00000
    210       3.9487      0.00000
    211       4.0402      0.00000
    212       4.1457      0.00000
    213       4.1457      0.00000
    214       4.1847      0.00000
    215       4.1848      0.00000
    216       4.3959      0.00000
    217       4.9266      0.00000
    218       4.9341      0.00000
    219       4.9341      0.00000
    220       4.9762      0.00000
    221       4.9853      0.00000
    222       4.9853      0.00000
    223       5.0352      0.00000
    224       5.0352      0.00000
    225       5.1026      0.00000
    226       5.1026      0.00000
    227       5.1154      0.00000
    228       5.2157      0.00000
    229       5.4015      0.00000
    230       6.0838      0.00000
    231       6.4955      0.00000
    232       6.5494      0.00000
    233       6.5494      0.00000
    234       6.6087      0.00000
    235       6.6087      0.00000
    236       6.6278      0.00000
    237       6.7275      0.00000
    238       6.9178      0.00000
    239       6.9585      0.00000
    240       6.9585      0.00000
    241       6.9723      0.00000
    242       6.9723      0.00000
    243       7.0054      0.00000
    244       7.1798      0.00000
    245       7.2591      0.00000
    246       7.2601      0.00000
    247       7.2979      0.00000
    248       7.3003      0.00000
    249       7.3019      0.00000
    250       7.4257      0.00000
    251       7.7026      0.00000
    252       7.7255      0.00000

 k-point     2 :       0.1250   -0.0000    0.0000
  band No.  band energies     occupation 
      1      -6.3718      2.00000
      2      -5.5122      2.00000
      3      -5.2345      2.00000
      4      -5.2050      2.00000
      5      -5.1754      2.00000
      6      -5.1461      2.00000
      7      -5.1419      2.00000
      8      -5.1341      2.00000
      9      -5.1244      2.00000
     10      -5.1140      2.00000
     11      -5.0975      2.00000
     12      -5.0890      2.00000
     13      -5.0620      2.00000
     14      -5.0349      2.00000
     15      -5.0302      2.00000
     16      -5.0213      2.00000
     17      -5.0072      2.00000
     18      -4.9797      2.00000
     19      -4.9758      2.00000
     20      -4.8764      2.00000
     21      -4.8653      2.00000
     22      -4.8235      2.00000
     23      -4.8092      2.00000
     24      -4.7969      2.00000
     25      -4.7936      2.00000
     26      -4.7600      2.00000
     27      -4.7385      2.00000
     28      -4.7027      2.00000
     29      -4.6984      2.00000
     30      -4.6861      2.00000
     31      -4.6612      2.00000
     32      -4.6612      2.00000
     33      -4.6395      2.00000
     34      -4.5964      2.00000
     35      -4.5949      2.00000
     36      -4.5935      2.00000
     37      -4.5726      2.00000
     38      -4.5202      2.00000
     39      -4.4622      2.00000
     40      -4.4619      2.00000
     41      -4.4166      2.00000
     42      -4.4126      2.00000
     43      -4.4022      2.00000
     44      -4.3763      2.00000
     45      -4.3719      2.00000
     46      -4.3622      2.00000
     47      -4.3548      2.00000
     48      -4.3019      2.00000
     49      -4.2843      2.00000
     50      -4.2567      2.00000
     51      -4.1767      2.00000
     52      -4.1705      2.00000
     53      -4.1516      2.00000
     54      -4.1417      2.00000
     55      -4.0113      2.00000
     56      -3.9998      2.00000
     57      -3.9882      2.00000
     58      -3.9781      2.00000
     59      -3.9565      2.00000
     60      -3.9528      2.00000
     61      -3.9478      2.00000
     62      -3.9369      2.00000
     63      -3.9193      2.00000
     64      -3.9159      2.00000
     65      -3.8725      2.00000
     66      -3.8567      2.00000
     67      -3.8314      2.00000
     68      -3.8249      2.00000
     69      -3.8192      2.00000
     70      -3.8147      2.00000
     71      -3.7808      2.00000
     72      -3.7780      2.00000
     73      -3.7731      2.00000
     74      -3.7707      2.00000
     75      -3.7514      2.00000
     76      -3.7451      2.00000
     77      -3.7316      2.00000
     78      -3.7298      2.00000
     79      -3.7272      2.00000
     80      -3.6885      2.00000
     81      -3.6846      2.00000
     82      -3.6773      2.00000
     83      -3.6737      2.00000
     84      -3.6615      2.00000
     85      -3.6489      2.00000
     86      -3.6449      2.00000
     87      -3.6236      2.00000
     88      -3.6136      2.00000
     89      -3.5893      2.00000
     90      -3.5429      2.00000
     91      -3.5369      2.00000
     92      -3.5181      2.00000
     93      -3.5041      2.00000
     94      -3.4723      2.00000
     95      -3.4574      2.00000
     96      -3.3942      2.00000
     97      -3.3461      2.00000
     98      -3.3440      2.00000
     99      -3.3222      2.00000
    100      -3.3069      2.00000
    101      -3.2823      2.00000
    102      -3.2796      2.00000
    103      -3.2531      2.00000
    104      -3.2388      2.00000
    105      -3.2319      2.00000
    106      -3.2277      2.00000
    107      -3.2042      2.00000
    108      -3.1681      2.00000
    109      -3.1602      2.00000
    110      -3.1349      2.00000
    111      -3.1268      2.00000
    112      -3.0917      2.00000
    113      -3.0861      2.00000
    114      -3.0677      2.00000
    115      -3.0363      2.00000
    116      -3.0277      2.00000
    117      -3.0254      2.00000
    118      -3.0039      2.00000
    119      -2.9923      2.00000
    120      -2.9863      2.00000
    121      -2.9536      2.00000
    122      -2.9405      2.00000
    123      -2.9315      2.00000
    124      -2.9227      2.00000
    125      -2.9179      2.00000
    126      -2.9052      2.00000
    127      -2.8859      2.00000
    128      -2.8751      2.00000
    129      -2.8632      2.00000
    130      -2.8449      2.00000
    131      -2.8304      2.00000
    132      -2.8291      2.00000
    133      -2.8102      2.00000
    134      -2.7967      2.00000
    135      -2.7813      2.00000
    136      -2.7538      2.00000
    137      -2.7471      2.00000
    138      -2.7285      2.00000
    139      -2.7083      2.00000
    140      -2.6921      2.00000
    141      -2.6725      2.00000
    142      -2.6619      2.00000
    143      -2.6526      2.00000
    144      -2.6406      2.00000
    145      -2.6291      2.00000
    146      -2.6160      2.00000
    147      -2.5947      2.00000
    148      -2.5818      2.00000
    149      -2.5798      2.00000
    150      -2.5767      2.00000
    151      -2.5669      2.00000
    152      -2.5611      2.00000
    153      -2.5527      2.00000
    154      -2.5348      2.00000
    155      -2.5331      2.00000
    156      -2.5228      2.00000
    157      -2.5224      2.00000
    158      -2.5058      2.00000
    159      -2.5004      2.00000
    160      -2.4736      2.00000
    161      -2.4726      2.00000
    162      -2.4492      2.00000
    163      -2.4460      2.00000
    164      -2.4177      2.00000
    165      -2.4117      2.00000
    166      -2.4019      2.00000
    167      -2.3896      2.00000
    168      -2.3826      2.00000
    169      -2.3589      2.00000
    170      -2.3427      2.00000
    171      -2.3205      2.00000
    172      -2.3098      2.00000
    173      -2.3037      2.00000
    174      -2.2916      2.00000
    175      -2.2882      2.00000
    176      -2.2767      2.00000
    177      -2.2548      2.00000
    178      -2.2509      2.00000
    179      -2.2438      2.00000
    180      -2.2386      2.00000
    181      -2.2076      2.00000
    182      -1.9921      2.00000
    183      -1.7887      2.00000
    184      -1.7074      2.00000
    185      -1.6742      2.00000
    186      -1.6118      2.00000
    187      -1.4753      2.00000
    188      -1.2448      2.00000
    189      -0.9913      2.00000
    190      -0.8231      2.00000
    191      -0.6180      2.00000
    192      -0.2206      2.00000
    193      -0.0091      2.00000
    194       0.0753      2.00000
    195       0.0841      2.00000
    196       0.5819      2.01403
    197       0.6429      1.51281
    198       0.8644      0.12988
    199       1.1025      0.00000
    200       1.1282      0.00000
    201       1.2158      0.00000
    202       1.2388      0.00000
    203       1.2471      0.00000
    204       2.0189      0.00000
    205       2.2264      0.00000
    206       2.5270      0.00000
    207       2.8701      0.00000
    208       3.0397      0.00000
    209       3.1023      0.00000
    210       3.1219      0.00000
    211       3.1930      0.00000
    212       3.9882      0.00000
    213       3.9886      0.00000
    214       4.1908      0.00000
    215       4.2197      0.00000
    216       4.2753      0.00000
    217       4.5006      0.00000
    218       4.7410      0.00000
    219       4.9486      0.00000
    220       4.9729      0.00000
    221       5.0161      0.00000
    222       5.0969      0.00000
    223       5.1534      0.00000
    224       5.1654      0.00000
    225       5.2072      0.00000
    226       5.3553      0.00000
    227       5.4482      0.00000
    228       5.6101      0.00000
    229       5.6721      0.00000
    230       5.9539      0.00000
    231       6.2105      0.00000
    232       6.2867      0.00000
    233       6.3911      0.00000
    234       6.5301      0.00000
    235       6.5634      0.00000
    236       6.5910      0.00000
    237       6.6030      0.00000
    238       6.6679      0.00000
    239       6.6720      0.00000
    240       6.8024      0.00000
    241       6.8030      0.00000
    242       6.9186      0.00000
    243       7.0128      0.00000
    244       7.1098      0.00000
    245       7.2291      0.00000
    246       7.2597      0.00000
    247       7.2647      0.00000
    248       7.3961      0.00000
    249       7.4243      0.00000
    250       7.5912      0.00000
    251       7.6880      0.00000
    252       7.7730      0.00000

 k-point     3 :       0.2500   -0.0000    0.0000
  band No.  band energies     occupation 
      1      -6.2366      2.00000
      2      -5.3968      2.00000
      3      -5.2725      2.00000
      4      -5.2397      2.00000
      5      -5.2119      2.00000
      6      -5.1423      2.00000
      7      -5.1220      2.00000
      8      -5.1080      2.00000
[...]
  0.000   0.000   0.000   0.000   0.000   0.000   0.000   0.000   0.000   0.000   0.000   0.000   0.000   0.000   0.000   0.000
  0.000   0.000   0.000   0.000   0.000   0.000   0.000   0.000   0.000   0.000   0.000   0.000   0.000   0.000   0.000   0.000
  0.000   0.000   0.000   0.000   0.000   0.000   0.000   0.000   0.000   0.000   0.000   0.000   0.000   0.000   0.000   0.000
  0.000   0.000   0.000   0.000   0.000   0.000   0.000   0.000   0.000   0.000   0.000   0.000   0.000   0.000   0.000   0.000
  0.000   0.000   0.000   0.000   0.000   0.000   0.000   0.000   0.000   0.000   0.000   0.000   0.000   0.000   0.000   0.000
  0.000   0.000   0.000   0.000   0.000   0.000   0.000   0.000   0.000   0.000   1.000   0.000   0.000   0.000   0.000   0.000
  0.000   0.000   0.000   0.000   0.000   0.000   0.000   0.000   0.000   0.000   0.000   0.000   0.000   0.000   0.000   0.000
  0.000   0.000   0.000   0.000   0.000   0.000   0.000   0.000   0.000   0.000   0.000   0.000   0.000   0.000   0.000   0.000
  0.000   0.000   0.000   0.000   0.000   0.000   0.000   0.000   0.000   0.000   0.000   0.000   0.000   0.000   0.000   0.000
  0.000   0.000   0.000   0.000   0.000   0.000   0.000   0.000   0.000   0.000   0.000   0.000   0.000   0.000   0.000   0.000
  0.000   0.000   0.000   0.000   0.000   0.000   0.000   0.000   0.000   0.000   0.000   0.000   0.000   0.000   0.000   0.000
  0.000   0.000   0.000   0.000   0.000   0.000   0.000   0.000   0.000   0.000   0.000   0.000   0.000   0.000   0.000   0.000
  0.000   0.000   0.000   0.000   0.000   0.000   0.000   0.000   0.000   0.000   0.000   0.000   0.000   0.000   0.000   0.000


------------------------ aborting loop because EDIFF is reached ----------------------------------------





 total charge

# of ion       s       p       d       tot
------------------------------------------
    1        0.421   0.201   9.178   9.800
    2        0.415   0.204   9.177   9.797
    3        0.415   0.204   9.177   9.797
    4        0.415   0.204   9.177   9.797
    5        0.419   0.202   9.177   9.798
    6        0.415   0.204   9.177   9.797
    7        0.415   0.204   9.177   9.797
    8        0.415   0.204   9.177   9.797
    9        0.416   0.203   9.177   9.797
   10        0.410   0.269   9.163   9.842
   11        0.404   0.269   9.168   9.841
   12        0.410   0.269   9.163   9.842
   13        0.404   0.269   9.168   9.841
   14        0.404   0.269   9.168   9.841
   15        0.403   0.270   9.165   9.838
   16        0.410   0.269   9.163   9.842
   17        0.403   0.270   9.165   9.838
   18        0.403   0.270   9.165   9.838
   19        0.404   0.265   9.167   9.836
   20        0.434   0.291   9.140   9.864
   21        0.434   0.291   9.140   9.864
   22        0.397   0.274   9.163   9.835
   23        0.434   0.291   9.140   9.864
   24        0.397   0.274   9.163   9.835
   25        0.404   0.265   9.167   9.836
   26        0.404   0.265   9.167   9.836
   27        0.397   0.274   9.163   9.835
   28        0.411   0.202   9.174   9.787
   29        0.441   0.210   9.156   9.807
   30        0.441   0.210   9.156   9.807
   31        0.441   0.210   9.156   9.807
   32        0.441   0.210   9.156   9.807
   33        0.441   0.210   9.156   9.807
   34        0.441   0.210   9.156   9.807
   35        0.408   0.204   9.175   9.787
   36        0.465   0.521   2.218   3.203
   37        0.520   0.006   0.000   0.526
--------------------------------------------------
tot         15.554   8.938 322.992 347.484
 
    CHARGE:  cpu time    0.3185: real time    0.3185
    FORLOC:  cpu time    0.0101: real time    0.0101
    FORNL :  cpu time    1.4822: real time    1.4830
    STRESS:  cpu time    4.4320: real time    4.4334
    FORCOR:  cpu time    0.0408: real time    0.0409
    FORHAR:  cpu time    0.0173: real time    0.0174
    OFIELD:  cpu time    0.0002: real time    0.0002

  FORCE on cell =-STRESS in cart. coord.  units (eV):
  Direction    XX          YY          ZZ          XY          YZ          ZX
  --------------------------------------------------------------------------------------
  Alpha Z   734.81429   734.81429   734.81429
  Ewald  118364.57424118364.57409************    -0.00002    -0.00001    -0.00002
  Hartree128340.45936128340.45929************    -0.00001    -0.00001    -0.00001
  E(xc)   -2046.33730 -2046.33729 -2052.87153    -0.00001     0.00000     0.00000
  Local  ************************257775.14470     0.00027    -0.00002    -0.00004
  n-local  -326.74487  -309.01638  -320.98626     9.91880    -0.53854     0.53437
  augment  3224.27780  3224.27798  3237.34568    -0.00015    -0.00000    -0.00001
  Kinetic  4793.14981  4795.65298  4827.65253     2.49316     0.77732    -0.27196
  Fock        0.00000     0.00000     0.00000     0.00000     0.00000     0.00000
  -------------------------------------------------------------------------------------
  Total      -8.34492    -8.34492     0.19647    -0.00000     0.00000     0.00000
  in kB      -9.00668    -9.00668     0.21205    -0.00000     0.00000     0.00000
  external pressure =       -5.93 kB  Pullay stress =        0.00 kB


 VOLUME and BASIS-vectors are now :
 -----------------------------------------------------------------------------
  energy-cutoff  :      500.00
  volume of cell :     1484.46
      direct lattice vectors                 reciprocal lattice vectors
     8.791366577  0.000000000  0.000000000     0.113747958 -0.065672414  0.000000000
     4.395683289  7.613546790  0.000000000     0.000000000  0.131344829  0.000000000
     0.000000000  0.000000000 22.178121567     0.000000000  0.000000000  0.045089481

  length of vectors
     8.791366577  8.791366577 22.178121567     0.131344829  0.131344829  0.045089481


 FORCES acting on ions
    electron-ion (+dipol)            ewald-force                    non-local-force                 convergence-correction
 -----------------------------------------------------------------------------------------------
   0.462E-04 -.281E-04 0.247E+04   -.953E-04 0.593E-04 -.247E+04   -.969E-18 0.235E-17 -.172E+01   -.832E-04 -.155E-03 0.126E+00
   -.383E+00 -.366E+00 0.247E+04   0.285E+00 0.322E+00 -.247E+04   0.350E-01 0.951E-01 -.166E+01   0.586E-01 -.496E-01 0.898E-01
   0.383E+00 -.366E+00 0.247E+04   -.285E+00 0.322E+00 -.247E+04   -.350E-01 0.951E-01 -.166E+01   -.592E-01 -.477E-01 0.905E-01
   -.509E+00 -.148E+00 0.247E+04   0.421E+00 0.859E-01 -.247E+04   0.999E-01 -.173E-01 -.166E+01   -.134E-01 0.758E-01 0.898E-01
   -.800E-05 -.200E-04 0.247E+04   0.981E-04 -.200E-05 -.247E+04   0.441E-17 0.186E-17 -.146E+01   0.618E-02 0.378E-02 0.242E+00
   0.509E+00 -.148E+00 0.247E+04   -.421E+00 0.858E-01 -.247E+04   -.999E-01 -.173E-01 -.166E+01   0.121E-01 0.767E-01 0.905E-01
   -.126E+00 0.515E+00 0.247E+04   0.136E+00 -.408E+00 -.247E+04   0.649E-01 -.779E-01 -.166E+01   -.705E-01 -.269E-01 0.905E-01
   0.126E+00 0.515E+00 0.247E+04   -.136E+00 -.408E+00 -.247E+04   -.649E-01 -.779E-01 -.166E+01   0.721E-01 -.278E-01 0.906E-01
   0.365E-04 -.131E-04 0.247E+04   0.791E-04 -.642E-04 -.247E+04   -.113E-17 -.186E-18 -.164E+01   -.663E-02 -.341E-02 0.487E-01
   -.225E+01 -.130E+01 0.789E+03   0.252E+01 0.145E+01 -.789E+03   -.270E+00 -.156E+00 -.612E+00   -.127E-01 -.731E-02 0.405E+00
   -.284E-04 -.311E+01 0.783E+03   0.405E-04 0.275E+01 -.783E+03   0.124E-11 0.189E+00 -.359E+00   0.611E-02 0.118E+00 0.368E+00
   0.225E+01 -.130E+01 0.789E+03   -.252E+01 0.145E+01 -.789E+03   0.270E+00 -.156E+00 -.612E+00   0.113E-01 -.666E-02 0.404E+00
   -.270E+01 0.156E+01 0.783E+03   0.238E+01 -.138E+01 -.783E+03   0.164E+00 -.945E-01 -.359E+00   0.105E+00 -.537E-01 0.368E+00
   0.270E+01 0.156E+01 0.783E+03   -.238E+01 -.138E+01 -.783E+03   -.164E+00 -.945E-01 -.359E+00   -.950E-01 -.546E-01 0.367E+00
   0.151E-04 0.162E+00 0.790E+03   -.107E-03 -.152E+00 -.789E+03   0.102E-12 0.156E-01 -.649E+00   -.131E-02 -.296E-01 0.353E+00
   -.820E-05 0.260E+01 0.789E+03   0.206E-04 -.291E+01 -.789E+03   0.204E-11 0.311E+00 -.612E+00   -.142E-03 0.131E-01 0.404E+00
   0.140E+00 -.810E-01 0.790E+03   -.132E+00 0.759E-01 -.789E+03   0.135E-01 -.779E-02 -.649E+00   -.263E-01 0.137E-01 0.353E+00
   -.140E+00 -.811E-01 0.790E+03   0.132E+00 0.760E-01 -.789E+03   -.135E-01 -.779E-02 -.649E+00   0.264E-01 0.152E-01 0.354E+00
   0.385E-04 -.655E+01 -.896E+03   -.124E-03 0.648E+01 0.895E+03   0.524E-12 0.798E-01 0.849E+00   0.566E-02 -.260E-01 0.300E+00
   -.379E+02 -.219E+02 -.943E+03   0.387E+02 0.223E+02 0.942E+03   -.929E+00 -.536E+00 -.469E+00   0.805E-01 0.465E-01 0.410E+00
   0.379E+02 -.219E+02 -.943E+03   -.387E+02 0.223E+02 0.942E+03   0.929E+00 -.536E+00 -.469E+00   -.823E-01 0.460E-01 0.409E+00
   -.183E+02 0.105E+02 -.902E+03   0.181E+02 -.104E+02 0.901E+03   0.142E+00 -.822E-01 0.494E+00   0.499E-01 -.232E-01 0.277E+00
   -.501E-04 0.438E+02 -.943E+03   0.344E-04 -.447E+02 0.942E+03   0.704E-11 0.107E+01 -.469E+00   -.100E-02 -.936E-01 0.409E+00
   0.183E+02 0.105E+02 -.902E+03   -.181E+02 -.104E+02 0.901E+03   -.142E+00 -.822E-01 0.494E+00   -.392E-01 -.225E-01 0.277E+00
   0.567E+01 0.327E+01 -.896E+03   -.562E+01 -.324E+01 0.895E+03   -.691E-01 -.399E-01 0.849E+00   0.293E-01 0.167E-01 0.300E+00
   -.567E+01 0.327E+01 -.896E+03   0.562E+01 -.324E+01 0.895E+03   0.691E-01 -.399E-01 0.849E+00   -.200E-01 0.178E-01 0.300E+00
   0.192E-04 -.211E+02 -.902E+03   0.110E-03 0.209E+02 0.901E+03   0.108E-11 0.164E+00 0.494E+00   0.424E-02 0.548E-01 0.277E+00
   0.537E-04 -.363E-04 -.249E+04   -.113E-03 0.763E-04 0.249E+04   0.115E-17 0.233E-17 0.169E+01   0.258E-03 0.156E-04 -.252E-01
   -.313E+02 -.607E+02 -.250E+04   0.320E+02 0.615E+02 0.250E+04   -.782E+00 -.105E+01 0.156E+01   0.527E-01 0.145E+00 0.469E-02
   0.313E+02 -.607E+02 -.250E+04   -.320E+02 0.615E+02 0.250E+04   0.782E+00 -.105E+01 0.156E+01   -.537E-01 0.146E+00 0.483E-02
   -.682E+02 0.324E+01 -.250E+04   0.693E+02 -.306E+01 0.250E+04   -.130E+01 -.152E+00 0.156E+01   0.152E+00 -.269E-01 0.471E-02
   0.682E+02 0.324E+01 -.250E+04   -.693E+02 -.306E+01 0.250E+04   0.130E+01 -.152E+00 0.156E+01   -.152E+00 -.259E-01 0.552E-02
   -.369E+02 0.574E+02 -.250E+04   0.373E+02 -.585E+02 0.250E+04   -.518E+00 0.120E+01 0.156E+01   0.100E+00 -.119E+00 0.479E-02
   0.369E+02 0.574E+02 -.250E+04   -.373E+02 -.585E+02 0.250E+04   0.518E+00 0.120E+01 0.156E+01   -.990E-01 -.119E+00 0.546E-02
   0.275E-04 -.143E-04 -.250E+04   0.103E-03 -.647E-04 0.250E+04   -.270E-22 0.543E-17 0.182E+01   -.633E-02 -.322E-02 0.302E-01
   -.238E-04 0.111E-06 -.872E+03   0.380E-04 0.429E-05 0.873E+03   0.179E-17 0.120E-17 -.130E+01   0.208E-03 0.130E-03 0.543E-01
   0.475E-05 -.390E-05 -.257E+03   0.456E-05 0.641E-07 0.259E+03   0.306E-19 -.494E-19 -.177E+01   0.471E-04 0.291E-04 -.269E-01
 -----------------------------------------------------------------------------------------------
   0.286E-03 -.716E-03 -.394E-01   0.384E-13 0.237E-13 0.284E-11   -.553E-15 0.657E-17 -.722E+01   0.344E-01 0.231E-01 0.736E+01
 
 
 POSITION                                       TOTAL-FORCE (eV/Angst)
 -----------------------------------------------------------------------------------
      0.00000      0.00000      5.28219         0.000000     -0.000000     -0.025521
      2.93046      0.00000      5.28219        -0.003725      0.001796      0.036132
      5.86091      0.00000      5.28219         0.003725      0.001796      0.036132
      1.46523      2.53785      5.28219        -0.000307     -0.004124      0.036132
      4.39568      2.53785      5.28219        -0.000000     -0.000000      0.010728
      7.32614      2.53785      5.28219         0.000307     -0.004124      0.036132
      2.93046      5.07570      5.28219         0.003418      0.002328      0.036132
      5.86091      5.07570      5.28219        -0.003418      0.002328      0.036132
      8.79137      5.07570      5.28219        -0.000000     -0.000000      0.012704
      1.46523      0.84595      7.67490        -0.012713     -0.007340     -0.062954
      4.39568      0.84595      7.67490        -0.000000     -0.056682     -0.062555
      7.32614      0.84595      7.67490         0.012713     -0.007340     -0.062954
      2.93046      3.38380      7.67490        -0.049088      0.028341     -0.062555
      5.86091      3.38380      7.67490         0.049088      0.028341     -0.062555
      8.79137      3.38380      7.67490        -0.000000     -0.004200      0.009995
      4.39568      5.92165      7.67490         0.000000      0.014679     -0.062954
      7.32614      5.92165      7.67490        -0.003637      0.002100      0.009995
     10.25659      5.92165      7.67490         0.003637      0.002100      0.009995
      8.79137      1.69074     10.05145        -0.000000     -0.013827      0.011239
      2.93556      1.69484     10.04095        -0.080421     -0.046431     -0.081304
      5.85581      1.69484     10.04095         0.080421     -0.046431     -0.081304
     10.25435      4.23104     10.05745         0.027605     -0.015938      0.027621
      4.39568      4.22386     10.04095         0.000000      0.092862     -0.081304
      7.32838      4.23104     10.05745        -0.027605     -0.015938      0.027621
     11.72283      6.76818     10.05145         0.011975      0.006914      0.011239
      5.85990      6.76818     10.05145        -0.011975      0.006914      0.011239
      8.79137      6.76501     10.05745         0.000000      0.031875      0.027621
      0.00000      0.00000     12.43413         0.000000     -0.000000      0.025288
      2.95009      0.02948     12.45917        -0.024428     -0.056256     -0.051851
      5.84128      0.02948     12.45917         0.024428     -0.056256     -0.051851
      1.50057      2.54011     12.45917        -0.060933      0.006972     -0.051851
      7.29079      2.54011     12.45917         0.060933      0.006972     -0.051851
      2.94617      5.04396     12.45917        -0.036505      0.049283     -0.051851
      5.84520      5.04396     12.45917         0.036505      0.049283     -0.051851
      8.79137      5.07570     12.45428         0.000000     -0.000000      0.022214
      4.39568      2.53785     12.30230         0.000000     -0.000000      0.546530
      4.39568      2.53785     14.02891         0.000000     -0.000000     -0.023761
 -----------------------------------------------------------------------------------
    total drift:                                0.034698      0.022344      0.096255


--------------------------------------------------------------------------------------------------------



  FREE ENERGIE OF THE ION-ELECTRON SYSTEM (eV)
  ---------------------------------------------------
  free  energy   TOTEN  =       -98.75095716 eV

  energy  without entropy=      -98.75095716  energy(sigma->0) =      -98.75095716
 


--------------------------------------------------------------------------------------------------------


    POTLOK:  cpu time    0.0443: real time    0.0443


--------------------------------------------------------------------------------------------------------


 stress matrix after NEB project (eV)
     -8.34492     -0.00000      0.00000
     -0.00000     -8.34492      0.00000
     -0.00000      0.00000      0.19647
  FORCES: max atom, RMS     0.023761    0.003906
  FORCE total and by dimension    0.023761    0.023761
  Stress total and by dimension   11.803141    8.344924
     LOOP+:  cpu time   63.9296: real time   63.9587
 -----------------------------------------------------------------------------
|                                                                             |
|           W    W    AA    RRRRR   N    N  II  N    N   GGGG   !!!           |
|           W    W   A  A   R    R  NN   N  II  NN   N  G    G  !!!           |
|           W    W  A    A  R    R  N N  N  II  N N  N  G       !!!           |
|           W WW W  AAAAAA  RRRRR   N  N N  II  N  N N  G  GGG   !            |
|           WW  WW  A    A  R   R   N   NN  II  N   NN  G    G                |
|           W    W  A    A  R    R  N    N  II  N    N   GGGG   !!!           |
|                                                                             |
|     Tetrahedron method does not include variations of the Fermi             |
|     occupations, so forces and stress will be inaccurate. We suggest        |
|     using a different smearing scheme ISMEAR = 1 or 2 for metals in         |
|     relaxations.                                                            |
|                                                                             |
 -----------------------------------------------------------------------------

    4ORBIT:  cpu time    0.0000: real time    0.0000



 total charge

# of ion       s       p       d       tot
------------------------------------------
    1        0.421   0.201   9.178   9.800
    2        0.415   0.204   9.177   9.797
    3        0.415   0.204   9.177   9.797
    4        0.415   0.204   9.177   9.797
    5        0.419   0.202   9.177   9.798
    6        0.415   0.204   9.177   9.797
    7        0.415   0.204   9.177   9.797
    8        0.415   0.204   9.177   9.797
    9        0.416   0.203   9.177   9.797
   10        0.410   0.269   9.163   9.842
   11        0.404   0.269   9.168   9.841
   12        0.410   0.269   9.163   9.842
   13        0.404   0.269   9.168   9.841
   14        0.404   0.269   9.168   9.841
   15        0.403   0.270   9.165   9.838
   16        0.410   0.269   9.163   9.842
   17        0.403   0.270   9.165   9.838
   18        0.403   0.270   9.165   9.838
   19        0.404   0.265   9.167   9.836
   20        0.434   0.291   9.140   9.864
   21        0.434   0.291   9.140   9.864
   22        0.397   0.274   9.163   9.835
   23        0.434   0.291   9.140   9.864
   24        0.397   0.274   9.163   9.835
   25        0.404   0.265   9.167   9.836
   26        0.404   0.265   9.167   9.836
   27        0.397   0.274   9.163   9.835
   28        0.411   0.202   9.174   9.787
   29        0.441   0.210   9.156   9.807
   30        0.441   0.210   9.156   9.807
   31        0.441   0.210   9.156   9.807
   32        0.441   0.210   9.156   9.807
   33        0.441   0.210   9.156   9.807
   34        0.441   0.210   9.156   9.807
   35        0.408   0.204   9.175   9.787
   36        0.465   0.521   2.218   3.203
   37        0.520   0.006   0.000   0.526
--------------------------------------------------
tot         15.554   8.938 322.992 347.484
 
 BZINTS: Fermi energy:    0.729262;  390.000000 electrons
         Band energy:-0.131722E+04;  BLOECHL correction:   -0.038707

 total amount of memory used by VASP MPI-rank0   123409. kBytes
=======================================================================

   base      :      30000. kBytes
   nonlr-proj:      15306. kBytes
   fftplans  :       4330. kBytes
   grid      :      17879. kBytes
   one-center:        575. kBytes
   wavefun   :      55319. kBytes
 
  
  
 General timing and accounting informations for this job:
 ========================================================
  
                  Total CPU time used (sec):       71.236
                            User time (sec):       68.456
                          System time (sec):        2.780
                         Elapsed time (sec):       71.628
  
                   Maximum memory used (kb):      383360.
                   Average memory used (kb):          N/A
  
                          Minor page faults:        71629
                          Major page faults:            0
                 Voluntary context switches:         5500
