PROCAR new format
# of k-points:   10         # of bands:  252         # of ions:   37

 k-point     1 :    0.00000000 0.00000000 0.00000000     weight = 0.01562500

band     1 # energy   -6.41786020 # occ.  2.00000000
 
ion      s      p      d    tot
    1  0.006  0.001  0.000  0.006
    2  0.006  0.001  0.000  0.006
    3  0.006  0.001  0.000  0.006
    4  0.006  0.001  0.000  0.006
    5  0.006  0.001  0.000  0.006
    6  0.006  0.001  0.000  0.006
    7  0.006  0.001  0.000  0.006
    8  0.006  0.001  0.000  0.006
    9  0.006  0.001  0.000  0.006
   10  0.023  0.000  0.000  0.024
   11  0.023  0.000  0.000  0.024
   12  0.023  0.000  0.000  0.024
   13  0.023  0.000  0.000  0.024
   14  0.023  0.000  0.000  0.024
   15  0.022  0.000  0.000  0.023
   16  0.023  0.000  0.000  0.024
   17  0.022  0.000  0.000  0.023
   18  0.022  0.000  0.000  0.023
   19  0.023  0.000  0.000  0.024
   20  0.025  0.000  0.000  0.026
   21  0.025  0.000  0.000  0.026
   22  0.022  0.000  0.000  0.023
   23  0.025  0.000  0.000  0.026
   24  0.022  0.000  0.000  0.023
   25  0.023  0.000  0.000  0.024
   26  0.023  0.000  0.000  0.024
   27  0.022  0.000  0.000  0.023
   28  0.006  0.001  0.000  0.006
   29  0.006  0.001  0.000  0.006
   30  0.006  0.001  0.000  0.006
   31  0.006  0.001  0.000  0.006
   32  0.006  0.001  0.000  0.006
   33  0.006  0.001  0.000  0.006
   34  0.006  0.001  0.000  0.006
   35  0.005  0.001  0.000  0.006
   36  0.009  0.001  0.000  0.010
   37  0.000  0.000  0.000  0.000
tot    0.526  0.013  0.006  0.545
 
band     2 # energy   -5.55267922 # occ.  2.00000000
 
ion      s      p      d    tot
    1  0.008  0.000  0.000  0.008
    2  0.008  0.000  0.000  0.009
    3  0.008  0.000  0.000  0.009
    4  0.008  0.000  0.000  0.009
    5  0.008  0.000  0.000  0.009
    6  0.008  0.000  0.000  0.009
    7  0.008  0.000  0.000  0.009
    8  0.008  0.000  0.000  0.009
    9  0.008  0.000  0.000  0.009
   10  0.011  0.001  0.016  0.028
   11  0.012  0.001  0.014  0.027
   12  0.011  0.001  0.016  0.028
   13  0.012  0.001  0.014  0.027
   14  0.012  0.001  0.014  0.027
   15  0.011  0.001  0.013  0.025
   16  0.011  0.001  0.016  0.028
   17  0.011  0.001  0.013  0.025
   18  0.011  0.001  0.013  0.025
   19  0.011  0.001  0.015  0.027
   20  0.013  0.001  0.021  0.035
   21  0.013  0.001  0.021  0.035
   22  0.010  0.001  0.014  0.025
   23  0.013  0.001  0.021  0.035
   24  0.010  0.001  0.014  0.025
   25  0.011  0.001  0.015  0.027
   26  0.011  0.001  0.015  0.027
   27  0.010  0.001  0.014  0.025
   28  0.007  0.000  0.000  0.008
   29  0.007  0.000  0.000  0.007
   30  0.007  0.000  0.000  0.007
   31  0.007  0.000  0.000  0.007
   32  0.007  0.000  0.000  0.007
   33  0.007  0.000  0.000  0.007
   34  0.007  0.000  0.000  0.007
   35  0.006  0.000  0.000  0.007
   36  0.010  0.001  0.000  0.011
   37  0.001  0.000  0.000  0.001
tot    0.344  0.025  0.287  0.655
 
band     3 # energy   -5.26575859 # occ.  2.00000000
 
ion      s      p      d    tot
    1  0.010  0.000  0.021  0.030
    2  0.012  0.000  0.017  0.029
    3  0.012  0.000  0.017  0.029
    4  0.012  0.000  0.017  0.029
    5  0.012  0.000  0.016  0.028
    6  0.012  0.000  0.017  0.029
    7  0.012  0.000  0.017  0.029
    8  0.012  0.000  0.017  0.029
    9  0.013  0.000  0.016  0.029
   10  0.001  0.000  0.017  0.018
   11  0.000  0.000  0.020  0.020
   12  0.001  0.000  0.017  0.018
   13  0.000  0.000  0.020  0.020
   14  0.000  0.000  0.020  0.020
   15  0.000  0.000  0.016  0.016
   16  0.001  0.000  0.017  0.018
   17  0.000  0.000  0.016  0.016
   18  0.000  0.000  0.016  0.016
   19  0.000  0.000  0.012  0.013
   20  0.000  0.000  0.023  0.024
   21  0.000  0.000  0.023  0.024
   22  0.000  0.000  0.013  0.014
   23  0.000  0.000  0.023  0.024
   24  0.000  0.000  0.013  0.014
   25  0.000  0.000  0.012  0.013
   26  0.000  0.000  0.012  0.013
   27  0.000  0.000  0.013  0.014
   28  0.008  0.000  0.013  0.021
   29  0.009  0.000  0.013  0.022
   30  0.009  0.000  0.013  0.022
   31  0.009  0.000  0.013  0.022
   32  0.009  0.000  0.013  0.022
   33  0.009  0.000  0.013  0.022
   34  0.009  0.000  0.013  0.022
   35  0.008  0.000  0.014  0.022
   36  0.015  0.000  0.001  0.016
   37  0.001  0.000  0.000  0.001
tot    0.196  0.006  0.567  0.769
 
band     4 # energy   -5.17330402 # occ.  2.00000000
 
ion      s      p      d    tot
    1  0.009  0.001  0.000  0.010
    2  0.001  0.000  0.006  0.006
    3  0.001  0.000  0.006  0.006
    4  0.001  0.000  0.006  0.006
    5  0.000  0.000  0.003  0.003
    6  0.001  0.000  0.006  0.006
    7  0.001  0.000  0.006  0.006
    8  0.001  0.000  0.006  0.006
    9  0.000  0.000  0.003  0.003
   10  0.005  0.000  0.033  0.037
   11  0.000  0.000  0.019  0.019
   12  0.005  0.000  0.033  0.037
   13  0.000  0.000  0.019  0.019
   14  0.000  0.000  0.019  0.019
   15  0.006  0.001  0.003  0.010
   16  0.005  0.000  0.033  0.037
   17  0.006  0.001  0.003  0.010
   18  0.006  0.001  0.003  0.010
   19  0.001  0.001  0.033  0.034
   20  0.005  0.000  0.103  0.108
   21  0.005  0.000  0.103  0.108
   22  0.017  0.001  0.010  0.027
   23  0.005  0.000  0.103  0.108
   24  0.017  0.001  0.010  0.027
   25  0.001  0.001  0.033  0.034
   26  0.001  0.001  0.033  0.034
   27  0.017  0.001  0.010  0.027
   28  0.000  0.000  0.002  0.002
   29  0.000  0.000  0.005  0.005
   30  0.000  0.000  0.005  0.005
   31  0.000  0.000  0.005  0.005
   32  0.000  0.000  0.005  0.005
   33  0.000  0.000  0.005  0.005
   34  0.000  0.000  0.005  0.005
   35  0.004  0.001  0.003  0.009
   36  0.007  0.002  0.004  0.013
   37  0.001  0.000  0.000  0.001
tot    0.127  0.015  0.673  0.815
 
band     5 # energy   -5.14791738 # occ.  2.00000000
 
ion      s      p      d    tot
    1  0.000  0.000  0.008  0.008
    2  0.001  0.000  0.003  0.004
    3  0.000  0.000  0.002  0.002
    4  0.000  0.000  0.003  0.003
    5  0.000  0.000  0.003  0.003
    6  0.001  0.000  0.002  0.003
    7  0.000  0.000  0.003  0.003
    8  0.001  0.000  0.002  0.003
    9  0.000  0.000  0.003  0.003
   10  0.009  0.001  0.020  0.030
   11  0.000  0.000  0.025  0.026
   12  0.001  0.001  0.020  0.021
   13  0.000  0.000  0.026  0.027
   14  0.000  0.000  0.024  0.025
   15  0.003  0.000  0.016  0.020
   16  0.004  0.001  0.020  0.025
   17  0.001  0.000  0.022  0.022
   18  0.007  0.001  0.009  0.017
   19  0.012  0.001  0.038  0.051
   20  0.017  0.001  0.017  0.034
   21  0.002  0.000  0.145  0.147
   22  0.000  0.001  0.028  0.029
   23  0.008  0.000  0.089  0.098
   24  0.001  0.000  0.037  0.038
   25  0.025  0.001  0.033  0.058
   26  0.002  0.001  0.041  0.045
   27  0.000  0.001  0.032  0.033
   28  0.000  0.000  0.006  0.007
   29  0.000  0.000  0.002  0.002
   30  0.001  0.001  0.007  0.009
   31  0.001  0.000  0.003  0.004
   32  0.000  0.000  0.006  0.007
   33  0.001  0.001  0.006  0.008
   34  0.000  0.000  0.004  0.004
   35  0.000  0.000  0.000  0.000
   36  0.000  0.001  0.002  0.002
   37  0.000  0.000  0.000  0.000
tot    0.099  0.014  0.705  0.818
 
band     6 # energy   -5.14791590 # occ.  2.00000000
 
ion      s      p      d    tot
    1  0.000  0.000  0.008  0.008
    2  0.000  0.000  0.002  0.002
    3  0.001  0.000  0.003  0.004
    4  0.001  0.000  0.002  0.003
    5  0.000  0.000  0.003  0.003
    6  0.000  0.000  0.003  0.003
    7  0.001  0.000  0.002  0.004
    8  0.000  0.000  0.003  0.003
    9  0.000  0.000  0.003  0.003
   10  0.000  0.001  0.020  0.021
   11  0.000  0.000  0.025  0.026
   12  0.009  0.001  0.020  0.030
   13  0.000  0.000  0.025  0.025
   14  0.000  0.001  0.026  0.027
   15  0.004  0.000  0.015  0.019
   16  0.005  0.001  0.020  0.026
   17  0.007  0.001  0.009  0.017
   18  0.000  0.000  0.022  0.023
   19  0.014  0.001  0.037  0.052
   20  0.001  0.000  0.151  0.152
   21  0.016  0.001  0.022  0.039
   22  0.001  0.000  0.036  0.037
   23  0.010  0.000  0.078  0.088
   24  0.000  0.001  0.027  0.029
   25  0.001  0.001  0.042  0.044
   26  0.024  0.001  0.033  0.058
   27  0.000  0.001  0.032  0.034
   28  0.000  0.000  0.006  0.007
   29  0.001  0.001  0.008  0.009
   30  0.000  0.000  0.002  0.002
   31  0.000  0.000  0.007  0.007
   32  0.001  0.000  0.003  0.004
   33  0.000  0.000  0.003  0.003
   34  0.001  0.001  0.006  0.007
   35  0.000  0.000  0.000  0.000
   36  0.000  0.001  0.002  0.002
   37  0.000  0.000  0.000  0.000
tot    0.099  0.014  0.705  0.818
 
band     7 # energy   -5.13468838 # occ.  2.00000000
 
ion      s      p      d    tot
    1  0.001  0.000  0.000  0.002
    2  0.000  0.000  0.005  0.005
    3  0.000  0.000  0.005  0.005
    4  0.000  0.000  0.005  0.005
    5  0.001  0.001  0.008  0.010
    6  0.000  0.000  0.005  0.005
    7  0.000  0.000  0.005  0.005
    8  0.000  0.000  0.005  0.005
    9  0.001  0.000  0.001  0.002
   10  0.008  0.001  0.005  0.013
   11  0.013  0.001  0.056  0.070
   12  0.008  0.001  0.005  0.013
   13  0.013  0.001  0.056  0.070
   14  0.013  0.001  0.056  0.070
   15  0.000  0.000  0.048  0.048
   16  0.008  0.001  0.005  0.013
   17  0.000  0.000  0.048  0.048
   18  0.000  0.000  0.048  0.049
   19  0.007  0.000  0.038  0.046
   20  0.007  0.001  0.027  0.034
   21  0.006  0.001  0.027  0.034
   22  0.000  0.000  0.030  0.030
   23  0.006  0.001  0.027  0.034
   24  0.000  0.000  0.030  0.030
   25  0.007  0.000  0.038  0.045
   26  0.007  0.000  0.038  0.046
   27  0.000  0.000  0.030  0.030
   28  0.002  0.000  0.002  0.005
   29  0.000  0.000  0.005  0.005
   30  0.000  0.000  0.005  0.005
   31  0.000  0.000  0.005  0.005
   32  0.000  0.000  0.005  0.005
   33  0.000  0.000  0.005  0.005
   34  0.000  0.000  0.005  0.005
   35  0.001  0.000  0.001  0.002
   36  0.000  0.000  0.000  0.000
   37  0.000  0.000  0.000  0.000
tot    0.110  0.016  0.681  0.808
 
band     8 # energy   -5.13335877 # occ.  2.00000000
 
ion      s      p      d    tot
    1  0.000  0.000  0.003  0.004
    2  0.002  0.001  0.006  0.008
    3  0.001  0.000  0.003  0.005
    4  0.002  0.001  0.006  0.008
    5  0.000  0.000  0.010  0.010
    6  0.001  0.000  0.004  0.005
    7  0.000  0.000  0.002  0.003
    8  0.000  0.000  0.003  0.003
    9  0.000  0.000  0.002  0.002
   10  0.000  0.000  0.079  0.080
   11  0.028  0.001  0.020  0.049
   12  0.004  0.000  0.043  0.047
   13  0.018  0.001  0.040  0.059
   14  0.001  0.001  0.073  0.075
   15  0.007  0.000  0.032  0.039
   16  0.006  0.001  0.021  0.027
   17  0.004  0.001  0.023  0.028
   18  0.000  0.002  0.009  0.010
   19  0.000  0.000  0.019  0.020
   20  0.001  0.001  0.025  0.027
   21  0.009  0.001  0.030  0.040
   22  0.010  0.001  0.025  0.036
   23  0.013  0.001  0.034  0.048
   24  0.001  0.000  0.050  0.051
   25  0.000  0.001  0.032  0.033
   26  0.000  0.000  0.024  0.025
   27  0.015  0.001  0.011  0.027
   28  0.000  0.000  0.000  0.000
   29  0.000  0.000  0.002  0.002
   30  0.001  0.000  0.003  0.004
   31  0.000  0.000  0.002  0.002
   32  0.001  0.000  0.004  0.005
   33  0.001  0.000  0.004  0.006
   34  0.001  0.000  0.004  0.006
   35  0.000  0.000  0.007  0.007
   36  0.000  0.000  0.001  0.002
   37  0.000  0.000  0.000  0.000
tot    0.127  0.017  0.658  0.802
 
band     9 # energy   -5.13335844 # occ.  2.00000000
 
ion      s      p      d    tot
    1  0.000  0.000  0.003  0.004
    2  0.000  0.000  0.003  0.003
    3  0.001  0.000  0.005  0.006
    4  0.000  0.000  0.002  0.003
    5  0.000  0.000  0.010  0.010
    6  0.001  0.001  0.004  0.006
    7  0.001  0.001  0.006  0.008
    8  0.002  0.001  0.005  0.008
    9  0.000  0.000  0.002  0.002
   10  0.006  0.001  0.016  0.023
   11  0.003  0.001  0.069  0.073
   12  0.003  0.000  0.053  0.056
   13  0.013  0.001  0.049  0.063
   14  0.030  0.001  0.015  0.046
   15  0.001  0.001  0.011  0.013
   16  0.001  0.000  0.075  0.076
   17  0.003  0.001  0.020  0.024
   18  0.007  0.000  0.034  0.042
   19  0.000  0.000  0.031  0.032
   20  0.014  0.001  0.034  0.049
   21  0.006  0.001  0.029  0.036
   22  0.007  0.001  0.032  0.040
   23  0.002  0.001  0.026  0.029
   24  0.016  0.001  0.007  0.025
   25  0.000  0.000  0.018  0.019
   26  0.000  0.000  0.026  0.027
   27  0.002  0.000  0.047  0.049
   28  0.000  0.000  0.000  0.000
   29  0.002  0.000  0.004  0.006
   30  0.001  0.000  0.004  0.004
   31  0.002  0.000  0.004  0.006
   32  0.001  0.000  0.002  0.003
   33  0.000  0.000  0.003  0.003
   34  0.000  0.000  0.002  0.002
   35  0.000  0.000  0.007  0.007
   36  0.000  0.000  0.001  0.002
   37  0.000  0.000  0.000  0.000
tot    0.127  0.017  0.658  0.802
 
band    10 # energy   -5.11647543 # occ.  2.00000000
 
ion      s      p      d    tot
    1  0.001  0.000  0.006  0.008
    2  0.000  0.000  0.008  0.008
    3  0.000  0.000  0.008  0.008
    4  0.000  0.000  0.008  0.008
    5  0.005  0.000  0.004  0.009
    6  0.000  0.000  0.008  0.008
    7  0.000  0.000  0.008  0.008
    8  0.000  0.000  0.008  0.008
    9  0.004  0.001  0.006  0.011
   10  0.001  0.000  0.061  0.062
   11  0.002  0.000  0.035  0.037
   12  0.001  0.000  0.061  0.062
   13  0.002  0.000  0.035  0.037
   14  0.002  0.000  0.035  0.037
   15  0.010  0.000  0.015  0.024
   16  0.001  0.000  0.061  0.062
   17  0.010  0.000  0.015  0.024
   18  0.010  0.000  0.015  0.024
   19  0.006  0.000  0.010  0.015
   20  0.002  0.000  0.046  0.049
   21  0.002  0.000  0.047  0.049
   22  0.001  0.000  0.030  0.031
   23  0.002  0.000  0.047  0.049
   24  0.001  0.000  0.030  0.031
   25  0.006  0.000  0.010  0.015
   26  0.006  0.000  0.010  0.015
   27  0.001  0.000  0.030  0.031
   28  0.007  0.001  0.000  0.008
   29  0.000  0.000  0.013  0.013
   30  0.000  0.000  0.013  0.013
   31  0.000  0.000  0.013  0.013
   32  0.000  0.000  0.013  0.013
   33  0.000  0.000  0.013  0.013
   34  0.000  0.000  0.013  0.013
   35  0.001  0.000  0.003  0.004
   36  0.007  0.000  0.001  0.008
   37  0.000  0.000  0.000  0.000
tot    0.089  0.010  0.735  0.833
 
band    11 # energy   -5.09598992 # occ.  2.00000000
 
ion      s      p      d    tot
    1  0.007  0.000  0.022  0.029
    2  0.006  0.000  0.016  0.021
    3  0.006  0.000  0.016  0.021
    4  0.006  0.000  0.016  0.021
    5  0.005  0.000  0.015  0.020
    6  0.006  0.000  0.016  0.021
    7  0.006  0.000  0.016  0.021
    8  0.006  0.000  0.016  0.021
    9  0.005  0.000  0.007  0.013
   10  0.002  0.000  0.021  0.024
   11  0.003  0.000  0.014  0.017
   12  0.002  0.000  0.021  0.024
   13  0.003  0.000  0.014  0.017
   14  0.003  0.000  0.014  0.017
   15  0.000  0.000  0.009  0.009
   16  0.002  0.000  0.021  0.024
   17  0.000  0.000  0.009  0.009
   18  0.000  0.000  0.009  0.010
   19  0.004  0.000  0.025  0.030
   20  0.000  0.001  0.006  0.007
   21  0.000  0.001  0.006  0.007
   22  0.000  0.000  0.023  0.023
   23  0.000  0.001  0.006  0.007
   24  0.000  0.000  0.023  0.023
   25  0.004  0.000  0.026  0.030
   26  0.004  0.000  0.025  0.030
   27  0.000  0.000  0.023  0.023
   28  0.009  0.000  0.032  0.042
   29  0.009  0.000  0.022  0.031
   30  0.009  0.000  0.022  0.031
   31  0.009  0.000  0.022  0.031
   32  0.009  0.000  0.022  0.031
   33  0.009  0.000  0.022  0.031
   34  0.009  0.000  0.022  0.031
   35  0.008  0.000  0.013  0.021
   36  0.012  0.000  0.002  0.014
   37  0.001  0.000  0.000  0.001
tot    0.165  0.008  0.614  0.787
 
band    12 # energy   -5.09339011 # occ.  2.00000000
 
ion      s      p      d    tot
    1  0.000  0.001  0.012  0.013
    2  0.002  0.000  0.006  0.008
    3  0.000  0.000  0.010  0.011
    4  0.001  0.000  0.006  0.008
    5  0.000  0.000  0.008  0.008
    6  0.003  0.001  0.006  0.011
    7  0.000  0.000  0.010  0.011
    8  0.004  0.001  0.006  0.010
    9  0.000  0.000  0.008  0.008
   10  0.000  0.001  0.062  0.062
   11  0.000  0.000  0.036  0.036
   12  0.015  0.000  0.032  0.047
   13  0.000  0.000  0.038  0.038
   14  0.000  0.001  0.017  0.018
   15  0.011  0.000  0.035  0.047
   16  0.014  0.000  0.035  0.049
   17  0.013  0.000  0.027  0.039
   18  0.000  0.000  0.109  0.109
   19  0.000  0.000  0.026  0.027
   20  0.000  0.000  0.030  0.030
   21  0.002  0.000  0.018  0.020
   22  0.004  0.000  0.019  0.023
   23  0.002  0.000  0.019  0.021
   24  0.000  0.000  0.025  0.025
   25  0.000  0.000  0.031  0.031
   26  0.000  0.000  0.026  0.026
   27  0.004  0.000  0.020  0.023
   28  0.000  0.000  0.015  0.015
   29  0.001  0.000  0.005  0.007
   30  0.003  0.001  0.005  0.009
   31  0.002  0.000  0.005  0.007
   32  0.000  0.000  0.006  0.006
   33  0.004  0.001  0.005  0.009
   34  0.000  0.000  0.006  0.006
   35  0.000  0.000  0.005  0.006
   36  0.000  0.000  0.001  0.001
   37  0.000  0.000  0.000  0.000
tot    0.088  0.011  0.728  0.826
 
band    13 # energy   -5.09338453 # occ.  2.00000000
 
ion      s      p      d    tot
    1  0.000  0.001  0.012  0.013
    2  0.002  0.001  0.009  0.012
    3  0.003  0.001  0.004  0.008
    4  0.002  0.001  0.009  0.012
    5  0.000  0.000  0.008  0.008
    6  0.000  0.000  0.009  0.009
    7  0.003  0.001  0.004  0.009
    8  0.000  0.000  0.009  0.009
    9  0.000  0.000  0.008  0.008
   10  0.019  0.000  0.024  0.044
   11  0.000  0.000  0.025  0.025
   12  0.004  0.000  0.054  0.058
   13  0.000  0.000  0.022  0.023
   14  0.000  0.000  0.043  0.043
   15  0.005  0.000  0.079  0.084
   16  0.006  0.000  0.051  0.057
   17  0.003  0.000  0.088  0.091
   18  0.016  0.000  0.005  0.021
   19  0.000  0.000  0.029  0.029
   20  0.003  0.000  0.015  0.018
   21  0.001  0.000  0.027  0.027
   22  0.001  0.000  0.023  0.025
   23  0.001  0.000  0.025  0.026
   24  0.005  0.000  0.018  0.023
   25  0.000  0.000  0.024  0.025
   26  0.000  0.000  0.029  0.030
   27  0.002  0.000  0.023  0.024
   28  0.000  0.000  0.015  0.015
   29  0.002  0.000  0.005  0.008
   30  0.000  0.000  0.005  0.006
   31  0.002  0.000  0.005  0.007
   32  0.003  0.000  0.005  0.008
   33  0.000  0.000  0.006  0.006
   34  0.003  0.000  0.005  0.009
   35  0.000  0.000  0.005  0.006
   36  0.000  0.000  0.001  0.001
   37  0.000  0.000  0.000  0.000
tot    0.088  0.011  0.728  0.826
 
band    14 # energy   -5.09111109 # occ.  2.00000000
 
ion      s      p      d    tot
    1  0.000  0.000  0.001  0.002
    2  0.001  0.000  0.010  0.011
    3  0.001  0.000  0.010  0.011
    4  0.001  0.000  0.010  0.011
    5  0.003  0.000  0.000  0.003
    6  0.001  0.000  0.010  0.011
    7  0.001  0.000  0.010  0.011
    8  0.001  0.000  0.010  0.011
    9  0.003  0.000  0.017  0.021
   10  0.002  0.000  0.026  0.028
   11  0.001  0.000  0.006  0.007
   12  0.002  0.000  0.026  0.028
   13  0.001  0.000  0.006  0.007
   14  0.001  0.000  0.006  0.007
   15  0.002  0.000  0.058  0.060
   16  0.002  0.000  0.026  0.028
   17  0.002  0.000  0.058  0.060
   18  0.002  0.000  0.058  0.060
   19  0.001  0.000  0.036  0.038
   20  0.004  0.000  0.021  0.024
   21  0.004  0.000  0.021  0.024
   22  0.000  0.000  0.048  0.049
   23  0.004  0.000  0.021  0.024
   24  0.000  0.000  0.048  0.049
   25  0.001  0.000  0.036  0.038
   26  0.001  0.000  0.036  0.038
   27  0.000  0.000  0.048  0.049
   28  0.002  0.000  0.001  0.003
   29  0.002  0.000  0.014  0.016
   30  0.002  0.000  0.014  0.016
   31  0.002  0.000  0.014  0.016
   32  0.002  0.000  0.014  0.016
   33  0.002  0.000  0.014  0.016
   34  0.002  0.000  0.014  0.016
   35  0.009  0.000  0.016  0.025
   36  0.000  0.001  0.002  0.003
   37  0.000  0.000  0.000  0.000
tot    0.067  0.008  0.762  0.837
 
band    15 # energy   -5.08210458 # occ.  2.00000000
 
ion      s      p      d    tot
    1  0.000  0.000  0.005  0.005
    2  0.002  0.000  0.007  0.009
    3  0.000  0.000  0.008  0.008
    4  0.002  0.000  0.006  0.009
    5  0.000  0.000  0.007  0.008
    6  0.002  0.000  0.005  0.007
    7  0.000  0.000  0.008  0.008
    8  0.002  0.000  0.005  0.007
    9  0.000  0.000  0.017  0.017
   10  0.001  0.000  0.031  0.032
   11  0.001  0.000  0.054  0.056
   12  0.000  0.000  0.020  0.020
   13  0.002  0.000  0.050  0.052
   14  0.005  0.000  0.007  0.013
   15  0.000  0.000  0.035  0.036
   16  0.000  0.000  0.019  0.019
   17  0.001  0.000  0.035  0.036
   18  0.002  0.000  0.036  0.038
   19  0.001  0.000  0.068  0.069
   20  0.000  0.000  0.053  0.053
   21  0.000  0.000  0.022  0.023
   22  0.003  0.000  0.058  0.061
   23  0.000  0.000  0.020  0.020
   24  0.010  0.000  0.025  0.036
   25  0.006  0.000  0.008  0.015
   26  0.002  0.000  0.063  0.065
   27  0.002  0.000  0.060  0.063
   28  0.000  0.000  0.004  0.004
   29  0.000  0.000  0.008  0.009
   30  0.002  0.000  0.003  0.005
   31  0.000  0.000  0.009  0.009
   32  0.000  0.000  0.008  0.009
   33  0.002  0.000  0.003  0.005
   34  0.001  0.000  0.008  0.009
   35  0.000  0.000  0.013  0.013
   36  0.000  0.000  0.001  0.001
   37  0.000  0.000  0.000  0.000
tot    0.050  0.007  0.792  0.848
 
band    16 # energy   -5.08208957 # occ.  2.00000000
 
ion      s      p      d    tot
    1  0.000  0.000  0.005  0.005
    2  0.001  0.000  0.007  0.007
    3  0.002  0.000  0.005  0.008
    4  0.000  0.000  0.007  0.008
    5  0.000  0.000  0.007  0.008
    6  0.001  0.000  0.008  0.009
    7  0.002  0.000  0.005  0.008
    8  0.001  0.000  0.008  0.009
    9  0.000  0.000  0.017  0.017
   10  0.000  0.000  0.015  0.015
   11  0.004  0.000  0.020  0.025
   12  0.001  0.000  0.027  0.027
   13  0.004  0.000  0.024  0.028
   14  0.000  0.000  0.068  0.068
   15  0.002  0.000  0.036  0.037
   16  0.001  0.000  0.028  0.029
   17  0.001  0.000  0.036  0.037
   18  0.000  0.000  0.035  0.035
   19  0.005  0.000  0.025  0.030
   20  0.000  0.000  0.010  0.011
   21  0.000  0.000  0.041  0.041
   22  0.007  0.000  0.038  0.045
   23  0.000  0.000  0.044  0.044
   24  0.000  0.000  0.070  0.070
   25  0.000  0.000  0.084  0.084
   26  0.004  0.000  0.030  0.034
   27  0.008  0.000  0.035  0.043
   28  0.000  0.000  0.004  0.004
   29  0.001  0.000  0.005  0.007
   30  0.000  0.000  0.010  0.010
   31  0.001  0.000  0.005  0.006
   32  0.001  0.000  0.005  0.006
   33  0.000  0.000  0.010  0.010
   34  0.001  0.000  0.005  0.007
   35  0.000  0.000  0.013  0.013
   36  0.000  0.000  0.001  0.001
   37  0.000  0.000  0.000  0.000
tot    0.050  0.007  0.792  0.848
 
band    17 # energy   -4.95059078 # occ.  2.00000000
 
ion      s      p      d    tot
    1  0.000  0.000  0.000  0.001
    2  0.000  0.000  0.005  0.005
    3  0.000  0.000  0.005  0.005
    4  0.000  0.000  0.005  0.005
    5  0.001  0.000  0.016  0.017
    6  0.000  0.000  0.005  0.005
    7  0.000  0.000  0.005  0.005
    8  0.000  0.000  0.005  0.005
    9  0.001  0.001  0.004  0.007
   10  0.000  0.000  0.014  0.014
   11  0.000  0.001  0.078  0.079
   12  0.000  0.000  0.014  0.014
   13  0.000  0.001  0.078  0.079
   14  0.000  0.001  0.078  0.079
   15  0.000  0.000  0.033  0.034
   16  0.000  0.000  0.014  0.014
   17  0.000  0.000  0.033  0.034
   18  0.000  0.000  0.033  0.034
   19  0.000  0.000  0.023  0.024
   20  0.001  0.000  0.071  0.072
   21  0.001  0.000  0.070  0.072
   22  0.002  0.000  0.018  0.020
   23  0.001  0.000  0.070  0.072
   24  0.002  0.000  0.018  0.020
   25  0.000  0.000  0.023  0.024
   26  0.000  0.000  0.023  0.024
   27  0.002  0.000  0.018  0.020
   28  0.005  0.001  0.001  0.007
   29  0.000  0.000  0.011  0.012
   30  0.000  0.000  0.011  0.012
   31  0.000  0.000  0.011  0.012
   32  0.000  0.000  0.011  0.012
   33  0.000  0.000  0.011  0.012
   34  0.000  0.000  0.011  0.012
   35  0.002  0.000  0.000  0.002
   36  0.001  0.000  0.003  0.004
   37  0.000  0.000  0.000  0.000
tot    0.023  0.014  0.831  0.868
 
band    18 # energy   -4.94078833 # occ.  2.00000000
 
ion      s      p      d    tot
    1  0.000  0.000  0.001  0.001
    2  0.001  0.001  0.006  0.007
    3  0.000  0.000  0.009  0.009
    4  0.001  0.001  0.006  0.007
    5  0.000  0.001  0.017  0.017
    6  0.001  0.000  0.006  0.007
    7  0.000  0.000  0.009  0.009
    8  0.001  0.000  0.006  0.007
    9  0.000  0.000  0.008  0.008
   10  0.000  0.001  0.020  0.021
   11  0.001  0.000  0.073  0.074
   12  0.000  0.000  0.037  0.037
   13  0.001  0.000  0.075  0.075
   14  0.002  0.000  0.047  0.049
   15  0.001  0.000  0.011  0.012
   16  0.000  0.000  0.036  0.036
   17  0.001  0.000  0.010  0.010
   18  0.002  0.001  0.032  0.035
   19  0.001  0.000  0.018  0.019
   20  0.003  0.000  0.048  0.050
   21  0.001  0.000  0.091  0.092
   22  0.000  0.000  0.022  0.022
   23  0.001  0.000  0.088  0.089
   24  0.000  0.001  0.021  0.023
   25  0.003  0.001  0.036  0.039
   26  0.001  0.000  0.017  0.018
   27  0.000  0.000  0.022  0.022
   28  0.000  0.000  0.010  0.011
   29  0.001  0.000  0.005  0.007
   30  0.000  0.000  0.008  0.009
   31  0.001  0.000  0.005  0.007
   32  0.002  0.001  0.007  0.010
   33  0.000  0.000  0.008  0.008
   34  0.002  0.001  0.007  0.010
   35  0.000  0.000  0.001  0.001
   36  0.000  0.002  0.003  0.005
   37  0.000  0.000  0.000  0.000
tot    0.025  0.016  0.823  0.865
 
band    19 # energy   -4.94077653 # occ.  2.00000000
 
ion      s      p      d    tot
    1  0.000  0.000  0.001  0.001
    2  0.000  0.000  0.008  0.008
    3  0.001  0.000  0.005  0.006
    4  0.000  0.000  0.008  0.008
    5  0.000  0.001  0.017  0.017
    6  0.001  0.001  0.007  0.009
    7  0.001  0.000  0.005  0.006
    8  0.001  0.000  0.008  0.009
    9  0.000  0.000  0.008  0.008
   10  0.000  0.000  0.042  0.042
   11  0.002  0.000  0.057  0.058
   12  0.000  0.001  0.025  0.026
   13  0.002  0.000  0.055  0.057
   14  0.000  0.000  0.083  0.083
   15  0.002  0.001  0.024  0.026
   16  0.000  0.001  0.026  0.027
   17  0.002  0.001  0.025  0.028
   18  0.000  0.000  0.003  0.003
   19  0.002  0.001  0.029  0.032
   20  0.000  0.000  0.104  0.104
   21  0.002  0.000  0.060  0.062
   22  0.000  0.001  0.022  0.023
   23  0.002  0.000  0.063  0.065
   24  0.000  0.000  0.022  0.022
   25  0.000  0.000  0.011  0.011
   26  0.002  0.001  0.030  0.033
   27  0.000  0.001  0.022  0.023
   28  0.000  0.000  0.010  0.011
   29  0.001  0.001  0.009  0.010
   30  0.002  0.001  0.005  0.008
   31  0.001  0.001  0.009  0.010
   32  0.000  0.000  0.006  0.007
   33  0.002  0.001  0.006  0.008
   34  0.000  0.000  0.007  0.007
   35  0.000  0.000  0.001  0.001
   36  0.000  0.002  0.003  0.005
   37  0.000  0.000  0.000  0.000
tot    0.025  0.016  0.823  0.865
 
band    20 # energy   -4.92560393 # occ.  2.00000000
 
ion      s      p      d    tot
    1  0.001  0.000  0.005  0.006
    2  0.000  0.001  0.012  0.012
    3  0.000  0.001  0.012  0.012
    4  0.000  0.001  0.012  0.012
    5  0.005  0.001  0.000  0.005
    6  0.000  0.001  0.012  0.012
    7  0.000  0.001  0.012  0.012
    8  0.000  0.001  0.012  0.012
    9  0.001  0.000  0.003  0.005
   10  0.001  0.001  0.054  0.056
   11  0.000  0.000  0.018  0.019
   12  0.001  0.001  0.054  0.056
   13  0.000  0.000  0.018  0.019
   14  0.000  0.000  0.018  0.019
   15  0.003  0.000  0.026  0.030
   16  0.001  0.001  0.054  0.056
   17  0.003  0.000  0.026  0.030
   18  0.003  0.000  0.026  0.030
   19  0.001  0.000  0.053  0.055
   20  0.000  0.000  0.018  0.019
   21  0.000  0.000  0.018  0.019
   22  0.001  0.001  0.044  0.045
   23  0.000  0.000  0.018  0.019
   24  0.001  0.001  0.044  0.046
   25  0.001  0.000  0.053  0.055
   26  0.001  0.000  0.053  0.055
   27  0.001  0.001  0.044  0.045
   28  0.001  0.000  0.014  0.015
   29  0.000  0.000  0.011  0.012
   30  0.000  0.000  0.011  0.012
   31  0.000  0.000  0.011  0.012
   32  0.000  0.000  0.011  0.012
   33  0.000  0.000  0.011  0.012
   34  0.000  0.000  0.011  0.012
   35  0.002  0.001  0.004  0.007
   36  0.004  0.001  0.000  0.005
   37  0.000  0.000  0.000  0.000
tot    0.034  0.017  0.806  0.857
 
band    21 # energy   -4.91460393 # occ.  2.00000000
 
ion      s      p      d    tot
    1  0.000  0.001  0.017  0.017
    2  0.001  0.001  0.005  0.007
    3  0.000  0.000  0.010  0.011
    4  0.001  0.001  0.006  0.008
    5  0.000  0.000  0.001  0.001
    6  0.000  0.000  0.006  0.006
    7  0.000  0.000  0.010  0.011
    8  0.001  0.000  0.005  0.006
    9  0.000  0.000  0.007  0.007
   10  0.000  0.000  0.046  0.046
   11  0.000  0.001  0.021  0.022
   12  0.002  0.000  0.056  0.058
   13  0.000  0.001  0.022  0.023
   14  0.000  0.000  0.009  0.009
   15  0.000  0.000  0.040  0.040
   16  0.002  0.000  0.055  0.057
   17  0.000  0.000  0.034  0.035
   18  0.000  0.000  0.080  0.080
   19  0.001  0.000  0.038  0.039
   20  0.000  0.000  0.000  0.000
   21  0.001  0.001  0.035  0.037
   22  0.002  0.000  0.040  0.043
   23  0.001  0.001  0.031  0.032
   24  0.000  0.000  0.048  0.048
   25  0.000  0.000  0.068  0.068
   26  0.001  0.000  0.034  0.035
   27  0.002  0.000  0.041  0.044
   28  0.000  0.000  0.008  0.008
   29  0.001  0.000  0.004  0.006
   30  0.000  0.000  0.010  0.010
   31  0.001  0.000  0.005  0.006
   32  0.001  0.001  0.008  0.009
   33  0.000  0.000  0.009  0.010
   34  0.001  0.001  0.007  0.009
   35  0.000  0.001  0.015  0.016
   36  0.000  0.000  0.001  0.001