PROCAR new format
# of k-points:   10         # of bands:  252         # of ions:   36

 k-point     1 :    0.00000000 0.00000000 0.00000000     weight = 0.01562500

band     1 # energy   -6.25753566 # occ.  2.00000000
 
ion      s      p      d    tot
    1  0.006  0.001  0.000  0.007
    2  0.006  0.001  0.000  0.007
    3  0.006  0.001  0.000  0.007
    4  0.006  0.001  0.000  0.007
    5  0.006  0.001  0.000  0.007
    6  0.006  0.001  0.000  0.007
    7  0.006  0.001  0.000  0.007
    8  0.006  0.001  0.000  0.007
    9  0.006  0.001  0.000  0.007
   10  0.024  0.000  0.000  0.024
   11  0.024  0.000  0.000  0.025
   12  0.024  0.000  0.000  0.024
   13  0.024  0.000  0.000  0.025
   14  0.024  0.000  0.000  0.025
   15  0.024  0.000  0.000  0.025
   16  0.024  0.000  0.000  0.024
   17  0.024  0.000  0.000  0.025
   18  0.024  0.000  0.000  0.025
   19  0.023  0.000  0.000  0.024
   20  0.022  0.000  0.000  0.023
   21  0.022  0.000  0.000  0.023
   22  0.023  0.000  0.000  0.024
   23  0.022  0.000  0.000  0.023
   24  0.023  0.000  0.000  0.024
   25  0.023  0.000  0.000  0.024
   26  0.023  0.000  0.000  0.024
   27  0.023  0.000  0.000  0.024
   28  0.006  0.001  0.000  0.006
   29  0.005  0.001  0.000  0.006
   30  0.005  0.001  0.000  0.006
   31  0.005  0.001  0.000  0.006
   32  0.005  0.001  0.000  0.006
   33  0.005  0.001  0.000  0.006
   34  0.005  0.001  0.000  0.006
   35  0.006  0.001  0.000  0.006
   36  0.005  0.001  0.000  0.006
tot    0.525  0.013  0.006  0.545
 
band     2 # energy   -5.38121768 # occ.  2.00000000
 
ion      s      p      d    tot
    1  0.008  0.000  0.000  0.008
    2  0.008  0.000  0.000  0.008
    3  0.008  0.000  0.000  0.008
    4  0.008  0.000  0.000  0.008
    5  0.008  0.000  0.000  0.008
    6  0.008  0.000  0.000  0.008
    7  0.008  0.000  0.000  0.008
    8  0.008  0.000  0.000  0.008
    9  0.007  0.000  0.000  0.008
   10  0.011  0.001  0.015  0.027
   11  0.011  0.001  0.016  0.027
   12  0.011  0.001  0.015  0.027
   13  0.011  0.001  0.016  0.027
   14  0.011  0.001  0.016  0.027
   15  0.010  0.001  0.016  0.027
   16  0.011  0.001  0.015  0.027
   17  0.010  0.001  0.016  0.027
   18  0.010  0.001  0.016  0.027
   19  0.014  0.001  0.017  0.032
   20  0.011  0.001  0.017  0.029
   21  0.011  0.001  0.017  0.029
   22  0.013  0.001  0.017  0.031
   23  0.011  0.001  0.017  0.029
   24  0.013  0.001  0.017  0.031
   25  0.014  0.001  0.017  0.032
   26  0.014  0.001  0.017  0.032
   27  0.013  0.001  0.017  0.031
   28  0.008  0.001  0.000  0.008
   29  0.007  0.000  0.000  0.007
   30  0.007  0.000  0.000  0.007
   31  0.007  0.000  0.000  0.007
   32  0.007  0.000  0.000  0.007
   33  0.007  0.000  0.000  0.007
   34  0.007  0.000  0.000  0.007
   35  0.007  0.000  0.000  0.008
   36  0.005  0.000  0.000  0.006
tot    0.336  0.024  0.298  0.658
 
band     3 # energy   -5.10091637 # occ.  2.00000000
 
ion      s      p      d    tot
    1  0.016  0.000  0.023  0.039
    2  0.016  0.000  0.025  0.040
    3  0.016  0.000  0.025  0.040
    4  0.016  0.000  0.025  0.040
    5  0.016  0.000  0.026  0.042
    6  0.016  0.000  0.025  0.040
    7  0.016  0.000  0.025  0.040
    8  0.016  0.000  0.025  0.040
    9  0.015  0.000  0.025  0.040
   10  0.000  0.001  0.020  0.021
   11  0.000  0.000  0.023  0.024
   12  0.000  0.001  0.020  0.021
   13  0.000  0.000  0.023  0.024
   14  0.000  0.000  0.023  0.024
   15  0.001  0.001  0.022  0.023
   16  0.000  0.001  0.020  0.021
   17  0.001  0.001  0.022  0.023
   18  0.001  0.001  0.022  0.023
   19  0.000  0.000  0.009  0.009
   20  0.000  0.000  0.007  0.007
   21  0.000  0.000  0.007  0.007
   22  0.000  0.000  0.012  0.012
   23  0.000  0.000  0.007  0.007
   24  0.000  0.000  0.012  0.012
   25  0.000  0.000  0.009  0.009
   26  0.000  0.000  0.009  0.009
   27  0.000  0.000  0.012  0.012
   28  0.007  0.000  0.007  0.015
   29  0.006  0.000  0.007  0.012
   30  0.006  0.000  0.007  0.012
   31  0.006  0.000  0.007  0.012
   32  0.006  0.000  0.007  0.012
   33  0.006  0.000  0.007  0.012
   34  0.006  0.000  0.007  0.012
   35  0.007  0.000  0.008  0.015
   36  0.004  0.000  0.002  0.005
tot    0.197  0.006  0.558  0.761
 
band     4 # energy   -4.98409081 # occ.  2.00000000
 
ion      s      p      d    tot
    1  0.000  0.000  0.000  0.000
    2  0.001  0.000  0.004  0.005
    3  0.002  0.001  0.005  0.008
    4  0.001  0.000  0.004  0.005
    5  0.000  0.000  0.007  0.007
    6  0.000  0.000  0.002  0.003
    7  0.002  0.001  0.005  0.008
    8  0.000  0.000  0.002  0.003
    9  0.000  0.000  0.008  0.009
   10  0.001  0.000  0.031  0.032
   11  0.004  0.000  0.066  0.071
   12  0.000  0.001  0.023  0.024
   13  0.005  0.000  0.065  0.070
   14  0.015  0.001  0.004  0.020
   15  0.006  0.001  0.033  0.040
   16  0.000  0.001  0.023  0.024
   17  0.007  0.001  0.033  0.041
   18  0.025  0.001  0.026  0.051
   19  0.003  0.000  0.054  0.058
   20  0.003  0.000  0.029  0.032
   21  0.001  0.001  0.017  0.019
   22  0.007  0.001  0.036  0.044
   23  0.000  0.001  0.017  0.018
   24  0.024  0.001  0.020  0.045
   25  0.010  0.001  0.006  0.017
   26  0.003  0.000  0.053  0.057
   27  0.006  0.001  0.037  0.044
   28  0.000  0.000  0.005  0.005
   29  0.001  0.000  0.004  0.006
   30  0.000  0.000  0.002  0.002
   31  0.001  0.000  0.004  0.006
   32  0.002  0.001  0.004  0.007
   33  0.000  0.000  0.002  0.002
   34  0.002  0.001  0.004  0.006
   35  0.000  0.000  0.009  0.009
   36  0.000  0.000  0.000  0.000
tot    0.133  0.017  0.648  0.799
 
band     5 # energy   -4.98407790 # occ.  2.00000000
 
ion      s      p      d    tot
    1  0.000  0.000  0.000  0.000
    2  0.001  0.000  0.004  0.005
    3  0.000  0.000  0.003  0.003
    4  0.001  0.000  0.004  0.006
    5  0.000  0.000  0.007  0.007
    6  0.002  0.001  0.005  0.008
    7  0.000  0.000  0.003  0.003
    8  0.002  0.001  0.005  0.008
    9  0.000  0.000  0.008  0.009
   10  0.000  0.001  0.021  0.022
   11  0.012  0.001  0.024  0.037
   12  0.001  0.000  0.028  0.029
   13  0.012  0.001  0.025  0.038
   14  0.000  0.000  0.086  0.086
   15  0.019  0.001  0.027  0.047
   16  0.001  0.000  0.028  0.029
   17  0.019  0.001  0.027  0.047
   18  0.000  0.001  0.037  0.039
   19  0.009  0.001  0.021  0.030
   20  0.000  0.001  0.014  0.015
   21  0.002  0.000  0.025  0.027
   22  0.018  0.001  0.025  0.044
   23  0.002  0.000  0.025  0.027
   24  0.000  0.001  0.044  0.045
   25  0.000  0.000  0.069  0.069
   26  0.008  0.001  0.023  0.031
   27  0.019  0.001  0.024  0.044
   28  0.000  0.000  0.005  0.005
   29  0.001  0.000  0.003  0.004
   30  0.002  0.001  0.005  0.007
   31  0.001  0.000  0.003  0.004
   32  0.000  0.000  0.003  0.003
   33  0.002  0.001  0.005  0.007
   34  0.000  0.000  0.003  0.003
   35  0.000  0.000  0.009  0.009
   36  0.000  0.000  0.000  0.000
tot    0.133  0.017  0.648  0.799
 
band     6 # energy   -4.98374570 # occ.  2.00000000
 
ion      s      p      d    tot
    1  0.001  0.000  0.001  0.002
    2  0.000  0.000  0.005  0.005
    3  0.000  0.000  0.005  0.005
    4  0.000  0.000  0.005  0.005
    5  0.004  0.001  0.005  0.011
    6  0.000  0.000  0.005  0.005
    7  0.000  0.000  0.005  0.005
    8  0.000  0.000  0.005  0.005
    9  0.001  0.000  0.004  0.005
   10  0.009  0.001  0.005  0.015
   11  0.011  0.000  0.046  0.058
   12  0.009  0.001  0.005  0.015
   13  0.011  0.000  0.046  0.058
   14  0.013  0.000  0.046  0.059
   15  0.000  0.000  0.053  0.053
   16  0.009  0.001  0.005  0.016
   17  0.000  0.000  0.052  0.053
   18  0.001  0.000  0.050  0.050
   19  0.011  0.001  0.027  0.039
   20  0.004  0.001  0.010  0.016
   21  0.005  0.001  0.011  0.017
   22  0.002  0.000  0.055  0.056
   23  0.005  0.001  0.011  0.017
   24  0.002  0.000  0.052  0.055
   25  0.013  0.001  0.028  0.041
   26  0.011  0.001  0.027  0.039
   27  0.002  0.000  0.055  0.056
   28  0.003  0.001  0.004  0.009
   29  0.000  0.000  0.004  0.004
   30  0.000  0.000  0.004  0.004
   31  0.000  0.000  0.004  0.004
   32  0.000  0.000  0.004  0.004
   33  0.000  0.000  0.004  0.004
   34  0.000  0.000  0.004  0.004
   35  0.003  0.001  0.004  0.008
   36  0.000  0.000  0.000  0.000
tot    0.130  0.017  0.656  0.802
 
band     7 # energy   -4.97546978 # occ.  2.00000000
 
ion      s      p      d    tot
    1  0.000  0.000  0.008  0.009
    2  0.000  0.000  0.003  0.004
    3  0.001  0.001  0.006  0.008
    4  0.000  0.000  0.004  0.004
    5  0.000  0.000  0.002  0.002
    6  0.000  0.000  0.003  0.004
    7  0.001  0.001  0.006  0.008
    8  0.000  0.000  0.003  0.003
    9  0.000  0.000  0.003  0.003
   10  0.000  0.001  0.072  0.073
   11  0.006  0.001  0.032  0.039
   12  0.021  0.001  0.027  0.049
   13  0.007  0.001  0.034  0.041
   14  0.000  0.002  0.009  0.011
   15  0.004  0.000  0.037  0.041
   16  0.020  0.001  0.031  0.051
   17  0.004  0.000  0.032  0.036
   18  0.000  0.000  0.091  0.091
   19  0.006  0.001  0.027  0.033
   20  0.000  0.000  0.044  0.044
   21  0.013  0.001  0.017  0.031
   22  0.001  0.000  0.027  0.029
   23  0.012  0.001  0.019  0.032
   24  0.000  0.000  0.052  0.053
   25  0.000  0.001  0.017  0.019
   26  0.006  0.001  0.027  0.034
   27  0.001  0.000  0.029  0.030
   28  0.000  0.000  0.004  0.005
   29  0.001  0.000  0.003  0.004
   30  0.000  0.000  0.002  0.002
   31  0.001  0.000  0.002  0.003
   32  0.001  0.000  0.004  0.005
   33  0.000  0.000  0.002  0.002
   34  0.001  0.000  0.004  0.005
   35  0.000  0.000  0.002  0.002
   36  0.000  0.000  0.002  0.002
tot    0.110  0.015  0.686  0.811
 
band     8 # energy   -4.97546440 # occ.  2.00000000
 
ion      s      p      d    tot
    1  0.000  0.000  0.008  0.009
    2  0.001  0.001  0.005  0.006
    3  0.000  0.000  0.002  0.002
    4  0.001  0.001  0.005  0.006
    5  0.000  0.000  0.002  0.002
    6  0.001  0.000  0.005  0.007
    7  0.000  0.000  0.002  0.002
    8  0.001  0.000  0.006  0.007
    9  0.000  0.000  0.003  0.003
   10  0.028  0.001  0.014  0.043
   11  0.003  0.001  0.018  0.022
   12  0.006  0.001  0.059  0.066
   13  0.002  0.001  0.016  0.019
   14  0.009  0.000  0.040  0.049
   15  0.001  0.000  0.070  0.072
   16  0.008  0.001  0.056  0.064
   17  0.001  0.000  0.074  0.076
   18  0.005  0.000  0.015  0.021
   19  0.002  0.001  0.021  0.024
   20  0.017  0.001  0.010  0.028
   21  0.004  0.000  0.036  0.041
   22  0.000  0.000  0.045  0.046
   23  0.005  0.001  0.034  0.040
   24  0.002  0.000  0.020  0.022
   25  0.008  0.000  0.030  0.039
   26  0.002  0.001  0.020  0.023
   27  0.001  0.000  0.043  0.044
   28  0.000  0.000  0.004  0.005
   29  0.000  0.000  0.003  0.003
   30  0.001  0.000  0.004  0.005
   31  0.000  0.000  0.003  0.003
   32  0.000  0.000  0.002  0.002
   33  0.001  0.000  0.004  0.005
   34  0.000  0.000  0.002  0.002
   35  0.000  0.000  0.002  0.002
   36  0.000  0.000  0.002  0.002
tot    0.110  0.015  0.686  0.811
 
band     9 # energy   -4.97230535 # occ.  2.00000000
 
ion      s      p      d    tot
    1  0.001  0.001  0.010  0.011
    2  0.000  0.000  0.005  0.005
    3  0.000  0.000  0.005  0.005
    4  0.000  0.000  0.005  0.005
    5  0.000  0.000  0.000  0.000
    6  0.000  0.000  0.005  0.005
    7  0.000  0.000  0.005  0.005
    8  0.000  0.000  0.005  0.005
    9  0.003  0.001  0.004  0.008
   10  0.004  0.000  0.080  0.084
   11  0.004  0.001  0.020  0.025
   12  0.004  0.000  0.079  0.084
   13  0.004  0.001  0.020  0.025
   14  0.004  0.001  0.020  0.025
   15  0.015  0.001  0.031  0.047
   16  0.004  0.000  0.079  0.084
   17  0.015  0.001  0.031  0.047
   18  0.015  0.001  0.031  0.047
   19  0.001  0.001  0.022  0.024
   20  0.005  0.000  0.029  0.034
   21  0.005  0.000  0.029  0.034
   22  0.007  0.001  0.019  0.027
   23  0.005  0.000  0.029  0.034
   24  0.007  0.001  0.019  0.027
   25  0.001  0.001  0.022  0.024
   26  0.001  0.001  0.022  0.024
   27  0.007  0.001  0.019  0.027
   28  0.001  0.000  0.000  0.001
   29  0.000  0.000  0.005  0.005
   30  0.000  0.000  0.005  0.005
   31  0.000  0.000  0.005  0.005
   32  0.000  0.000  0.005  0.005
   33  0.000  0.000  0.005  0.005
   34  0.000  0.000  0.005  0.005
   35  0.001  0.000  0.001  0.001
   36  0.002  0.001  0.001  0.003
tot    0.114  0.016  0.678  0.808
 
band    10 # energy   -4.94454265 # occ.  2.00000000
 
ion      s      p      d    tot
    1  0.000  0.000  0.014  0.014
    2  0.001  0.000  0.011  0.013
    3  0.001  0.000  0.011  0.013
    4  0.001  0.000  0.011  0.013
    5  0.000  0.000  0.000  0.000
    6  0.001  0.000  0.011  0.013
    7  0.001  0.000  0.011  0.013
    8  0.001  0.000  0.011  0.013
    9  0.010  0.000  0.007  0.017
   10  0.005  0.000  0.021  0.026
   11  0.000  0.000  0.040  0.041
   12  0.005  0.000  0.021  0.026
   13  0.000  0.000  0.040  0.041
   14  0.000  0.000  0.040  0.041
   15  0.000  0.000  0.023  0.024
   16  0.005  0.000  0.021  0.026
   17  0.000  0.000  0.023  0.024
   18  0.000  0.000  0.023  0.024
   19  0.002  0.001  0.005  0.007
   20  0.002  0.000  0.032  0.034
   21  0.002  0.000  0.032  0.034
   22  0.003  0.000  0.061  0.064
   23  0.002  0.000  0.032  0.034
   24  0.003  0.000  0.061  0.064
   25  0.002  0.001  0.005  0.007
   26  0.002  0.001  0.005  0.007
   27  0.003  0.000  0.061  0.064
   28  0.011  0.001  0.001  0.012
   29  0.003  0.000  0.013  0.015
   30  0.003  0.000  0.013  0.015
   31  0.003  0.000  0.013  0.015
   32  0.003  0.000  0.013  0.015
   33  0.003  0.000  0.013  0.015
   34  0.003  0.000  0.013  0.015
   35  0.003  0.000  0.029  0.032
   36  0.000  0.000  0.000  0.000
tot    0.082  0.007  0.741  0.830
 
band    11 # energy   -4.93812708 # occ.  2.00000000
 
ion      s      p      d    tot
    1  0.000  0.000  0.012  0.012
    2  0.001  0.000  0.008  0.009
    3  0.000  0.000  0.009  0.010
    4  0.002  0.000  0.007  0.009
    5  0.000  0.000  0.005  0.005
    6  0.004  0.001  0.006  0.010
    7  0.001  0.000  0.009  0.010
    8  0.004  0.001  0.006  0.010
    9  0.000  0.000  0.016  0.016
   10  0.001  0.000  0.035  0.037
   11  0.002  0.000  0.050  0.051
   12  0.000  0.000  0.027  0.027
   13  0.003  0.000  0.044  0.047
   14  0.010  0.000  0.008  0.017
   15  0.001  0.000  0.036  0.037
   16  0.000  0.000  0.026  0.026
   17  0.001  0.000  0.035  0.036
   18  0.004  0.000  0.026  0.031
   19  0.003  0.000  0.070  0.073
   20  0.003  0.000  0.024  0.027
   21  0.001  0.000  0.037  0.038
   22  0.001  0.000  0.028  0.029
   23  0.001  0.000  0.039  0.040
   24  0.004  0.000  0.040  0.044
   25  0.014  0.000  0.006  0.020
   26  0.004  0.000  0.063  0.067
   27  0.001  0.000  0.026  0.027
   28  0.000  0.000  0.008  0.009
   29  0.002  0.000  0.004  0.006
   30  0.002  0.001  0.005  0.008
   31  0.001  0.000  0.005  0.007
   32  0.000  0.000  0.009  0.009
   33  0.002  0.001  0.005  0.008
   34  0.000  0.000  0.009  0.009
   35  0.000  0.000  0.011  0.011
   36  0.000  0.000  0.001  0.001
tot    0.072  0.009  0.756  0.837
 
band    12 # energy   -4.93812000 # occ.  2.00000000
 
ion      s      p      d    tot
    1  0.000  0.000  0.012  0.012
    2  0.002  0.001  0.007  0.010
    3  0.004  0.000  0.006  0.010
    4  0.002  0.001  0.007  0.010
    5  0.000  0.000  0.005  0.005
    6  0.000  0.000  0.009  0.009
    7  0.003  0.000  0.006  0.010
    8  0.000  0.000  0.009  0.009
    9  0.000  0.000  0.016  0.016
   10  0.000  0.000  0.023  0.023
   11  0.008  0.000  0.018  0.026
   12  0.001  0.000  0.032  0.033
   13  0.007  0.000  0.023  0.030
   14  0.000  0.000  0.060  0.060
   15  0.003  0.000  0.029  0.032
   16  0.001  0.000  0.033  0.034
   17  0.003  0.000  0.030  0.033
   18  0.000  0.000  0.039  0.039
   19  0.011  0.000  0.022  0.034
   20  0.000  0.000  0.043  0.043
   21  0.002  0.000  0.030  0.032
   22  0.002  0.000  0.035  0.038
   23  0.002  0.000  0.028  0.030
   24  0.000  0.000  0.022  0.022
   25  0.000  0.000  0.087  0.087
   26  0.010  0.000  0.030  0.040
   27  0.003  0.000  0.037  0.040
   28  0.000  0.000  0.008  0.009
   29  0.001  0.001  0.008  0.009
   30  0.000  0.000  0.008  0.008
   31  0.001  0.001  0.007  0.009
   32  0.003  0.001  0.004  0.007
   33  0.000  0.000  0.007  0.008
   34  0.002  0.000  0.004  0.007
   35  0.000  0.000  0.011  0.011
   36  0.000  0.000  0.001  0.001
tot    0.072  0.009  0.756  0.837
 
band    13 # energy   -4.92782115 # occ.  2.00000000
 
ion      s      p      d    tot
    1  0.008  0.000  0.003  0.012
    2  0.000  0.000  0.011  0.011
    3  0.000  0.000  0.011  0.011
    4  0.000  0.000  0.011  0.011
    5  0.002  0.001  0.005  0.008
    6  0.000  0.000  0.011  0.011
    7  0.000  0.000  0.011  0.011
    8  0.000  0.000  0.011  0.011
    9  0.000  0.000  0.003  0.003
   10  0.001  0.000  0.027  0.028
   11  0.002  0.000  0.020  0.023
   12  0.001  0.000  0.027  0.028
   13  0.002  0.000  0.020  0.023
   14  0.002  0.000  0.020  0.022
   15  0.000  0.000  0.031  0.032
   16  0.001  0.000  0.027  0.028
   17  0.000  0.000  0.031  0.032
   18  0.000  0.000  0.031  0.032
   19  0.000  0.000  0.081  0.081
   20  0.007  0.000  0.028  0.034
   21  0.006  0.000  0.028  0.034
   22  0.007  0.000  0.012  0.019
   23  0.006  0.000  0.028  0.034
   24  0.007  0.000  0.012  0.019
   25  0.000  0.000  0.080  0.080
   26  0.000  0.000  0.081  0.081
   27  0.007  0.000  0.012  0.019
   28  0.003  0.000  0.020  0.023
   29  0.001  0.000  0.010  0.011
   30  0.001  0.000  0.010  0.011
   31  0.001  0.000  0.010  0.011
   32  0.001  0.000  0.010  0.011
   33  0.001  0.000  0.010  0.011
   34  0.001  0.000  0.010  0.011
   35  0.002  0.001  0.001  0.004
   36  0.005  0.001  0.001  0.007
tot    0.078  0.009  0.750  0.837
 
band    14 # energy   -4.92714163 # occ.  2.00000000
 
ion      s      p      d    tot
    1  0.000  0.000  0.011  0.011
    2  0.001  0.000  0.009  0.011
    3  0.000  0.000  0.008  0.009
    4  0.001  0.000  0.009  0.011
    5  0.000  0.000  0.019  0.019
    6  0.003  0.000  0.006  0.009
    7  0.000  0.000  0.008  0.009
    8  0.003  0.000  0.006  0.009
    9  0.000  0.000  0.004  0.004
   10  0.000  0.000  0.077  0.077
   11  0.001  0.000  0.042  0.044
   12  0.004  0.000  0.029  0.033
   13  0.001  0.000  0.041  0.043
   14  0.000  0.000  0.033  0.033
   15  0.001  0.000  0.028  0.029
   16  0.005  0.000  0.023  0.028
   17  0.001  0.000  0.028  0.029
   18  0.000  0.000  0.021  0.021
   19  0.001  0.000  0.038  0.039
   20  0.000  0.000  0.073  0.073
   21  0.007  0.000  0.036  0.043
   22  0.003  0.000  0.029  0.032
   23  0.008  0.000  0.031  0.039
   24  0.000  0.000  0.071  0.072
   25  0.000  0.000  0.009  0.009
   26  0.001  0.000  0.035  0.036
   27  0.004  0.000  0.024  0.028
   28  0.000  0.000  0.007  0.007
   29  0.001  0.000  0.004  0.005
   30  0.002  0.000  0.003  0.005
   31  0.001  0.000  0.004  0.005
   32  0.000  0.000  0.007  0.007
   33  0.002  0.000  0.004  0.006
   34  0.000  0.000  0.007  0.007
   35  0.000  0.000  0.003  0.003
   36  0.000  0.000  0.003  0.003
tot    0.050  0.007  0.791  0.848
 
band    15 # energy   -4.92713174 # occ.  2.00000000
 
ion      s      p      d    tot
    1  0.000  0.000  0.011  0.011
    2  0.002  0.000  0.006  0.008
    3  0.003  0.000  0.007  0.010
    4  0.001  0.000  0.006  0.008
    5  0.000  0.000  0.019  0.019
    6  0.000  0.000  0.010  0.010
    7  0.002  0.000  0.007  0.010
    8  0.000  0.000  0.010  0.010
    9  0.000  0.000  0.004  0.004
   10  0.006  0.000  0.008  0.015
   11  0.000  0.000  0.036  0.036
   12  0.002  0.000  0.057  0.059
   13  0.001  0.000  0.037  0.037
   14  0.002  0.000  0.045  0.047
   15  0.000  0.000  0.023  0.024
   16  0.001  0.000  0.063  0.064
   17  0.000  0.000  0.024  0.024
   18  0.001  0.000  0.030  0.031
   19  0.000  0.000  0.016  0.017
   20  0.010  0.000  0.021  0.031
   21  0.003  0.000  0.057  0.060
   22  0.001  0.000  0.054  0.055
   23  0.002  0.000  0.062  0.064
   24  0.004  0.000  0.012  0.016
   25  0.001  0.000  0.046  0.047
   26  0.000  0.000  0.019  0.020
   27  0.001  0.000  0.059  0.060
   28  0.000  0.000  0.007  0.007
   29  0.001  0.000  0.006  0.007
   30  0.000  0.000  0.006  0.007
   31  0.001  0.000  0.005  0.007
   32  0.002  0.000  0.003  0.005
   33  0.000  0.000  0.006  0.006
   34  0.002  0.000  0.003  0.005
   35  0.000  0.000  0.003  0.003
   36  0.000  0.000  0.003  0.003
tot    0.050  0.007  0.791  0.848
 
band    16 # energy   -4.89795976 # occ.  2.00000000
 
ion      s      p      d    tot
    1  0.002  0.000  0.001  0.003
    2  0.002  0.000  0.012  0.014
    3  0.002  0.000  0.012  0.014
    4  0.002  0.000  0.012  0.014
    5  0.008  0.000  0.014  0.022
    6  0.002  0.000  0.012  0.014
    7  0.002  0.000  0.012  0.014
    8  0.002  0.000  0.012  0.014
    9  0.000  0.000  0.010  0.011
   10  0.000  0.000  0.011  0.011
   11  0.001  0.000  0.030  0.031
   12  0.000  0.000  0.011  0.011
   13  0.001  0.000  0.030  0.031
   14  0.001  0.000  0.030  0.031
   15  0.004  0.000  0.009  0.014
   16  0.000  0.000  0.011  0.011
   17  0.004  0.000  0.009  0.014
   18  0.004  0.000  0.009  0.014
   19  0.003  0.000  0.020  0.023
   20  0.002  0.000  0.031  0.033
   21  0.002  0.000  0.031  0.033
   22  0.000  0.001  0.016  0.017
   23  0.002  0.000  0.031  0.033
   24  0.000  0.001  0.016  0.017
   25  0.003  0.000  0.020  0.023
   26  0.003  0.000  0.020  0.023
   27  0.000  0.001  0.016  0.017
   28  0.006  0.000  0.029  0.036
   29  0.011  0.000  0.022  0.033
   30  0.011  0.000  0.022  0.033
   31  0.011  0.000  0.022  0.033
   32  0.011  0.000  0.022  0.033
   33  0.011  0.000  0.022  0.033
   34  0.011  0.000  0.022  0.033
   35  0.021  0.000  0.014  0.036
   36  0.009  0.000  0.008  0.016
tot    0.151  0.009  0.632  0.791
 
band    17 # energy   -4.77249134 # occ.  2.00000000
 
ion      s      p      d    tot
    1  0.000  0.001  0.018  0.018
    2  0.001  0.001  0.008  0.010
    3  0.000  0.000  0.010  0.010
    4  0.001  0.001  0.008  0.010
    5  0.000  0.000  0.005  0.005
    6  0.001  0.000  0.005  0.006
    7  0.000  0.000  0.010  0.010
    8  0.001  0.000  0.005  0.006
    9  0.000  0.000  0.006  0.007
   10  0.000  0.000  0.058  0.058
   11  0.001  0.001  0.026  0.028
   12  0.002  0.000  0.049  0.051
   13  0.001  0.001  0.028  0.030
   14  0.000  0.000  0.000  0.000
   15  0.000  0.000  0.036  0.037
   16  0.002  0.000  0.049  0.051
   17  0.000  0.000  0.034  0.035
   18  0.000  0.000  0.071  0.072
   19  0.001  0.000  0.041  0.041
   20  0.000  0.000  0.009  0.009
   21  0.000  0.001  0.019  0.021
   22  0.003  0.000  0.048  0.051
   23  0.000  0.001  0.019  0.020
   24  0.000  0.000  0.040  0.040
   25  0.000  0.000  0.077  0.077
   26  0.001  0.000  0.038  0.039
   27  0.002  0.000  0.047  0.050
   28  0.000  0.000  0.008  0.009
   29  0.001  0.000  0.005  0.006
   30  0.000  0.000  0.009  0.009
   31  0.000  0.000  0.005  0.006
   32  0.001  0.001  0.005  0.007
   33  0.000  0.000  0.009  0.009
   34  0.001  0.001  0.005  0.007
   35  0.000  0.001  0.018  0.019
   36  0.000  0.000  0.000  0.000
tot    0.022  0.015  0.829  0.866
 
band    18 # energy   -4.77247240 # occ.  2.00000000
 
ion      s      p      d    tot
    1  0.000  0.001  0.018  0.018
    2  0.000  0.000  0.007  0.008
    3  0.002  0.001  0.005  0.007
    4  0.000  0.000  0.007  0.008
    5  0.000  0.000  0.005  0.005
    6  0.001  0.001  0.010  0.011
    7  0.002  0.001  0.005  0.007
    8  0.000  0.001  0.010  0.011
    9  0.000  0.000  0.006  0.007
   10  0.003  0.000  0.046  0.049
   11  0.000  0.000  0.010  0.011
   12  0.001  0.000  0.055  0.056
   13  0.000  0.000  0.008  0.009
   14  0.001  0.001  0.036  0.038
   15  0.000  0.000  0.058  0.059
   16  0.001  0.000  0.055  0.056
   17  0.000  0.000  0.060  0.061
   18  0.000  0.000  0.024  0.025
   19  0.000  0.000  0.063  0.064
   20  0.001  0.001  0.023  0.024
   21  0.000  0.000  0.012  0.012
   22  0.001  0.000  0.042  0.043
   23  0.000  0.000  0.013  0.013
   24  0.003  0.000  0.050  0.054
   25  0.001  0.000  0.027  0.028
   26  0.000  0.000  0.066  0.066
   27  0.001  0.000  0.043  0.044
   28  0.000  0.000  0.008  0.009
   29  0.001  0.001  0.008  0.009
   30  0.001  0.000  0.004  0.006
   31  0.001  0.001  0.007  0.009
   32  0.000  0.000  0.008  0.008
   33  0.001  0.001  0.004  0.006
   34  0.000  0.000  0.008  0.008
   35  0.000  0.001  0.018  0.019
   36  0.000  0.000  0.000  0.000
tot    0.022  0.015  0.829  0.866
 
band    19 # energy   -4.76776698 # occ.  2.00000000
 
ion      s      p      d    tot
    1  0.001  0.001  0.011  0.013
    2  0.000  0.000  0.008  0.009
    3  0.000  0.000  0.008  0.009
    4  0.000  0.000  0.008  0.009
    5  0.003  0.001  0.003  0.007
    6  0.000  0.000  0.008  0.009
    7  0.000  0.000  0.008  0.009
    8  0.000  0.000  0.008  0.009
    9  0.000  0.000  0.005  0.005
   10  0.001  0.001  0.066  0.067
   11  0.000  0.000  0.026  0.027
   12  0.001  0.001  0.066  0.067
   13  0.000  0.000  0.026  0.027
   14  0.000  0.000  0.026  0.027
   15  0.001  0.000  0.034  0.035
   16  0.001  0.001  0.066  0.067
   17  0.001  0.000  0.034  0.035
   18  0.001  0.000  0.034  0.034
   19  0.002  0.001  0.044  0.046
   20  0.001  0.000  0.017  0.018
   21  0.001  0.000  0.017  0.018
   22  0.000  0.000  0.045  0.046
   23  0.001  0.000  0.017  0.018
   24  0.000  0.000  0.045  0.046
   25  0.002  0.001  0.044  0.046
   26  0.002  0.001  0.044  0.046
   27  0.000  0.000  0.045  0.046
   28  0.000  0.000  0.004  0.004
   29  0.000  0.000  0.008  0.009
   30  0.000  0.000  0.008  0.009
   31  0.000  0.000  0.008  0.009
   32  0.000  0.000  0.008  0.009
   33  0.000  0.000  0.008  0.009
   34  0.000  0.000  0.008  0.009
   35  0.001  0.001  0.009  0.011
   36  0.003  0.001  0.000  0.004
tot    0.023  0.014  0.829  0.866
 
band    20 # energy   -4.76013232 # occ.  2.00000000
 
ion      s      p      d    tot
    1  0.004  0.001  0.000  0.005
    2  0.000  0.001  0.012  0.013
    3  0.000  0.001  0.012  0.013
    4  0.000  0.001  0.012  0.013
    5  0.000  0.000  0.010  0.010
    6  0.000  0.001  0.012  0.013
    7  0.000  0.001  0.012  0.013
    8  0.000  0.001  0.012  0.013
    9  0.003  0.001  0.006  0.010
   10  0.001  0.000  0.020  0.021
   11  0.001  0.000  0.043  0.045
   12  0.001  0.000  0.020  0.022
   13  0.001  0.000  0.043  0.045
   14  0.001  0.000  0.043  0.044
   15  0.000  0.001  0.051  0.052
   16  0.001  0.000  0.020  0.022
   17  0.000  0.001  0.051  0.052
   18  0.000  0.001  0.052  0.053
   19  0.000  0.000  0.033  0.033
   20  0.000  0.001  0.051  0.052
   21  0.000  0.001  0.052  0.053
   22  0.001  0.000  0.029  0.030
   23  0.000  0.001  0.052  0.053
   24  0.001  0.000  0.028  0.029
   25  0.000  0.000  0.033  0.034
   26  0.000  0.000  0.033  0.033
   27  0.001  0.000  0.029  0.030
   28  0.005  0.001  0.001  0.007
   29  0.000  0.000  0.007  0.008
   30  0.000  0.000  0.007  0.008
   31  0.000  0.000  0.007  0.008
   32  0.000  0.000  0.007  0.008
   33  0.000  0.000  0.007  0.008
   34  0.000  0.000  0.007  0.008
   35  0.000  0.000  0.003  0.003
   36  0.001  0.001  0.003  0.005
tot    0.027  0.015  0.823  0.865
 
band    21 # energy   -4.75815598 # occ.  2.00000000
 
ion      s      p      d    tot
    1  0.000  0.000  0.001  0.001
    2  0.001  0.001  0.008  0.010
    3  0.000  0.000  0.011  0.011
    4  0.001  0.001  0.008  0.010
    5  0.000  0.001  0.013  0.014
    6  0.001  0.000  0.005  0.007
    7  0.000  0.000  0.011  0.011
    8  0.001  0.000  0.005  0.007
    9  0.000  0.001  0.015  0.016
   10  0.000  0.001  0.022  0.023
   11  0.000  0.000  0.077  0.077
   12  0.000  0.000  0.030  0.031
   13  0.000  0.000  0.079  0.079
   14  0.001  0.000  0.033  0.034
   15  0.001  0.000  0.031  0.032
   16  0.000  0.000  0.030  0.030
   17  0.001  0.000  0.030  0.030
   18  0.003  0.001  0.054  0.058
   19  0.001  0.000  0.016  0.017
   20  0.003  0.000  0.030  0.033
   21  0.001  0.000  0.054  0.055
   22  0.000  0.000  0.042  0.042
   23  0.001  0.000  0.053  0.054
   24  0.000  0.001  0.019  0.020
   25  0.003  0.001  0.042  0.046
   26  0.001  0.000  0.014  0.015
   27  0.000  0.000  0.041  0.041
   28  0.000  0.000  0.011  0.012
   29  0.001  0.000  0.005  0.006
   30  0.000  0.000  0.008  0.009
   31  0.001  0.000  0.005  0.006
   32  0.002  0.001  0.004  0.006
   33  0.000  0.000  0.008  0.009
   34  0.002  0.001  0.004  0.006
   35  0.000  0.000  0.003  0.003
   36  0.000  0.001  0.003  0.004
tot    0.024  0.015  0.824  0.864
 
band    22 # energy   -4.75814014 # occ.  2.00000000
 
ion      s      p      d    tot
    1  0.000  0.000  0.001  0.001
    2  0.000  0.000  0.008  0.009
    3  0.002  0.001  0.005  0.007
    4  0.000  0.000  0.008  0.008
    5  0.000  0.001  0.013  0.014
    6  0.001  0.001  0.011  0.012
    7  0.002  0.001  0.005  0.007
    8  0.001  0.001  0.011  0.012
    9  0.000  0.001  0.015  0.016
   10  0.000  0.000  0.032  0.033
   11  0.001  0.000  0.049  0.049
   12  0.000  0.001  0.024  0.025
   13  0.001  0.000  0.046  0.047
   14  0.000  0.000  0.093  0.093
   15  0.002  0.001  0.046  0.048
   16  0.000  0.001  0.025  0.026