 vasp.6.2.0 18Jan21 (build Jun 12 2021 23:27:24) complex                        
  
 executed on             LinuxIFC date 2022.05.30  16:21:27
 running on   28 total cores
 distrk:  each k-point on   28 cores,    1 groups
 distr:  one band on NCORE=   1 cores,   28 groups


--------------------------------------------------------------------------------------------------------


 INCAR:
   ISMEAR = -5
   SIGMA = 0.1
   ISPIN = 1
   EDIFF = 1.d-5
   EDIFFG = -0.01
   NSW = 0
   NELM = 150
   ENCUT = 500
   ISIF = 2
   IBRION = 2
   LREAL = Auto
   ALGO = Fast
   ICHARG = 11
   LORBIT = 10
   LCHARG = .F.
   LWAVE = .F.

 POTCAR:    PAW_PBE Au 04Oct2007                  
 POTCAR:    PAW_PBE Pd 04Jan2005                  
 POTCAR:    PAW_PBE C 08Apr2002                   
 POTCAR:    PAW_PBE O 08Apr2002                   
 POTCAR:    PAW_PBE H 15Jun2001                   
 -----------------------------------------------------------------------------
|                                                                             |
|           W    W    AA    RRRRR   N    N  II  N    N   GGGG   !!!           |
|           W    W   A  A   R    R  NN   N  II  NN   N  G    G  !!!           |
|           W    W  A    A  R    R  N N  N  II  N N  N  G       !!!           |
|           W WW W  AAAAAA  RRRRR   N  N N  II  N  N N  G  GGG   !            |
|           WW  WW  A    A  R   R   N   NN  II  N   NN  G    G                |
|           W    W  A    A  R    R  N    N  II  N    N   GGGG   !!!           |
|                                                                             |
|     For optimal performance we recommend to set                             |
|       NCORE = 2 up to number-of-cores-per-socket                            |
|     NCORE specifies how many cores store one orbital (NPAR=cpu/NCORE).      |
|     This setting can greatly improve the performance of VASP for DFT.       |
|     The default, NCORE=1 might be grossly inefficient on modern             |
|     multi-core architectures or massively parallel machines. Do your        |
|     own testing! More info at https://www.vasp.at/wiki/index.php/NCORE      |
|     Unfortunately you need to use the default for GW and RPA                |
|     calculations (for HF NCORE is supported but not extensively tested      |
|     yet).                                                                   |
|                                                                             |
 -----------------------------------------------------------------------------

 POTCAR:    PAW_PBE Au 04Oct2007                  
   VRHFIN =Au: s1d10                                                                                
   LEXCH  = PE                                                                                      
   EATOM  =   926.0867 eV,   68.0654 Ry                                                             
                                                                                                    
   TITEL  = PAW_PBE Au 04Oct2007                                                                    
   LULTRA =        F    use ultrasoft PP ?                                                          
   IUNSCR =        1    unscreen: 0-lin 1-nonlin 2-no                                               
   RPACOR =    2.330    partial core radius                                                         
   POMASS =  196.966; ZVAL   =   11.000    mass and valenz                                          
   RCORE  =    2.500    outmost cutoff radius                                                       
   RWIGS  =    2.840; RWIGS  =    1.503    wigner-seitz radius (au A)                               
   ENMAX  =  229.943; ENMIN  =  172.457 eV                                                          
   ICORE  =        3    local potential                                                             
   LCOR   =        T    correct aug charges                                                         
   LPAW   =        T    paw PP                                                                      
   EAUG   =  356.670                                                                                
   DEXC   =    0.000                                                                                
   RMAX   =    2.562    core radius for proj-oper                                                   
   RAUG   =    1.300    factor for augmentation sphere                                              
   RDEP   =    2.598    radius for radial grids                                                     
   RDEPT  =    2.193    core radius for aug-charge                                                  
                                                                                                    
   Atomic configuration                                                                             
   16 entries                                                                                       
     n  l   j            E        occ.                                                              
     1  0  0.50    -80748.5001   2.0000                                                             
     2  0  0.50    -14244.7466   2.0000                                                             
     2  1  1.50    -12310.9591   6.0000                                                             
     3  0  0.50     -3362.1768   2.0000                                                             
     3  1  1.50     -2801.5463   6.0000                                                             
     3  2  2.50     -2203.8206  10.0000                                                             
     4  0  0.50      -729.8168   2.0000                                                             
     4  1  1.50      -546.0527   6.0000                                                             
     4  2  2.50      -325.7302  10.0000                                                             
     4  3  3.50       -81.1472  14.0000                                                             
     5  0  0.50      -108.3201   2.0000                                                             
     5  1  1.50       -59.7479   6.0000                                                             
     5  2  2.50        -6.8783  10.0000                                                             
     6  0  0.50        -5.7602   1.0000                                                             
     6  1  1.50        -6.8029   0.0000                                                             
     5  3  2.50        -1.3606   0.0000                                                             
   Description                                                                                      
     l       E           TYP  RCUT    TYP  RCUT                                                     
     2     -6.8782861     23  2.500                                                                 
     2     -8.2388687     23  2.500                                                                 
     0     -5.7601759     23  2.500                                                                 
     0     -0.8493231     23  2.500                                                                 
     1     -2.7211652     23  2.500                                                                 
     1     27.2116520     23  2.500                                                                 
     3     -1.3605826     23  2.500                                                                 
  local pseudopotential read in
  partial core-charges read in
  partial kinetic energy density read in
  atomic valenz-charges read in
  non local Contribution for L=           2  read in
    real space projection operators read in
  non local Contribution for L=           2  read in
    real space projection operators read in
  non local Contribution for L=           0  read in
    real space projection operators read in
  non local Contribution for L=           0  read in
    real space projection operators read in
  non local Contribution for L=           1  read in
    real space projection operators read in
  non local Contribution for L=           1  read in
    real space projection operators read in
    PAW grid and wavefunctions read in
 
   number of l-projection  operators is LMAX  =           6
   number of lm-projection operators is LMMAX =          18
 
 POTCAR:    PAW_PBE Pd 04Jan2005                  
   VRHFIN =Pd : s1 d9                                                                               
   LEXCH  = PE                                                                                      
   EATOM  =   809.7530 eV,   59.5152 Ry                                                             
                                                                                                    
   TITEL  = PAW_PBE Pd 04Jan2005                                                                    
   LULTRA =        F    use ultrasoft PP ?                                                          
   IUNSCR =        1    unscreen: 0-lin 1-nonlin 2-no                                               
   RPACOR =    2.000    partial core radius                                                         
   POMASS =  106.420; ZVAL   =   10.000    mass and valenz                                          
   RCORE  =    2.600    outmost cutoff radius                                                       
   RWIGS  =    2.710; RWIGS  =    1.434    wigner-seitz radius (au A)                               
   ENMAX  =  250.925; ENMIN  =  188.194 eV                                                          
   ICORE  =        3    local potential                                                             
   LCOR   =        T    correct aug charges                                                         
   LPAW   =        T    paw PP                                                                      
   EAUG   =  416.230                                                                                
   DEXC   =    0.000                                                                                
   RMAX   =    2.653    core radius for proj-oper                                                   
   RAUG   =    1.300    factor for augmentation sphere                                              
   RDEP   =    2.734    radius for radial grids                                                     
   RDEPT  =    2.103    core radius for aug-charge                                                  
                                                                                                    
   Atomic configuration                                                                             
   12 entries                                                                                       
     n  l   j            E        occ.                                                              
     1  0  0.50    -24164.6631   2.0000                                                             
     2  0  0.50     -3530.9218   2.0000                                                             
     2  1  1.50     -3165.6822   6.0000                                                             
     3  0  0.50      -639.4577   2.0000                                                             
     3  1  1.50      -519.4532   6.0000                                                             
     3  2  2.50      -328.9757  10.0000                                                             
     4  0  0.50       -88.7014   2.0000                                                             
     4  1  1.50       -54.4540   6.0000                                                             
     4  2  2.50        -6.6878   9.0000                                                             
     5  0  0.50        -4.3543   1.0000                                                             
     5  1  0.50        -1.3606   0.0000                                                             
     4  3  2.50        -1.3606   0.0000                                                             
   Description                                                                                      
     l       E           TYP  RCUT    TYP  RCUT                                                     
     2     -6.6878251     23  2.400                                                                 
     2     -8.0484077     23  2.400                                                                 
     0     -4.3542939     23  2.400                                                                 
     0      4.3406793     23  2.400                                                                 
     1     -4.0817478     23  2.600                                                                 
     1     15.8380318     23  2.600                                                                 
     3     -4.0817478     23  2.400                                                                 
  local pseudopotential read in
  partial core-charges read in
  partial kinetic energy density read in
  atomic valenz-charges read in
  non local Contribution for L=           2  read in
    real space projection operators read in
  non local Contribution for L=           2  read in
    real space projection operators read in
  non local Contribution for L=           0  read in
    real space projection operators read in
  non local Contribution for L=           0  read in
    real space projection operators read in
  non local Contribution for L=           1  read in
    real space projection operators read in
  non local Contribution for L=           1  read in
    real space projection operators read in
    PAW grid and wavefunctions read in
 
   number of l-projection  operators is LMAX  =           6
   number of lm-projection operators is LMMAX =          18
 
 POTCAR:    PAW_PBE C 08Apr2002                   
   VRHFIN =C: s2p2                                                                                  
   LEXCH  = PE                                                                                      
   EATOM  =   147.1560 eV,   10.8157 Ry                                                             
                                                                                                    
   TITEL  = PAW_PBE C 08Apr2002                                                                     
   LULTRA =        F    use ultrasoft PP ?                                                          
   IUNSCR =        1    unscreen: 0-lin 1-nonlin 2-no                                               
   RPACOR =    1.200    partial core radius                                                         
   POMASS =   12.011; ZVAL   =    4.000    mass and valenz                                          
   RCORE  =    1.500    outmost cutoff radius                                                       
   RWIGS  =    1.630; RWIGS  =    0.863    wigner-seitz radius (au A)                               
   ENMAX  =  400.000; ENMIN  =  300.000 eV                                                          
   ICORE  =        2    local potential                                                             
   LCOR   =        T    correct aug charges                                                         
   LPAW   =        T    paw PP                                                                      
   EAUG   =  644.873                                                                                
   DEXC   =    0.000                                                                                
   RMAX   =    1.529    core radius for proj-oper                                                   
   RAUG   =    1.300    factor for augmentation sphere                                              
   RDEP   =    1.501    radius for radial grids                                                     
   RDEPT  =    1.300    core radius for aug-charge                                                  
                                                                                                    
   Atomic configuration                                                                             
    4 entries                                                                                       
     n  l   j            E        occ.                                                              
     1  0  0.50      -273.3789   2.0000                                                             
     2  0  0.50       -13.7508   2.0000                                                             
     2  1  0.50        -5.2854   2.0000                                                             
     3  2  1.50        -5.4423   0.0000                                                             
   Description                                                                                      
     l       E           TYP  RCUT    TYP  RCUT                                                     
     0    -13.7508458     23  1.200                                                                 
     0     -8.2022199     23  1.200                                                                 
     1     -5.2854383     23  1.500                                                                 
     1     34.0145650     23  1.500                                                                 
     2     -5.4423304      7  1.500                                                                 
  local pseudopotential read in
  partial core-charges read in
  partial kinetic energy density read in
  atomic valenz-charges read in
  non local Contribution for L=           0  read in
    real space projection operators read in
  non local Contribution for L=           0  read in
    real space projection operators read in
  non local Contribution for L=           1  read in
    real space projection operators read in
  non local Contribution for L=           1  read in
    real space projection operators read in
    PAW grid and wavefunctions read in
 
   number of l-projection  operators is LMAX  =           4
   number of lm-projection operators is LMMAX =           8
 
 POTCAR:    PAW_PBE O 08Apr2002                   
   VRHFIN =O: s2p4                                                                                  
   LEXCH  = PE                                                                                      
   EATOM  =   432.3788 eV,   31.7789 Ry                                                             
                                                                                                    
   TITEL  = PAW_PBE O 08Apr2002                                                                     
   LULTRA =        F    use ultrasoft PP ?                                                          
   IUNSCR =        1    unscreen: 0-lin 1-nonlin 2-no                                               
   RPACOR =    1.200    partial core radius                                                         
   POMASS =   16.000; ZVAL   =    6.000    mass and valenz                                          
   RCORE  =    1.520    outmost cutoff radius                                                       
   RWIGS  =    1.550; RWIGS  =    0.820    wigner-seitz radius (au A)                               
   ENMAX  =  400.000; ENMIN  =  300.000 eV                                                          
   ICORE  =        2    local potential                                                             
   LCOR   =        T    correct aug charges                                                         
   LPAW   =        T    paw PP                                                                      
   EAUG   =  605.392                                                                                
   DEXC   =    0.000                                                                                
   RMAX   =    1.553    core radius for proj-oper                                                   
   RAUG   =    1.300    factor for augmentation sphere                                              
   RDEP   =    1.550    radius for radial grids                                                     
   RDEPT  =    1.329    core radius for aug-charge                                                  
                                                                                                    
   Atomic configuration                                                                             
    4 entries                                                                                       
     n  l   j            E        occ.                                                              
     1  0  0.50      -514.6923   2.0000                                                             
     2  0  0.50       -23.9615   2.0000                                                             
     2  1  0.50        -9.0305   4.0000                                                             
     3  2  1.50        -9.5241   0.0000                                                             
   Description                                                                                      
     l       E           TYP  RCUT    TYP  RCUT                                                     
     0    -23.9615318     23  1.200                                                                 
     0     -9.5240782     23  1.200                                                                 
     1     -9.0304911     23  1.520                                                                 
     1      8.1634956     23  1.520                                                                 
     2     -9.5240782      7  1.500                                                                 
  local pseudopotential read in
  partial core-charges read in
  partial kinetic energy density read in
  kinetic energy density of atom read in
  atomic valenz-charges read in
  non local Contribution for L=           0  read in
    real space projection operators read in
  non local Contribution for L=           0  read in
    real space projection operators read in
  non local Contribution for L=           1  read in
    real space projection operators read in
  non local Contribution for L=           1  read in
    real space projection operators read in
    PAW grid and wavefunctions read in
 
   number of l-projection  operators is LMAX  =           4
   number of lm-projection operators is LMMAX =           8
 
 POTCAR:    PAW_PBE H 15Jun2001                   
   VRHFIN =H: ultrasoft test                                                                        
   LEXCH  = PE                                                                                      
   EATOM  =    12.4884 eV,    0.9179 Ry                                                             
                                                                                                    
   TITEL  = PAW_PBE H 15Jun2001                                                                     
   LULTRA =        F    use ultrasoft PP ?                                                          
   IUNSCR =        0    unscreen: 0-lin 1-nonlin 2-no                                               
   RPACOR =    0.000    partial core radius                                                         
   POMASS =    1.000; ZVAL   =    1.000    mass and valenz                                          
   RCORE  =    1.100    outmost cutoff radius                                                       
   RWIGS  =    0.700; RWIGS  =    0.370    wigner-seitz radius (au A)                               
   ENMAX  =  250.000; ENMIN  =  200.000 eV                                                          
   RCLOC  =    0.701    cutoff for local pot                                                        
   LCOR   =        T    correct aug charges                                                         
   LPAW   =        T    paw PP                                                                      
   EAUG   =  400.000                                                                                
   RMAX   =    1.123    core radius for proj-oper                                                   
   RAUG   =    1.200    factor for augmentation sphere                                              
   RDEP   =    1.112    radius for radial grids                                                     
   RDEPT  =    0.926    core radius for aug-charge                                                  
                                                                                                    
   Atomic configuration                                                                             
    2 entries                                                                                       
     n  l   j            E        occ.                                                              
     1  0  0.50        -6.4927   1.0000                                                             
     2  1  0.50        -3.4015   0.0000                                                             
   Description                                                                                      
     l       E           TYP  RCUT    TYP  RCUT                                                     
     0     -6.4927494     23  1.100                                                                 
     0      6.8029130     23  1.100                                                                 
     1     -4.0817478     23  1.100                                                                 
  local pseudopotential read in
  atomic valenz-charges read in
  non local Contribution for L=           0  read in
    real space projection operators read in
  non local Contribution for L=           0  read in
    real space projection operators read in
  non local Contribution for L=           1  read in
    real space projection operators read in
    PAW grid and wavefunctions read in
 
   number of l-projection  operators is LMAX  =           3
   number of lm-projection operators is LMMAX =           5
 
 Optimization of the real space projectors (new method)

 maximal supplied QI-value         = 15.12
 optimisation between [QCUT,QGAM] = [ 11.34, 22.83] = [ 36.00,145.93] Ry 
 Optimized for a Real-space Cutoff    1.39 Angstroem

   l    n(q)    QCUT    max X(q) W(low)/X(q) W(high)/X(q)  e(spline) 
   2      9    11.338    60.898    0.39E-03    0.42E-03    0.21E-06
   2      9    11.338    58.894    0.40E-03    0.42E-03    0.22E-06
   0      9    11.338   109.617    0.13E-03    0.20E-04    0.13E-06
   0      9    11.338    75.026    0.13E-03    0.20E-04    0.13E-06
   1      9    11.338    16.344    0.33E-04    0.24E-03    0.18E-06
   1      9    11.338    10.160    0.26E-04    0.19E-03    0.15E-06
 Optimization of the real space projectors (new method)

 maximal supplied QI-value         = 14.36
 optimisation between [QCUT,QGAM] = [ 11.35, 22.84] = [ 36.05,146.02] Ry 
 Optimized for a Real-space Cutoff    1.47 Angstroem

   l    n(q)    QCUT    max X(q) W(low)/X(q) W(high)/X(q)  e(spline) 
   2      9    11.346    59.108    0.74E-04    0.81E-04    0.26E-06
   2      9    11.346    58.101    0.74E-04    0.83E-04    0.27E-06
   0     10    11.346   102.235    0.26E-04    0.31E-04    0.16E-06
   0     10    11.346    58.388    0.23E-04    0.29E-04    0.15E-06
   1     10    11.346    22.191    0.23E-03    0.26E-03    0.14E-06
   1     10    11.346    15.590    0.19E-03    0.22E-03    0.12E-06
 Optimization of the real space projectors (new method)

 maximal supplied QI-value         = 25.13
 optimisation between [QCUT,QGAM] = [ 11.31, 22.87] = [ 35.82,146.48] Ry 
 Optimized for a Real-space Cutoff    1.00 Angstroem

   l    n(q)    QCUT    max X(q) W(low)/X(q) W(high)/X(q)  e(spline) 
   0      7    11.310   115.676    0.43E-03    0.13E-02    0.19E-06
   0      7    11.310    87.132    0.43E-03    0.13E-02    0.18E-06
   1      6    11.310     4.429    0.42E-03    0.74E-03    0.11E-06
   1      6    11.310     2.733    0.34E-03    0.55E-03    0.92E-07
 Optimization of the real space projectors (new method)

 maximal supplied QI-value         = 24.76
 optimisation between [QCUT,QGAM] = [ 11.39, 22.77] = [ 36.31,145.25] Ry 
 Optimized for a Real-space Cutoff    1.00 Angstroem

   l    n(q)    QCUT    max X(q) W(low)/X(q) W(high)/X(q)  e(spline) 
   0      7    11.387    20.381    0.39E-03    0.13E-02    0.15E-06
   0      7    11.387    15.268    0.42E-03    0.14E-02    0.17E-06
   1      6    11.387     5.964    0.41E-03    0.11E-02    0.17E-06
   1      6    11.387     5.382    0.39E-03    0.87E-03    0.15E-06
 Optimization of the real space projectors (new method)

 maximal supplied QI-value         = 34.20
 optimisation between [QCUT,QGAM] = [ 11.29, 22.57] = [ 35.68,142.71] Ry 
 Optimized for a Real-space Cutoff    1.16 Angstroem

   l    n(q)    QCUT    max X(q) W(low)/X(q) W(high)/X(q)  e(spline) 
   0      8    11.287    19.460    0.40E-03    0.73E-03    0.16E-06
   0      8    11.287    12.209    0.38E-03    0.70E-03    0.15E-06
   1      7    11.287     4.655    0.22E-03    0.25E-04    0.22E-06
  PAW_PBE Au 04Oct2007                  :
 energy of atom  1       EATOM= -926.0867
 kinetic energy error for atom=    0.0042 (will be added to EATOM!!)
  PAW_PBE Pd 04Jan2005                  :
 energy of atom  2       EATOM= -809.7530
 kinetic energy error for atom=    0.0049 (will be added to EATOM!!)
  PAW_PBE C 08Apr2002                   :
 energy of atom  3       EATOM= -147.1560
 kinetic energy error for atom=    0.0076 (will be added to EATOM!!)
  PAW_PBE O 08Apr2002                   :
 energy of atom  4       EATOM= -432.3788
 kinetic energy error for atom=    0.0224 (will be added to EATOM!!)
  PAW_PBE H 15Jun2001                   :
 energy of atom  5       EATOM=  -12.4884
 kinetic energy error for atom=    0.0020 (will be added to EATOM!!)
 
 
 POSCAR: Au-Pd-COH
  positions in direct lattice
  velocities in cartesian coordinates
 exchange correlation table for  LEXCH =        8
   RHO(1)=    0.500       N(1)  =     2000
   RHO(2)=  100.500       N(2)  =     4000

 VTST: version 3.2, (02/03/18)

 CHAIN: initializing optimizer
 
 OPT: Using VASP Conjugate-Gradient optimizer
 CHAIN: Read ICHAIN            0
 
 POSCAR: Au-Pd-COH
  positions in direct lattice
  velocities in cartesian coordinates
 


--------------------------------------------------------------------------------------------------------


 ion  position               nearest neighbor table
   1  0.000  0.000  0.197-  16 2.94  12 2.94   6 2.94   8 2.94   7 2.94   3 2.94  10 2.94   4 2.94
                             2 2.94
   2  0.333  0.000  0.197-   9 2.94  11 2.94  17 2.94  10 2.94   8 2.94   4 2.94   5 2.94   1 2.94
                             3 2.94
   3  0.667  0.000  0.197-   7 2.94  18 2.94  12 2.94   1 2.94  11 2.94   5 2.94   6 2.94   9 2.94
                             2 2.94
   4  0.000  0.333  0.197-  10 2.94   6 2.94   5 2.94  13 2.94   2 2.94  15 2.94   9 2.94   1 2.94
                             7 2.94
   5  0.333  0.333  0.197-  13 2.94   7 2.94  11 2.94   4 2.94   2 2.94  14 2.94   3 2.94   8 2.94
                             6 2.94
   6  0.667  0.333  0.197-  15 2.94  14 2.94   1 2.94  12 2.94   4 2.94   9 2.94   8 2.94   3 2.94
                             5 2.94
   7  0.000  0.667  0.197-  18 2.94   3 2.94  16 2.94   5 2.94   1 2.94  13 2.94   8 2.94   4 2.94
                             9 2.94
   8  0.333  0.667  0.197-   9 2.94  17 2.94   1 2.94   2 2.94  14 2.94  16 2.94   6 2.94   7 2.94
                             5 2.94
   9  0.667  0.667  0.197-   2 2.94   8 2.94  17 2.94   6 2.94  15 2.94   4 2.94   3 2.94  18 2.94
                             7 2.94
  10  0.111  0.111  0.287-  26 2.92  19 2.92  20 2.93  11 2.94  17 2.94   2 2.94   4 2.94   1 2.94
                            12 2.94  16 2.94  13 2.94  15 2.94
  11  0.444  0.111  0.287-  27 2.93  20 2.93  21 2.93  13 2.94   2 2.94  10 2.94  17 2.94   5 2.94
                             3 2.94  18 2.94  14 2.94  12 2.94
  12  0.778  0.111  0.287-  25 2.92  19 2.92  21 2.93  16 2.94  18 2.94   1 2.94  14 2.94  15 2.94
                             3 2.94   6 2.94  10 2.94  11 2.94
  13  0.111  0.444  0.287-  22 2.93  23 2.93  20 2.93   5 2.94  18 2.94  11 2.94   7 2.94   4 2.94
                            16 2.94  10 2.94  14 2.94  15 2.94
  14  0.444  0.444  0.287-  24 2.93  21 2.93  23 2.93  15 2.94   6 2.94  12 2.94   8 2.94  17 2.94
                             5 2.94  16 2.94  13 2.94  11 2.94
  15  0.778  0.444  0.287-  19 2.93  24 2.93  22 2.93  14 2.94   6 2.94  17 2.94  12 2.94   9 2.94
                             4 2.94  10 2.94  13 2.94  18 2.94
  16  0.111  0.778  0.287-  25 2.92  26 2.92  23 2.93  18 2.94  12 2.94   7 2.94   1 2.94   8 2.94
                            13 2.94  10 2.94  14 2.94  17 2.94
  17  0.444  0.778  0.287-  26 2.93  27 2.93  24 2.93   9 2.94  15 2.94   2 2.94  10 2.94  11 2.94
                             8 2.94  14 2.94  16 2.94  18 2.94
  18  0.778  0.778  0.287-  25 2.93  22 2.93  27 2.93  16 2.94   7 2.94  13 2.94  12 2.94   3 2.94
                            11 2.94   9 2.94  15 2.94  17 2.94
  19  0.889  0.222  0.376-  10 2.92  12 2.92  15 2.93  26 2.93  25 2.93  21 2.94  20 2.94  24 2.94
                            22 2.94  28 2.96  32 2.97  31 2.97
  20  0.222  0.222  0.376-  36 2.83  10 2.93  11 2.93  13 2.93  26 2.94  19 2.94  27 2.94  22 2.94
                            23 2.94  21 2.94  29 2.95  31 2.95
  21  0.556  0.222  0.376-  36 2.83  12 2.93  14 2.93  11 2.93  25 2.94  19 2.94  24 2.94  27 2.94
                            20 2.94  23 2.94  30 2.95  32 2.95
  22  0.889  0.556  0.376-  18 2.93  15 2.93  13 2.93  24 2.94  27 2.94  23 2.94  20 2.94  25 2.94
                            19 2.94  33 2.96  31 2.96  35 2.96
  23  0.222  0.556  0.376-  36 2.83  16 2.93  13 2.93  14 2.93  25 2.94  26 2.94  22 2.94  24 2.94
                            20 2.94  21 2.94  33 2.95  34 2.95
  24  0.556  0.556  0.376-  15 2.93  17 2.93  14 2.93  27 2.94  22 2.94  21 2.94  23 2.94  26 2.94
                            19 2.94  32 2.96  34 2.96  35 2.96
  25  0.889  0.889  0.376-  16 2.92  12 2.92  18 2.93  19 2.93  26 2.93  23 2.94  21 2.94  22 2.94
                            27 2.94  28 2.96  33 2.97  30 2.97
  26  0.222  0.889  0.376-  10 2.92  16 2.92  17 2.93  19 2.93  25 2.93  20 2.94  23 2.94  27 2.94
                            24 2.94  28 2.96  29 2.97  34 2.97
  27  0.556  0.889  0.376-  17 2.93  18 2.93  11 2.93  24 2.94  22 2.94  20 2.94  21 2.94  26 2.94
                            25 2.94  29 2.96  30 2.96  35 2.96
  28  0.000  0.000  0.467-  34 2.94  32 2.94  33 2.94  30 2.94  31 2.94  29 2.94  25 2.96  19 2.96
                            26 2.96
  29  0.333  0.001  0.467-  30 2.93  31 2.93  36 2.93  35 2.94  28 2.94  20 2.95  34 2.95  27 2.96
                            26 2.97
  30  0.666  0.001  0.467-  29 2.93  32 2.93  36 2.93  35 2.94  28 2.94  21 2.95  33 2.95  27 2.96
                            25 2.97
  31  0.001  0.333  0.467-  33 2.93  29 2.93  36 2.93  35 2.94  28 2.94  20 2.95  32 2.95  22 2.96
                            19 2.97
  32  0.666  0.333  0.467-  34 2.93  30 2.93  36 2.93  35 2.94  28 2.94  21 2.95  31 2.95  24 2.96
                            19 2.97
  33  0.001  0.666  0.467-  31 2.93  34 2.93  36 2.93  35 2.94  28 2.94  23 2.95  30 2.95  22 2.96
                            25 2.97
  34  0.333  0.666  0.467-  32 2.93  33 2.93  36 2.93  35 2.94  28 2.94  23 2.95  29 2.95  24 2.96
                            26 2.97
  35  0.667  0.667  0.467-  29 2.94  34 2.94  32 2.94  31 2.94  30 2.94  33 2.94  24 2.96  27 2.96
                            22 2.96
  36  0.333  0.333  0.461-  37 1.81  20 2.83  23 2.83  21 2.83  33 2.93  31 2.93  29 2.93  30 2.93
                            34 2.93  32 2.93
  37  0.333  0.333  0.529-  38 1.24  36 1.81
  38  0.333  0.333  0.575-  39 0.97  37 1.24
  39  0.333  0.333  0.612-  38 0.97
 
  LATTYP: Found a hexagonal cell.
 ALAT       =     8.8135128021
 C/A-ratio  =     3.0356784858
  
  Lattice vectors:
  
 A1 = (  -4.4067569092,  -7.6327256898,   0.0000000000)
 A2 = (   8.8135128021,   0.0000000000,   0.0000000000)
 A3 = (   0.0000000000,   0.0000000000,  26.7549911976)


Analysis of symmetry for initial positions (statically):
=====================================================================
 Subroutine PRICEL returns:
 Original cell was already a primitive cell.
 

 Routine SETGRP: Setting up the symmetry group for a 
 hexagonal supercell.


 Subroutine GETGRP returns: Found  6 space group operations
 (whereof  6 operations were pure point group operations)
 out of a pool of 24 trial point group operations.


The static configuration has the point symmetry C_3v.


Analysis of symmetry for dynamics (positions and initial velocities):
=====================================================================
 Subroutine PRICEL returns:
 Original cell was already a primitive cell.
 

 Routine SETGRP: Setting up the symmetry group for a 
 hexagonal supercell.


 Subroutine GETGRP returns: Found  6 space group operations
 (whereof  6 operations were pure point group operations)
 out of a pool of 24 trial point group operations.


The dynamic configuration has the point symmetry C_3v.


Analysis of constrained symmetry for selective dynamics:
=====================================================================
 Subroutine PRICEL returns:
 Original cell was already a primitive cell.
 

 Routine SETGRP: Setting up the symmetry group for a 
 hexagonal supercell.


 Subroutine GETGRP returns: Found  6 space group operations
 (whereof  6 operations were pure point group operations)
 out of a pool of 24 trial point group operations.


The constrained configuration has the point symmetry C_3v.


 Subroutine INISYM returns: Found  6 space group operations
 (whereof  6 operations are pure point group operations),
 and found     1 'primitive' translations


----------------------------------------------------------------------------------------

                                     Primitive cell                                     

  volume of cell :    1799.8384

  direct lattice vectors                    reciprocal lattice vectors
     8.813512802  0.000000000  0.000000000     0.113462137 -0.065507406  0.000000000
     4.406756909  7.632725690  0.000000000     0.000000000  0.131014796  0.000000000
     0.000000000  0.000000000 26.754991198     0.000000000  0.000000000  0.037376204

  length of vectors
     8.813512802  8.813512802 26.754991198     0.131014796  0.131014796  0.037376204

  position of ions in fractional coordinates (direct lattice)
     0.000000000  0.000000000  0.197360556
     0.333333343  0.000000000  0.197360556
     0.666666687  0.000000000  0.197360556
     0.000000000  0.333333343  0.197360556
     0.333333313  0.333333343  0.197360556
     0.666666687  0.333333343  0.197360556
     0.000000000  0.666666687  0.197360556
     0.333333343  0.666666687  0.197360556
     0.666666627  0.666666687  0.197360556
     0.111111119  0.111111112  0.287016131
     0.444444418  0.111111112  0.287016131
     0.777777791  0.111111112  0.287016131
     0.111111127  0.444444448  0.287016131
     0.444444478  0.444444448  0.287016131
     0.777777731  0.444444448  0.287016131
     0.111111090  0.777777791  0.287016131
     0.444444448  0.777777791  0.287016131
     0.777777851  0.777777791  0.287016131
     0.889096781  0.221806453  0.376109578
     0.222138768  0.222138753  0.376406035
     0.555722525  0.222138753  0.376406035
     0.888823131  0.555588464  0.376402202
     0.222138723  0.555722525  0.376406035
     0.555588464  0.555588464  0.376402202
     0.889096781  0.889096781  0.376109578
     0.221806483  0.889096781  0.376109578
     0.555588404  0.888823131  0.376402202
     0.000000000  0.000000000  0.466962803
     0.333446929  0.000866645  0.466887401
     0.665686455  0.000866645  0.466887401
     0.000866645  0.333446929  0.466887401
     0.665686455  0.333446929  0.466887401
     0.000866645  0.665686455  0.466887401
     0.333446929  0.665686455  0.466887401
     0.666666627  0.666666687  0.467119659
     0.333333313  0.333333343  0.461256536
     0.333333313  0.333333343  0.528820557
     0.333333313  0.333333343  0.575214177
     0.333333313  0.333333343  0.611548532

  ion indices of the primitive-cell ions
   primitive index   ion index
                 1           1
                 2           2
                 3           3
                 4           4
                 5           5
                 6           6
                 7           7
                 8           8
                 9           9
                10          10
                11          11
                12          12
                13          13
                14          14
                15          15
                16          16
                17          17
                18          18
                19          19
                20          20
                21          21
                22          22
                23          23
                24          24
                25          25
                26          26
                27          27
                28          28
                29          29
                30          30
                31          31
                32          32
                33          33
                34          34
                35          35
                36          36
                37          37
                38          38
                39          39

----------------------------------------------------------------------------------------

 
 
 KPOINTS: Automatic mesh                          

Automatic generation of k-mesh.
 Grid dimensions read from file:
 generate k-points for:    8    8    1

 Generating k-lattice:

  Cartesian coordinates                     Fractional coordinates (reciprocal lattice)
     0.014182767 -0.008188426  0.000000000     0.125000000  0.000000000  0.000000000
     0.000000000  0.016376850  0.000000000     0.000000000  0.125000000  0.000000000
     0.000000000  0.000000000  0.037376204     0.000000000  0.000000000  1.000000000

  Length of vectors
     0.016376850  0.016376850  0.037376204

  Shift w.r.t. Gamma in fractional coordinates (k-lattice)
     0.000000000  0.000000000  0.000000000

 TETIRR: Found     36 inequivalent tetrahedra from      384
 
 Subroutine IBZKPT returns following result:
 ===========================================
 
 Found     10 irreducible k-points:
 
 Following reciprocal coordinates:
            Coordinates               Weight
  0.000000  0.000000  0.000000      1.000000
  0.125000  0.000000  0.000000      6.000000
  0.250000  0.000000  0.000000      6.000000
  0.375000  0.000000  0.000000      6.000000
  0.500000  0.000000  0.000000      3.000000
  0.250000  0.125000  0.000000      6.000000
  0.375000  0.125000  0.000000     12.000000
  0.500000  0.125000  0.000000     12.000000
  0.500000  0.250000  0.000000      6.000000
 -0.375000  0.250000  0.000000      6.000000
 
 Following cartesian coordinates:
            Coordinates               Weight
  0.000000  0.000000  0.000000      1.000000
  0.014183 -0.008188  0.000000      6.000000
  0.028366 -0.016377  0.000000      6.000000
  0.042548 -0.024565  0.000000      6.000000
  0.056731 -0.032754  0.000000      3.000000
  0.028366 -0.000000  0.000000      6.000000
  0.042548 -0.008188  0.000000     12.000000
  0.056731 -0.016377  0.000000     12.000000
  0.056731 -0.000000  0.000000      6.000000
 -0.042548  0.057319  0.000000      6.000000
 


--------------------------------------------------------------------------------------------------------




 Dimension of arrays:
   k-points           NKPTS =     10   k-points in BZ     NKDIM =     10   number of bands    NBANDS=    252
   number of dos      NEDOS =    301   number of ions     NIONS =     39
   non local maximal  LDIM  =      6   non local SUM 2l+1 LMDIM =     18
   total plane-waves  NPLWV = 345600
   max r-space proj   IRMAX =   2627   max aug-charges    IRDMAX=  11941
   dimension x,y,z NGX =    48 NGY =   48 NGZ =  150
   dimension x,y,z NGXF=    96 NGYF=   96 NGZF=  300
   support grid    NGXF=    96 NGYF=   96 NGZF=  300
   ions per type =              35   1   1   1   1
   NGX,Y,Z   is equivalent  to a cutoff of   9.05,  9.05,  9.32 a.u.
   NGXF,Y,Z  is equivalent  to a cutoff of  18.11, 18.11, 18.64 a.u.

 SYSTEM =  unknown system                          
 POSCAR =  Au-Pd-COH                               

 Startparameter for this run:
   NWRITE =      2    write-flag & timer
   PREC   = normal    normal or accurate (medium, high low for compatibility)
   ISTART =      0    job   : 0-new  1-cont  2-samecut
   ICHARG =     11    charge: 1-file 2-atom 10-const
   ISPIN  =      1    spin polarized calculation?
   LNONCOLLINEAR =      F non collinear calculations
   LSORBIT =      F    spin-orbit coupling
   INIWAV =      1    electr: 0-lowe 1-rand  2-diag
   LASPH  =      F    aspherical Exc in radial PAW
   METAGGA=      F    non-selfconsistent MetaGGA calc.

 Electronic Relaxation 1
   ENCUT  =  500.0 eV  36.75 Ry    6.06 a.u.  16.07 16.07 48.78*2*pi/ulx,y,z
   ENINI  =  500.0     initial cutoff
   ENAUG  =  644.9 eV  augmentation charge cutoff
   NELM   =    150;   NELMIN=  2; NELMDL= -5     # of ELM steps 
   EDIFF  = 0.1E-04   stopping-criterion for ELM
   LREAL  =      T    real-space projection
   NLSPLINE    = F    spline interpolate recip. space projectors
   LCOMPAT=      F    compatible to vasp.4.4
   GGA_COMPAT  = T    GGA compatible to vasp.4.4-vasp.4.6
   LMAXPAW     = -100 max onsite density
   LMAXMIX     =    2 max onsite mixed and CHGCAR
   VOSKOWN=      0    Vosko Wilk Nusair interpolation
   ROPT   =   -0.00050  -0.00050  -0.00050  -0.00050
   ROPT   =   -0.00050
 Ionic relaxation
   EDIFFG = -.1E-01   stopping-criterion for IOM
   NSW    =      0    number of steps for IOM
   NBLOCK =      1;   KBLOCK =      1    inner block; outer block 
   IBRION =     -1    ionic relax: 0-MD 1-quasi-New 2-CG
   NFREE  =      1    steps in history (QN), initial steepest desc. (CG)
   ISIF   =      2    stress and relaxation
   IWAVPR =     10    prediction:  0-non 1-charg 2-wave 3-comb
   ISYM   =      2    0-nonsym 1-usesym 2-fastsym
   LCORR  =      T    Harris-Foulkes like correction to forces

   POTIM  = 0.5000    time-step for ionic-motion
   TEIN   =    0.0    initial temperature
   TEBEG  =    0.0;   TEEND  =   0.0 temperature during run
   SMASS  =  -3.00    Nose mass-parameter (am)
   estimated Nose-frequenzy (Omega)   =  0.10E-29 period in steps = 0.13E+47 mass=  -0.178E-26a.u.
   SCALEE = 1.0000    scale energy and forces
   NPACO  =    256;   APACO  = 16.0  distance and # of slots for P.C.
   PSTRESS=    0.0 pullay stress

  Mass of Ions in am
   POMASS = 196.97106.42 12.01 16.00  1.00
  Ionic Valenz
   ZVAL   =  11.00 10.00  4.00  6.00  1.00
  Atomic Wigner-Seitz radii
   RWIGS  =  -1.00 -1.00 -1.00 -1.00 -1.00
  virtual crystal weights 
   VCA    =   1.00  1.00  1.00  1.00  1.00
   NELECT =     406.0000    total number of electrons
   NUPDOWN=      -1.0000    fix difference up-down

 DOS related values:
   EMIN   =  10.00;   EMAX   =-10.00  energy-range for DOS
   EFERMI =   0.00
   ISMEAR =    -5;   SIGMA  =   0.10  broadening in eV -4-tet -1-fermi 0-gaus

 Electronic relaxation 2 (details)
   IALGO  =     68    algorithm
   LDIAG  =      T    sub-space diagonalisation (order eigenvalues)
   LSUBROT=      F    optimize rotation matrix (better conditioning)
   TURBO    =      0    0=normal 1=particle mesh
   IRESTART =      0    0=no restart 2=restart with 2 vectors
   NREBOOT  =      0    no. of reboots
   NMIN     =      0    reboot dimension
   EREF     =   0.00    reference energy to select bands
   IMIX   =      4    mixing-type and parameters
     AMIX     =   0.40;   BMIX     =  1.00
     AMIX_MAG =   1.60;   BMIX_MAG =  1.00
     AMIN     =   0.10
     WC   =   100.;   INIMIX=   1;  MIXPRE=   1;  MAXMIX= -45

 Intra band minimization:
   WEIMIN = 0.0000     energy-eigenvalue tresh-hold
   EBREAK =  0.99E-08  absolut break condition
   DEPER  =   0.30     relativ break condition  

   TIME   =   0.40     timestep for ELM

  volume/ion in A,a.u.               =      46.15       311.43
  Fermi-wavevector in a.u.,A,eV,Ry     =   0.996565  1.883235 13.512517  0.993142
  Thomas-Fermi vector in A             =   2.128662
 
 Write flags
   LWAVE        =      F    write WAVECAR
   LDOWNSAMPLE  =      F    k-point downsampling of WAVECAR
   LCHARG       =      F    write CHGCAR
   LVTOT        =      F    write LOCPOT, total local potential
   LVHAR        =      F    write LOCPOT, Hartree potential only
   LELF         =      F    write electronic localiz. function (ELF)
   LORBIT       =     10    0 simple, 1 ext, 2 COOP (PROOUT), +10 PAW based schemes


 Dipole corrections
   LMONO  =      F    monopole corrections only (constant potential shift)
   LDIPOL =      F    correct potential (dipole corrections)
   IDIPOL =      0    1-x, 2-y, 3-z, 4-all directions 
   EPSILON=  1.0000000 bulk dielectric constant

 Exchange correlation treatment:
   GGA     =    --    GGA type
   LEXCH   =     8    internal setting for exchange type
   VOSKOWN=      0    Vosko Wilk Nusair interpolation
   LHFCALC =     F    Hartree Fock is set to
   LHFONE  =     F    Hartree Fock one center treatment
   AEXX    =    0.0000 exact exchange contribution

 Linear response parameters
   LEPSILON=     F    determine dielectric tensor
   LRPA    =     F    only Hartree local field effects (RPA)
   LNABLA  =     F    use nabla operator in PAW spheres
   LVEL    =     F    velocity operator in full k-point grid
   LINTERFAST=   F  fast interpolation
   KINTER  =     0    interpolate to denser k-point grid
   CSHIFT  =0.1000    complex shift for real part using Kramers Kronig
   OMEGAMAX=  -1.0    maximum frequency
   DEG_THRESHOLD= 0.2000000E-02 threshold for treating states as degnerate
   RTIME   =   -0.100 relaxation time in fs
  (WPLASMAI=    0.000 imaginary part of plasma frequency in eV, 0.658/RTIME)
   DFIELD  = 0.0000000 0.0000000 0.0000000 field for delta impulse in time
 
 Orbital magnetization related:
   ORBITALMAG=     F  switch on orbital magnetization
   LCHIMAG   =     F  perturbation theory with respect to B field
   DQ        =  0.001000  dq finite difference perturbation B field
   LLRAUG    =     F  two centre corrections for induced B field



--------------------------------------------------------------------------------------------------------


 Static calculation
 charge density and potential remain constant during run
 non-spin polarized calculation
 RMM-DIIS sequential band-by-band and
  variant of blocked Davidson during initial phase
 perform sub-space diagonalisation
    before iterative eigenvector-optimisation
 no mixing
 using additional bands           49
 real space projection scheme for non local part
 use partial core corrections
 calculate Harris-corrections to forces 
   (improved forces if not selfconsistent)
 use gradient corrections 
 WARNING: stress and forces are not correct
  (second derivative of E(xc) not defined)
 use of overlap-Matrix (Vanderbilt PP)
 Fermi weights with tetrahedron method with Bloechl corrections


--------------------------------------------------------------------------------------------------------


  energy-cutoff  :      500.00
  volume of cell :     1799.84
      direct lattice vectors                 reciprocal lattice vectors
     8.813512802  0.000000000  0.000000000     0.113462137 -0.065507406  0.000000000
     4.406756909  7.632725690  0.000000000     0.000000000  0.131014796  0.000000000
     0.000000000  0.000000000 26.754991198     0.000000000  0.000000000  0.037376204

  length of vectors
     8.813512802  8.813512802 26.754991198     0.131014796  0.131014796  0.037376204


 
 k-points in units of 2pi/SCALE and weight: Automatic mesh                          
   0.00000000  0.00000000  0.00000000       0.016
   0.01418277 -0.00818843  0.00000000       0.094
   0.02836553 -0.01637685  0.00000000       0.094
   0.04254830 -0.02456528  0.00000000       0.094
   0.05673107 -0.03275370  0.00000000       0.047
   0.02836553 -0.00000000  0.00000000       0.094
   0.04254830 -0.00818843  0.00000000       0.188
   0.05673107 -0.01637685  0.00000000       0.188
   0.05673107 -0.00000000  0.00000000       0.094
  -0.04254830  0.05731898  0.00000000       0.094
 
 k-points in reciprocal lattice and weights: Automatic mesh                          
   0.00000000  0.00000000  0.00000000       0.016
   0.12500000  0.00000000  0.00000000       0.094
   0.25000000  0.00000000  0.00000000       0.094
   0.37500000  0.00000000  0.00000000       0.094
   0.50000000  0.00000000  0.00000000       0.047
   0.25000000  0.12500000  0.00000000       0.094
   0.37500000  0.12500000  0.00000000       0.188
   0.50000000  0.12500000  0.00000000       0.188
   0.50000000  0.25000000  0.00000000       0.094
  -0.37500000  0.25000000  0.00000000       0.094
 
 position of ions in fractional coordinates (direct lattice) 
   0.00000000  0.00000000  0.19736056
   0.33333334  0.00000000  0.19736056
   0.66666669  0.00000000  0.19736056
   0.00000000  0.33333334  0.19736056
   0.33333331  0.33333334  0.19736056
   0.66666669  0.33333334  0.19736056
   0.00000000  0.66666669  0.19736056
   0.33333334  0.66666669  0.19736056
   0.66666663  0.66666669  0.19736056
   0.11111112  0.11111111  0.28701613
   0.44444442  0.11111111  0.28701613
   0.77777779  0.11111111  0.28701613
   0.11111113  0.44444445  0.28701613
   0.44444448  0.44444445  0.28701613
   0.77777773  0.44444445  0.28701613
   0.11111109  0.77777779  0.28701613
   0.44444445  0.77777779  0.28701613
   0.77777785  0.77777779  0.28701613
   0.88909678  0.22180645  0.37610958
   0.22213877  0.22213875  0.37640603
   0.55572252  0.22213875  0.37640603
   0.88882313  0.55558846  0.37640220
   0.22213872  0.55572252  0.37640603
   0.55558846  0.55558846  0.37640220
   0.88909678  0.88909678  0.37610958
   0.22180648  0.88909678  0.37610958
   0.55558840  0.88882313  0.37640220
   0.00000000  0.00000000  0.46696280
   0.33344693  0.00086665  0.46688740
   0.66568646  0.00086665  0.46688740
   0.00086665  0.33344693  0.46688740
   0.66568646  0.33344693  0.46688740
   0.00086665  0.66568646  0.46688740
   0.33344693  0.66568646  0.46688740
   0.66666663  0.66666669  0.46711966
   0.33333331  0.33333334  0.46125654
   0.33333331  0.33333334  0.52882056
   0.33333331  0.33333334  0.57521418
   0.33333331  0.33333334  0.61154853
 
 position of ions in cartesian coordinates  (Angst):
   0.00000000  0.00000000  5.28037993
   2.93783769  0.00000000  5.28037993
   5.87567538  0.00000000  5.28037993
   1.46891901  2.54424197  5.28037993
   4.40675643  2.54424197  5.28037993
   7.34459439  2.54424197  5.28037993
   2.93783803  5.08848395  5.28037993
   5.87567571  5.08848395  5.28037993
   8.81351288  5.08848395  5.28037993
   1.46891893  0.84808064  7.67911405
   4.40675623  0.84808064  7.67911405
   7.34459418  0.84808064  7.67911405
   2.93783798  3.39232256  7.67911405
   5.87567574  3.39232256  7.67911405
   8.81351263  3.39232256  7.67911405
   4.40675667  5.93656453  7.67911405
   7.34459449  5.93656453  7.67911405
  10.28243270  5.93656453  7.67911405
   8.81351299  1.69298781 10.06280844
   2.93673436  1.69552416 10.07074015
   5.87677907  1.69552416 10.07074015
  10.28199735  4.24065435 10.07063759
   4.40675655  4.24167759 10.07074015
   7.34502935  4.24065435 10.07063759
  11.75409925  6.78623184 10.06280844
   5.87292766  6.78623184 10.06280844
   8.81351299  6.78414315 10.07063759
   0.00000000  0.00000000 12.49358568
   2.94265787  0.00661487 12.49156830
   5.87085519  0.00661487 12.49156830
   1.47705775  2.54510894 12.49156830
   7.33645566  2.54510894 12.49156830
   2.94115658  5.08100211 12.49156830
   5.87235717  5.08100211 12.49156830
   8.81351288  5.08848395 12.49778238
   4.40675643  2.54424197 12.34091456
   4.40675643  2.54424197 14.14858935
   4.40675643  2.54424197 15.38985024
   4.40675643  2.54424197 16.36197560
 


--------------------------------------------------------------------------------------------------------


 k-point   1 :   0.0000 0.0000 0.0000  plane waves:   45655
 k-point   2 :   0.1250 0.0000 0.0000  plane waves:   45660
 k-point   3 :   0.2500 0.0000 0.0000  plane waves:   45682
 k-point   4 :   0.3750 0.0000 0.0000  plane waves:   45716
 k-point   5 :   0.5000 0.0000 0.0000  plane waves:   45700
 k-point   6 :   0.2500 0.1250 0.0000  plane waves:   45658
 k-point   7 :   0.3750 0.1250 0.0000  plane waves:   45702
 k-point   8 :   0.5000 0.1250 0.0000  plane waves:   45722
 k-point   9 :   0.5000 0.2500 0.0000  plane waves:   45712
 k-point  10 :  -0.3750 0.2500 0.0000  plane waves:   45690

 maximum and minimum number of plane-waves per node :     45722    45655

 maximum number of plane-waves:     45722
 maximum index in each direction: 
   IXMAX=   16   IYMAX=   16   IZMAX=   48
   IXMIN=  -16   IYMIN=  -16   IZMIN=  -48


 serial   3D FFT for wavefunctions
 parallel 3D FFT for charge:
    minimum data exchange during FFTs selected (reduces bandwidth)


 total amount of memory used by VASP MPI-rank0   139594. kBytes
=======================================================================

   base      :      30000. kBytes
   nonlr-proj:      13902. kBytes
   fftplans  :       5150. kBytes
   grid      :      23126. kBytes
   one-center:        606. kBytes
   wavefun   :      66810. kBytes
 
     INWAV:  cpu time    0.0000: real time    0.0000
 initial charge density was supplied:
 number of electron     406.0000064 magnetization 
 keeping initial charge density in first step


--------------------------------------------------------------------------------------------------------


 Maximum index for non-local projection operator         2506
 Maximum index for augmentation-charges          845 (set IRDMAX)


--------------------------------------------------------------------------------------------------------


 First call to EWALD:  gamma=   0.146
 Maximum number of real-space cells 4x 4x 2
 Maximum number of reciprocal cells 2x 2x 5

    FEWALD:  cpu time    0.0014: real time    0.0015


--------------------------------------- Iteration      1(   1)  ---------------------------------------


    POTLOK:  cpu time    0.0554: real time    0.0557
    SETDIJ:  cpu time    0.0048: real time    0.0049
     EDDAV:  cpu time    8.2788: real time    8.2800
 BZINTS: Fermi energy:   10.724753;  406.000000 electrons
         Band energy: 0.139902E+04;  BLOECHL correction:   -0.012172
       DOS:  cpu time    0.0105: real time    0.0105
    --------------------------------------------
      LOOP:  cpu time    8.3495: real time    8.3511

 eigenvalue-minimisations  :  5040
 total energy-change (2. order) : 0.2687400E+04  (-0.1768173E+05)
 number of electron     406.0000064 magnetization 
 augmentation part      406.0000064 magnetization 

 Free energy of the ion-electron system (eV)
  ---------------------------------------------------
  alpha Z        PSCENC =       861.13033304
  Ewald energy   TEWEN  =    165404.85130459
  -Hartree energ DENC   =   -200109.87124166
  -exchange      EXHF   =         0.00000000
  -V(xc)+E(xc)   XCENC  =       532.08683241
  PAW double counting   =     37040.31685747   -36254.76305796
  entropy T*S    EENTRO =         0.00000000
  eigenvalues    EBANDS =      1399.02369181
  atomic energy  EATOM  =     33814.62559222
  Solvation  Ediel_sol  =         0.00000000
  ---------------------------------------------------
  free energy    TOTEN  =      2687.40031191 eV

  energy without entropy =     2687.40031191  energy(sigma->0) =     2687.40031191


--------------------------------------------------------------------------------------------------------




--------------------------------------- Iteration      1(   2)  ---------------------------------------


     EDDAV:  cpu time    9.1830: real time    9.1833
 BZINTS: Fermi energy:    1.244888;  406.000000 electrons
         Band energy:-0.125174E+04;  BLOECHL correction:   -0.087285
       DOS:  cpu time    0.0094: real time    0.0094
    --------------------------------------------
      LOOP:  cpu time    9.1924: real time    9.1927

 eigenvalue-minimisations  :  5740
 total energy-change (2. order) :-0.2650760E+04  (-0.2449886E+04)
 number of electron     406.0000064 magnetization 
 augmentation part      406.0000064 magnetization 

 Free energy of the ion-electron system (eV)
  ---------------------------------------------------
  alpha Z        PSCENC =       861.13033304
  Ewald energy   TEWEN  =    165404.85130459
  -Hartree energ DENC   =   -200109.87124166
  -exchange      EXHF   =         0.00000000
  -V(xc)+E(xc)   XCENC  =       532.08683241
  PAW double counting   =     37040.31685747   -36254.76305796
  entropy T*S    EENTRO =         0.00000000
  eigenvalues    EBANDS =     -1251.73588655
  atomic energy  EATOM  =     33814.62559222
  Solvation  Ediel_sol  =         0.00000000
  ---------------------------------------------------
  free energy    TOTEN  =        36.64073355 eV

  energy without entropy =       36.64073355  energy(sigma->0) =       36.64073355


--------------------------------------------------------------------------------------------------------




--------------------------------------- Iteration      1(   3)  ---------------------------------------


     EDDAV:  cpu time    9.4279: real time    9.4279
 BZINTS: Fermi energy:    0.464902;  406.000000 electrons
         Band energy:-0.141309E+04;  BLOECHL correction:   -0.064400
       DOS:  cpu time    0.0091: real time    0.0091
    --------------------------------------------
      LOOP:  cpu time    9.4370: real time    9.4370

 eigenvalue-minimisations  :  5908
 total energy-change (2. order) :-0.1613510E+03  (-0.1566875E+03)
 number of electron     406.0000064 magnetization 
 augmentation part      406.0000064 magnetization 

 Free energy of the ion-electron system (eV)
  ---------------------------------------------------
  alpha Z        PSCENC =       861.13033304
  Ewald energy   TEWEN  =    165404.85130459
  -Hartree energ DENC   =   -200109.87124166
  -exchange      EXHF   =         0.00000000
  -V(xc)+E(xc)   XCENC  =       532.08683241
  PAW double counting   =     37040.31685747   -36254.76305796
  entropy T*S    EENTRO =         0.00000000
  eigenvalues    EBANDS =     -1413.08683993
  atomic energy  EATOM  =     33814.62559222
  Solvation  Ediel_sol  =         0.00000000
  ---------------------------------------------------
  free energy    TOTEN  =      -124.71021983 eV

  energy without entropy =     -124.71021983  energy(sigma->0) =     -124.71021983


--------------------------------------------------------------------------------------------------------




--------------------------------------- Iteration      1(   4)  ---------------------------------------


     EDDAV:  cpu time    9.0487: real time    9.0488
 BZINTS: Fermi energy:    0.445791;  406.000000 electrons
         Band energy:-0.141664E+04;  BLOECHL correction:   -0.062066
       DOS:  cpu time    0.0102: real time    0.0102
    --------------------------------------------
      LOOP:  cpu time    9.0589: real time    9.0590

 eigenvalue-minimisations  :  5628
 total energy-change (2. order) :-0.3548968E+01  (-0.3535126E+01)
 number of electron     406.0000064 magnetization 
 augmentation part      406.0000064 magnetization 

 Free energy of the ion-electron system (eV)
  ---------------------------------------------------
  alpha Z        PSCENC =       861.13033304
  Ewald energy   TEWEN  =    165404.85130459
  -Hartree energ DENC   =   -200109.87124166
  -exchange      EXHF   =         0.00000000
  -V(xc)+E(xc)   XCENC  =       532.08683241
  PAW double counting   =     37040.31685747   -36254.76305796
  entropy T*S    EENTRO =         0.00000000
  eigenvalues    EBANDS =     -1416.63580785
  atomic energy  EATOM  =     33814.62559222
  Solvation  Ediel_sol  =         0.00000000
  ---------------------------------------------------
  free energy    TOTEN  =      -128.25918775 eV

  energy without entropy =     -128.25918775  energy(sigma->0) =     -128.25918775


--------------------------------------------------------------------------------------------------------




--------------------------------------- Iteration      1(   5)  ---------------------------------------


     EDDAV:  cpu time    9.9894: real time    9.9894
 BZINTS: Fermi energy:    0.445428;  406.000000 electrons
         Band energy:-0.141675E+04;  BLOECHL correction:   -0.061995
       DOS:  cpu time    0.0098: real time    0.0098
    --------------------------------------------
      LOOP:  cpu time    9.9992: real time    9.9992

 eigenvalue-minimisations  :  6328
 total energy-change (2. order) :-0.1130449E+00  (-0.1130441E+00)
 number of electron     406.0000064 magnetization 
 augmentation part      406.0000064 magnetization 

 Free energy of the ion-electron system (eV)
  ---------------------------------------------------
  alpha Z        PSCENC =       861.13033304
  Ewald energy   TEWEN  =    165404.85130459
  -Hartree energ DENC   =   -200109.87124166
  -exchange      EXHF   =         0.00000000
  -V(xc)+E(xc)   XCENC  =       532.08683241
  PAW double counting   =     37040.31685747   -36254.76305796
  entropy T*S    EENTRO =         0.00000000
  eigenvalues    EBANDS =     -1416.74885272
  atomic energy  EATOM  =     33814.62559222
  Solvation  Ediel_sol  =         0.00000000
  ---------------------------------------------------
  free energy    TOTEN  =      -128.37223262 eV

  energy without entropy =     -128.37223262  energy(sigma->0) =     -128.37223262


--------------------------------------------------------------------------------------------------------




--------------------------------------- Iteration      1(   6)  ---------------------------------------


    EDDIAG:  cpu time    1.6593: real time    1.6619
  RMM-DIIS:  cpu time    4.8912: real time    4.8912
    ORTHCH:  cpu time    0.3038: real time    0.3038
 BZINTS: Fermi energy:    0.445426;  406.000000 electrons
         Band energy:-0.141675E+04;  BLOECHL correction:   -0.061995
       DOS:  cpu time    0.0102: real time    0.0102
    --------------------------------------------
      LOOP:  cpu time    6.8645: real time    6.8670

 eigenvalue-minimisations  :  5176
 total energy-change (2. order) :-0.2822328E-02  (-0.2822366E-02)
 number of electron     406.0000064 magnetization 
 augmentation part      406.0000064 magnetization 

 Free energy of the ion-electron system (eV)
  ---------------------------------------------------
  alpha Z        PSCENC =       861.13033304
  Ewald energy   TEWEN  =    165404.85130459
  -Hartree energ DENC   =   -200109.87124166
  -exchange      EXHF   =         0.00000000
  -V(xc)+E(xc)   XCENC  =       532.08683241
  PAW double counting   =     37040.31685747   -36254.76305796
  entropy T*S    EENTRO =         0.00000000
  eigenvalues    EBANDS =     -1416.75167504
  atomic energy  EATOM  =     33814.62559222
  Solvation  Ediel_sol  =         0.00000000
  ---------------------------------------------------
  free energy    TOTEN  =      -128.37505494 eV

  energy without entropy =     -128.37505494  energy(sigma->0) =     -128.37505494


--------------------------------------------------------------------------------------------------------




--------------------------------------- Iteration      1(   7)  ---------------------------------------


    EDDIAG:  cpu time    1.6573: real time    1.6573
  RMM-DIIS:  cpu time    6.6687: real time    6.6687
    ORTHCH:  cpu time    0.3039: real time    0.3039
 BZINTS: Fermi energy:    0.445426;  406.000000 electrons
         Band energy:-0.141675E+04;  BLOECHL correction:   -0.061995
       DOS:  cpu time    0.0102: real time    0.0102
    --------------------------------------------
      LOOP:  cpu time    8.6401: real time    8.6401

 eigenvalue-minimisations  :  7216
 total energy-change (2. order) :-0.1018931E-02  (-0.1016658E-02)
 number of electron     406.0000064 magnetization 
 augmentation part      406.0000064 magnetization 

 Free energy of the ion-electron system (eV)
  ---------------------------------------------------
  alpha Z        PSCENC =       861.13033304
  Ewald energy   TEWEN  =    165404.85130459
  -Hartree energ DENC   =   -200109.87124166
  -exchange      EXHF   =         0.00000000
  -V(xc)+E(xc)   XCENC  =       532.08683241
  PAW double counting   =     37040.31685747   -36254.76305796
  entropy T*S    EENTRO =         0.00000000
  eigenvalues    EBANDS =     -1416.75269398
  atomic energy  EATOM  =     33814.62559222
  Solvation  Ediel_sol  =         0.00000000
  ---------------------------------------------------
  free energy    TOTEN  =      -128.37607387 eV

  energy without entropy =     -128.37607387  energy(sigma->0) =     -128.37607387


--------------------------------------------------------------------------------------------------------




--------------------------------------- Iteration      1(   8)  ---------------------------------------


    EDDIAG:  cpu time    1.6577: real time    1.6577
  RMM-DIIS:  cpu time    5.2415: real time    5.2415
    ORTHCH:  cpu time    0.3038: real time    0.3038
 BZINTS: Fermi energy:    0.445426;  406.000000 electrons
         Band energy:-0.141675E+04;  BLOECHL correction:   -0.061995
       DOS:  cpu time    0.0098: real time    0.0098
    --------------------------------------------
      LOOP:  cpu time    7.2129: real time    7.2129

 eigenvalue-minimisations  :  5640
 total energy-change (2. order) :-0.4128131E-04  (-0.4296834E-04)
 number of electron     406.0000064 magnetization 
 augmentation part      406.0000064 magnetization 

 Free energy of the ion-electron system (eV)
  ---------------------------------------------------
  alpha Z        PSCENC =       861.13033304
  Ewald energy   TEWEN  =    165404.85130459
  -Hartree energ DENC   =   -200109.87124166
  -exchange      EXHF   =         0.00000000
  -V(xc)+E(xc)   XCENC  =       532.08683241
  PAW double counting   =     37040.31685747   -36254.76305796
  entropy T*S    EENTRO =         0.00000000
  eigenvalues    EBANDS =     -1416.75273526
  atomic energy  EATOM  =     33814.62559222
  Solvation  Ediel_sol  =         0.00000000
  ---------------------------------------------------
  free energy    TOTEN  =      -128.37611516 eV

  energy without entropy =     -128.37611516  energy(sigma->0) =     -128.37611516


--------------------------------------------------------------------------------------------------------




--------------------------------------- Iteration      1(   9)  ---------------------------------------


    EDDIAG:  cpu time    1.6571: real time    1.6573
  RMM-DIIS:  cpu time    4.9032: real time    4.9032
    ORTHCH:  cpu time    0.3041: real time    0.3041
 BZINTS: Fermi energy:    0.445426;  406.000000 electrons
         Band energy:-0.141675E+04;  BLOECHL correction:   -0.061995
       DOS:  cpu time    0.0096: real time    0.0096
    --------------------------------------------
      LOOP:  cpu time    6.8740: real time    6.8742

 eigenvalue-minimisations  :  4664
 total energy-change (2. order) :-0.1045089E-04  (-0.1046775E-04)
 number of electron     406.0000064 magnetization 
 augmentation part      406.0000064 magnetization 

 Free energy of the ion-electron system (eV)
  ---------------------------------------------------
  alpha Z        PSCENC =       861.13033304
  Ewald energy   TEWEN  =    165404.85130459
  -Hartree energ DENC   =   -200109.87124166
  -exchange      EXHF   =         0.00000000
  -V(xc)+E(xc)   XCENC  =       532.08683241
  PAW double counting   =     37040.31685747   -36254.76305796
  entropy T*S    EENTRO =         0.00000000
  eigenvalues    EBANDS =     -1416.75274571
  atomic energy  EATOM  =     33814.62559222
  Solvation  Ediel_sol  =         0.00000000
  ---------------------------------------------------
  free energy    TOTEN  =      -128.37612561 eV

  energy without entropy =     -128.37612561  energy(sigma->0) =     -128.37612561


--------------------------------------------------------------------------------------------------------




--------------------------------------- Iteration      1(  10)  ---------------------------------------


    EDDIAG:  cpu time    1.6582: real time    1.6582
  RMM-DIIS:  cpu time    3.6200: real time    3.6199
    ORTHCH:  cpu time    0.3040: real time    0.3040
 BZINTS: Fermi energy:    0.445426;  406.000000 electrons
         Band energy:-0.141675E+04;  BLOECHL correction:   -0.061995
       DOS:  cpu time    0.0098: real time    0.0098
    --------------------------------------------
      LOOP:  cpu time    5.5919: real time    5.5919

 eigenvalue-minimisations  :  3198
 total energy-change (2. order) :-0.8244824E-06  (-0.9335155E-06)
 number of electron     406.0000064 magnetization 
 augmentation part      406.0000064 magnetization 

 Free energy of the ion-electron system (eV)
  ---------------------------------------------------
  alpha Z        PSCENC =       861.13033304
  Ewald energy   TEWEN  =    165404.85130459
  -Hartree energ DENC   =   -200109.87124166
  -exchange      EXHF   =         0.00000000
  -V(xc)+E(xc)   XCENC  =       532.08683241
  PAW double counting   =     37040.31685747   -36254.76305796
  entropy T*S    EENTRO =         0.00000000
  eigenvalues    EBANDS =     -1416.75274653
  atomic energy  EATOM  =     33814.62559222
  Solvation  Ediel_sol  =         0.00000000
  ---------------------------------------------------
  free energy    TOTEN  =      -128.37612643 eV

  energy without entropy =     -128.37612643  energy(sigma->0) =     -128.37612643


--------------------------------------------------------------------------------------------------------




 average (electrostatic) potential at core
  the test charge radii are     1.2098  1.1199  0.6991  0.7215  0.5201
  (the norm of the test charge is              1.0000)
       1 -72.6201       2 -72.5563       3 -72.5562       4 -72.5563       5 -72.5659
       6 -72.5560       7 -72.5562       8 -72.5560       9 -72.5701      10 -72.9092
      11 -72.8822      12 -72.9091      13 -72.8822      14 -72.8821      15 -72.8952
      16 -72.9091      17 -72.8952      18 -72.8952      19 -72.8529      20 -72.9380
      21 -72.9380      22 -72.8902      23 -72.9380      24 -72.8904      25 -72.8527
      26 -72.8529      27 -72.8902      28 -72.5261      29 -72.5267      30 -72.5266
      31 -72.5267      32 -72.5266      33 -72.5266      34 -72.5266      35 -72.4964
      36 -81.1320      37 -58.4215      38 -80.2329      39 -44.0236
 
 
 
 E-fermi :   0.4454     XC(G=0):  -5.2407     alpha+bet : -4.8670

 Fermi energy:         0.4454260859

 k-point     1 :       0.0000    0.0000    0.0000
  band No.  band energies     occupation 
      1     -25.2695      2.00000
      2     -15.7602      2.00000
      3      -8.8289      2.00000
      4      -8.2925      2.00000
      5      -7.9335      2.00000
      6      -7.9333      2.00000
      7      -7.1493      2.00000
      8      -6.2310      2.00000
      9      -6.1874      2.00000
     10      -6.1874      2.00000
     11      -6.1827      2.00000
     12      -6.1733      2.00000
     13      -6.1715      2.00000
     14      -6.1715      2.00000
     15      -6.1073      2.00000
     16      -5.7073      2.00000
     17      -5.7073      2.00000
     18      -5.6965      2.00000
     19      -5.6876      2.00000
     20      -5.6876      2.00000
     21      -5.6535      2.00000
     22      -5.3217      2.00000
     23      -5.3217      2.00000
     24      -5.3185      2.00000
     25      -5.3050      2.00000
     26      -5.3050      2.00000
     27      -5.2972      2.00000
     28      -5.1558      2.00000
     29      -5.1558      2.00000
     30      -5.1440      2.00000
     31      -5.1416      2.00000
     32      -5.1416      2.00000
     33      -5.0738      2.00000
     34      -4.9874      2.00000
     35      -4.9874      2.00000
     36      -4.9735      2.00000
     37      -4.9734      2.00000
     38      -4.9673      2.00000
     39      -4.9672      2.00000
     40      -4.9671      2.00000
     41      -4.9374      2.00000
     42      -4.9322      2.00000
     43      -4.9217      2.00000
     44      -4.9217      2.00000
     45      -4.8729      2.00000
     46      -4.5107      2.00000
     47      -4.5107      2.00000
     48      -4.4738      2.00000
     49      -4.4738      2.00000
     50      -4.4327      2.00000
     51      -4.4327      2.00000
     52      -4.4325      2.00000
     53      -4.4250      2.00000
     54      -4.4220      2.00000
     55      -4.4220      2.00000
     56      -4.3103      2.00000
     57      -4.3037      2.00000
     58      -4.2633      2.00000
     59      -4.2235      2.00000
     60      -3.9708      2.00000
     61      -3.9708      2.00000
     62      -3.9028      2.00000
     63      -3.8886      2.00000
     64      -3.8833      2.00000
     65      -3.8795      2.00000
     66      -3.8795      2.00000
     67      -3.8172      2.00000
     68      -3.8172      2.00000
     69      -3.7822      2.00000
     70      -3.7822      2.00000
     71      -3.7376      2.00000
     72      -3.7342      2.00000
     73      -3.7342      2.00000
     74      -3.7027      2.00000
     75      -3.7027      2.00000
     76      -3.6672      2.00000
     77      -3.6672      2.00000
[...]
  0.000   0.000   0.000   0.000   0.000   0.000   0.000   0.000   0.000   0.000   1.000   0.000   0.000   0.000   0.000   0.000
  0.000   0.000   0.000   0.000   0.000   0.000   0.000   0.000   0.000   0.000   0.000   0.000   0.000   0.000   0.000   0.000
  0.000   0.000   0.000   0.000   0.000   0.000   0.000   0.000   0.000   0.000   0.000   0.000   0.000   0.000   0.000   0.000
  0.000   0.000   0.000   0.000   0.000   0.000   0.000   0.000   0.000   0.000   0.000   0.000   0.000   0.000   0.000   0.000
  0.000   0.000   0.000   0.000   0.000   0.000   0.000   0.000   0.000   0.000   0.000   0.000   0.000   0.000   0.000   0.000
  0.000   0.000   0.000   0.000   0.000   0.000   0.000   0.000   0.000   0.000   0.000   0.000   0.000   0.000   0.000   0.000
  0.000   0.000   0.000   0.000   0.000   0.000   0.000   0.000   0.000   0.000   0.000   0.000   0.000   0.000   0.000   0.000
  0.000   0.000   0.000   0.000   0.000   0.000   0.000   0.000   0.000   0.000   0.000   0.000   0.000   0.000   0.000   0.000


------------------------ aborting loop because EDIFF is reached ----------------------------------------





 total charge

# of ion       s       p       d       tot
------------------------------------------
    1        0.539   0.242   8.764   9.545
    2        0.545   0.240   8.765   9.550
    3        0.545   0.240   8.765   9.550
    4        0.545   0.240   8.765   9.550
    5        0.539   0.241   8.768   9.547
    6        0.545   0.240   8.765   9.550
    7        0.545   0.240   8.765   9.550
    8        0.545   0.240   8.765   9.550
    9        0.540   0.242   8.764   9.546
   10        0.521   0.308   8.774   9.602
   11        0.520   0.306   8.775   9.601
   12        0.521   0.308   8.774   9.602
   13        0.520   0.306   8.775   9.601
   14        0.520   0.306   8.775   9.601
   15        0.516   0.309   8.774   9.600
   16        0.521   0.308   8.774   9.602
   17        0.516   0.309   8.774   9.600
   18        0.516   0.309   8.774   9.600
   19        0.521   0.302   8.775   9.598
   20        0.529   0.319   8.761   9.610
   21        0.529   0.319   8.761   9.610
   22        0.516   0.306   8.772   9.594
   23        0.529   0.319   8.761   9.610
   24        0.516   0.306   8.772   9.594
   25        0.521   0.302   8.775   9.598
   26        0.521   0.302   8.775   9.598
   27        0.516   0.306   8.772   9.594
   28        0.543   0.238   8.763   9.544
   29        0.538   0.238   8.776   9.552
   30        0.538   0.238   8.776   9.552
   31        0.538   0.238   8.776   9.552
   32        0.538   0.238   8.776   9.552
   33        0.538   0.238   8.776   9.552
   34        0.538   0.238   8.776   9.552
   35        0.545   0.238   8.765   9.548
   36        0.496   0.647   8.487   9.630
   37        0.959   1.363   0.000   2.323
   38        1.542   3.737   0.000   5.279
   39        0.545   0.124   0.000   0.668
--------------------------------------------------
tot         22.116  15.494 315.451 353.061
 
    CHARGE:  cpu time    0.4408: real time    0.4410
    FORLOC:  cpu time    0.0142: real time    0.0142
    FORNL :  cpu time    1.7119: real time    1.7120
    STRESS:  cpu time    5.1219: real time    5.1221
    FORCOR:  cpu time    0.0540: real time    0.0541
    FORHAR:  cpu time    0.0222: real time    0.0224
    OFIELD:  cpu time    0.0003: real time    0.0003

  FORCE on cell =-STRESS in cart. coord.  units (eV):
  Direction    XX          YY          ZZ          XY          YZ          ZX
  --------------------------------------------------------------------------------------
  Alpha Z   861.13033   861.13033   861.13033
  Ewald  188034.19129188034.19173************    -0.00033    -0.00008    -0.00011
  Hartree196786.38409196786.38410************     0.00001    -0.00002    -0.00003
  E(xc)   -1828.29541 -1828.29554 -1832.95276     0.00011    -0.00001    -0.00001
  Local  ************************396991.48453     0.00219    -0.00000    -0.00005
  n-local  -106.75205   -61.94142   -60.13728    22.31376    -1.26900     1.21641
  augment  2452.08860  2452.09021  2455.35876    -0.00139     0.00002     0.00004
  Kinetic  5701.47738  5706.52509  5677.94343     3.87272     0.59785     0.09469
  Fock        0.00000     0.00000     0.00000     0.00000     0.00000     0.00000
  -------------------------------------------------------------------------------------
  Total     -18.04428   -18.04428     1.51050    -0.00000     0.00000     0.00000
  in kB     -16.06263   -16.06263     1.34461    -0.00000     0.00000     0.00000
  external pressure =      -10.26 kB  Pullay stress =        0.00 kB


 VOLUME and BASIS-vectors are now :
 -----------------------------------------------------------------------------
  energy-cutoff  :      500.00
  volume of cell :     1799.84
      direct lattice vectors                 reciprocal lattice vectors
     8.813512802  0.000000000  0.000000000     0.113462137 -0.065507406  0.000000000
     4.406756909  7.632725690  0.000000000     0.000000000  0.131014796  0.000000000
     0.000000000  0.000000000 26.754991198     0.000000000  0.000000000  0.037376204

  length of vectors
     8.813512802  8.813512802 26.754991198     0.131014796  0.131014796  0.037376204


 FORCES acting on ions
    electron-ion (+dipol)            ewald-force                    non-local-force                 convergence-correction
 -----------------------------------------------------------------------------------------------
   -.201E-04 -.165E-04 0.285E+04   0.518E-04 0.433E-04 -.285E+04   -.122E-17 -.757E-18 -.770E+00   -.254E-03 -.160E-03 -.673E+00
   -.788E-01 0.178E+00 0.285E+04   0.301E-01 -.199E+00 -.285E+04   -.190E-02 -.289E-01 -.254E+00   0.480E-01 0.507E-01 -.657E+00
   0.788E-01 0.178E+00 0.285E+04   -.302E-01 -.199E+00 -.285E+04   0.190E-02 -.289E-01 -.254E+00   -.477E-01 0.525E-01 -.656E+00
   0.115E+00 -.157E+00 0.285E+04   -.157E+00 0.125E+00 -.285E+04   -.260E-01 0.128E-01 -.254E+00   0.680E-01 0.162E-01 -.657E+00
   0.102E-04 -.221E-04 0.285E+04   0.952E-04 0.169E-05 -.285E+04   0.342E-18 0.181E-17 -.494E+00   0.420E-02 0.256E-02 -.624E+00
   -.115E+00 -.157E+00 0.285E+04   0.157E+00 0.125E+00 -.285E+04   0.260E-01 0.128E-01 -.254E+00   -.694E-01 0.170E-01 -.656E+00
   0.193E+00 -.206E-01 0.285E+04   -.187E+00 0.732E-01 -.285E+04   -.241E-01 0.161E-01 -.254E+00   0.217E-01 -.676E-01 -.656E+00
   -.193E+00 -.206E-01 0.285E+04   0.187E+00 0.732E-01 -.285E+04   0.241E-01 0.161E-01 -.254E+00   -.199E-01 -.686E-01 -.656E+00
   0.193E-04 -.416E-04 0.285E+04   0.166E-03 -.200E-04 -.284E+04   -.531E-17 0.285E-18 -.421E+00   -.449E-02 -.232E-02 -.715E+00
   0.323E+00 0.187E+00 0.101E+04   -.949E-01 -.547E-01 -.100E+04   -.155E+00 -.895E-01 -.503E+00   -.122E-01 -.718E-02 -.387E+00
   0.143E-04 0.167E+01 0.101E+04   0.148E-03 -.182E+01 -.101E+04   0.668E-09 0.100E-01 -.417E+00   0.411E-02 0.107E+00 -.495E+00
   -.323E+00 0.187E+00 0.101E+04   0.948E-01 -.547E-01 -.100E+04   0.155E+00 -.895E-01 -.503E+00   0.109E-01 -.674E-02 -.388E+00
   0.145E+01 -.837E+00 0.101E+04   -.158E+01 0.912E+00 -.101E+04   0.869E-02 -.502E-02 -.417E+00   0.952E-01 -.498E-01 -.495E+00
   -.145E+01 -.837E+00 0.101E+04   0.158E+01 0.912E+00 -.101E+04   -.869E-02 -.502E-02 -.417E+00   -.883E-01 -.511E-01 -.497E+00
   0.319E-04 -.110E+01 0.100E+04   0.236E-03 0.121E+01 -.100E+04   -.213E-08 -.319E-01 -.271E+00   -.182E-02 -.714E-01 -.471E+00
   -.206E-04 -.374E+00 0.101E+04   0.162E-03 0.109E+00 -.100E+04   0.119E-07 0.179E+00 -.503E+00   -.635E-03 0.128E-01 -.388E+00
   -.952E+00 0.549E+00 0.100E+04   0.104E+01 -.603E+00 -.100E+04   -.277E-01 0.160E-01 -.271E+00   -.625E-01 0.345E-01 -.471E+00
   0.952E+00 0.549E+00 0.100E+04   -.105E+01 -.603E+00 -.100E+04   0.277E-01 0.160E-01 -.271E+00   0.633E-01 0.363E-01 -.469E+00
   -.412E-04 -.614E+00 -.859E+03   0.527E-04 0.716E+00 0.858E+03   0.364E-08 0.547E-01 0.562E+00   0.689E-03 -.144E+00 0.157E+00
   0.149E+02 0.863E+01 -.839E+03   -.144E+02 -.830E+01 0.839E+03   -.510E+00 -.295E+00 -.613E+00   -.644E-01 -.373E-01 0.130E+00
   -.149E+02 0.863E+01 -.839E+03   0.144E+02 -.830E+01 0.839E+03   0.510E+00 -.295E+00 -.613E+00   0.582E-01 -.392E-01 0.130E+00
   0.790E+01 -.456E+01 -.858E+03   -.809E+01 0.467E+01 0.858E+03   0.174E+00 -.100E+00 0.542E+00   0.189E-01 -.587E-02 0.193E+00
   -.151E-04 -.173E+02 -.839E+03   0.145E-03 0.166E+02 0.839E+03   0.392E-07 0.589E+00 -.613E+00   -.505E-02 0.700E-01 0.130E+00
   -.790E+01 -.456E+01 -.858E+03   0.809E+01 0.467E+01 0.858E+03   -.174E+00 -.100E+00 0.542E+00   -.108E-01 -.619E-02 0.193E+00
   0.531E+00 0.307E+00 -.859E+03   -.620E+00 -.358E+00 0.858E+03   -.474E-01 -.274E-01 0.562E+00   0.123E+00 0.710E-01 0.157E+00
   -.531E+00 0.307E+00 -.859E+03   0.620E+00 -.358E+00 0.858E+03   0.474E-01 -.274E-01 0.562E+00   -.124E+00 0.726E-01 0.157E+00
   0.527E-05 0.912E+01 -.858E+03   0.200E-03 -.934E+01 0.858E+03   0.134E-07 0.201E+00 0.542E+00   0.379E-02 0.192E-01 0.193E+00
   -.122E-04 -.134E-04 -.272E+04   0.282E-04 0.351E-04 0.272E+04   -.126E-17 0.150E-17 -.782E-01   -.141E-03 -.101E-03 0.496E+00
   0.253E+02 0.420E+02 -.270E+04   -.255E+02 -.424E+02 0.270E+04   0.635E-01 0.118E+00 0.348E+00   -.661E-01 -.378E-01 0.552E+00
   -.253E+02 0.420E+02 -.270E+04   0.255E+02 -.424E+02 0.270E+04   -.635E-01 0.118E+00 0.348E+00   0.663E-01 -.367E-01 0.551E+00
   0.490E+02 0.904E+00 -.270E+04   -.494E+02 -.854E+00 0.270E+04   0.134E+00 -.387E-02 0.348E+00   -.657E-01 -.384E-01 0.552E+00
   -.490E+02 0.904E+00 -.270E+04   0.494E+02 -.854E+00 0.270E+04   -.134E+00 -.387E-02 0.348E+00   0.650E-01 -.379E-01 0.553E+00
   0.237E+02 -.429E+02 -.270E+04   -.240E+02 0.432E+02 0.270E+04   0.702E-01 -.114E+00 0.348E+00   0.137E-02 0.757E-01 0.551E+00
   -.237E+02 -.429E+02 -.270E+04   0.240E+02 0.432E+02 0.270E+04   -.702E-01 -.114E+00 0.348E+00   -.266E-03 0.753E-01 0.553E+00
   0.286E-04 -.268E-04 -.273E+04   0.148E-03 -.502E-04 0.273E+04   -.442E-17 0.307E-17 -.443E-01   -.399E-02 -.201E-02 0.569E+00
   0.258E-04 -.163E-04 -.219E+04   0.992E-04 0.867E-05 0.219E+04   0.452E-17 0.488E-17 -.333E+01   0.425E-02 0.261E-02 0.472E+00
   -.491E-05 -.809E-04 -.107E+04   0.136E-04 0.888E-06 0.105E+04   0.350E-17 0.129E-17 0.209E+02   0.121E-02 0.743E-03 0.119E+00
   0.246E-03 -.908E-04 -.175E+04   0.501E-05 0.475E-06 0.176E+04   -.189E-17 -.832E-18 -.751E+01   0.385E-02 0.236E-02 0.521E-01
   0.651E-05 -.140E-04 -.330E+03   0.247E-06 0.353E-07 0.338E+03   0.883E-19 -.163E-19 -.818E+01   0.198E-03 0.121E-03 0.100E-02
 -----------------------------------------------------------------------------------------------
   -.434E-03 -.934E-03 0.504E+01   0.628E-14 -.883E-13 -.232E-10   -.953E-16 -.228E-15 -.145E+01   0.144E-01 0.919E-02 -.355E+01
 
 
 POSITION                                       TOTAL-FORCE (eV/Angst)
 -----------------------------------------------------------------------------------
      0.00000      0.00000      5.28038         0.000000     -0.000000      0.023238
      2.93784      0.00000      5.28038        -0.002128      0.001801     -0.042792
      5.87568      0.00000      5.28038         0.002128      0.001801     -0.042792
      1.46892      2.54424      5.28038         0.000496     -0.002743     -0.042792
      4.40676      2.54424      5.28038         0.000000      0.000000     -0.061272
      7.34459      2.54424      5.28038        -0.000496     -0.002743     -0.042792
      2.93784      5.08848      5.28038         0.002624      0.000942     -0.042792
      5.87568      5.08848      5.28038        -0.002624      0.000942     -0.042792
      8.81351      5.08848      5.28038         0.000000     -0.000000     -0.016194
      1.46892      0.84808      7.67911         0.062228      0.035927      0.134841
      4.40676      0.84808      7.67911        -0.000000     -0.034388      0.100483
      7.34459      0.84808      7.67911        -0.062228      0.035927      0.134841
      2.93784      3.39232      7.67911        -0.029781      0.017194      0.100483
      5.87568      3.39232      7.67911         0.029781      0.017194      0.100483
      8.81351      3.39232      7.67911         0.000000      0.003919      0.161911
      4.40676      5.93656      7.67911        -0.000000     -0.071855      0.134841
      7.34459      5.93656      7.67911         0.003394     -0.001960      0.161911
     10.28243      5.93656      7.67911        -0.003394     -0.001960      0.161911
      8.81351      1.69299     10.06281         0.000000      0.013383     -0.016808
      2.93673      1.69552     10.07074         0.000999      0.000577     -0.106174
      5.87678      1.69552     10.07074        -0.000999      0.000577     -0.106174
     10.28200      4.24065     10.07064        -0.001956      0.001130     -0.035015
      4.40676      4.24168     10.07074        -0.000000     -0.001154     -0.106174
      7.34503      4.24065     10.07064         0.001956      0.001130     -0.035015
     11.75410      6.78623     10.06281        -0.011590     -0.006691     -0.016808
      5.87293      6.78623     10.06281         0.011590     -0.006691     -0.016808
      8.81351      6.78414     10.07064        -0.000000     -0.002259     -0.035015
      0.00000      0.00000     12.49359         0.000000     -0.000000     -0.071139
      2.94266      0.00661     12.49157        -0.154279     -0.283267     -0.107489
      5.87086      0.00661     12.49157         0.154279     -0.283267     -0.107489
      1.47706      2.54511     12.49157        -0.322456      0.008024     -0.107489
      7.33646      2.54511     12.49157         0.322456      0.008024     -0.107489
      2.94116      5.08100     12.49157        -0.168177      0.275243     -0.107489
      5.87236      5.08100     12.49157         0.168177      0.275243     -0.107489
      8.81351      5.08848     12.49778         0.000000      0.000000     -0.081977
      4.40676      2.54424     12.34091         0.000000      0.000000      0.367288
      4.40676      2.54424     14.14859         0.000000     -0.000000      0.013033
      4.40676      2.54424     15.38985         0.000000     -0.000000     -0.022613
      4.40676      2.54424     16.36198         0.000000      0.000000      0.033611
 -----------------------------------------------------------------------------------
    total drift:                                0.014011      0.008254      0.048278


--------------------------------------------------------------------------------------------------------



  FREE ENERGIE OF THE ION-ELECTRON SYSTEM (eV)
  ---------------------------------------------------
  free  energy   TOTEN  =      -128.37612643 eV

  energy  without entropy=     -128.37612643  energy(sigma->0) =     -128.37612643
 


--------------------------------------------------------------------------------------------------------


    POTLOK:  cpu time    0.0525: real time    0.0525


--------------------------------------------------------------------------------------------------------


 stress matrix after NEB project (eV)
    -18.04428     -0.00000      0.00000
     -0.00000    -18.04428      0.00000
      0.00000      0.00000      1.51050
  FORCES: max atom, RMS     0.033611    0.006814
  FORCE total and by dimension    0.042554    0.033611
  Stress total and by dimension   25.563133   18.044282
     LOOP+:  cpu time   88.6861: real time   88.6958
 -----------------------------------------------------------------------------
|                                                                             |
|           W    W    AA    RRRRR   N    N  II  N    N   GGGG   !!!           |
|           W    W   A  A   R    R  NN   N  II  NN   N  G    G  !!!           |
|           W    W  A    A  R    R  N N  N  II  N N  N  G       !!!           |
|           W WW W  AAAAAA  RRRRR   N  N N  II  N  N N  G  GGG   !            |
|           WW  WW  A    A  R   R   N   NN  II  N   NN  G    G                |
|           W    W  A    A  R    R  N    N  II  N    N   GGGG   !!!           |
|                                                                             |
|     Tetrahedron method does not include variations of the Fermi             |
|     occupations, so forces and stress will be inaccurate. We suggest        |
|     using a different smearing scheme ISMEAR = 1 or 2 for metals in         |
|     relaxations.                                                            |
|                                                                             |
 -----------------------------------------------------------------------------

    4ORBIT:  cpu time    0.0000: real time    0.0000



 total charge

# of ion       s       p       d       tot
------------------------------------------
    1        0.539   0.242   8.764   9.545
    2        0.545   0.240   8.765   9.550
    3        0.545   0.240   8.765   9.550
    4        0.545   0.240   8.765   9.550
    5        0.539   0.241   8.768   9.547
    6        0.545   0.240   8.765   9.550
    7        0.545   0.240   8.765   9.550
    8        0.545   0.240   8.765   9.550
    9        0.540   0.242   8.764   9.546
   10        0.521   0.308   8.774   9.602
   11        0.520   0.306   8.775   9.601
   12        0.521   0.308   8.774   9.602
   13        0.520   0.306   8.775   9.601
   14        0.520   0.306   8.775   9.601
   15        0.516   0.309   8.774   9.600
   16        0.521   0.308   8.774   9.602
   17        0.516   0.309   8.774   9.600
   18        0.516   0.309   8.774   9.600
   19        0.521   0.302   8.775   9.598
   20        0.529   0.319   8.761   9.610
   21        0.529   0.319   8.761   9.610
   22        0.516   0.306   8.772   9.594
   23        0.529   0.319   8.761   9.610
   24        0.516   0.306   8.772   9.594
   25        0.521   0.302   8.775   9.598
   26        0.521   0.302   8.775   9.598
   27        0.516   0.306   8.772   9.594
   28        0.543   0.238   8.763   9.544
   29        0.538   0.238   8.776   9.552
   30        0.538   0.238   8.776   9.552
   31        0.538   0.238   8.776   9.552
   32        0.538   0.238   8.776   9.552
   33        0.538   0.238   8.776   9.552
   34        0.538   0.238   8.776   9.552
   35        0.545   0.238   8.765   9.548
   36        0.496   0.647   8.487   9.630
   37        0.959   1.363   0.000   2.323
   38        1.542   3.737   0.000   5.279
   39        0.545   0.124   0.000   0.668
--------------------------------------------------
tot         22.116  15.494 315.451 353.061
 
 BZINTS: Fermi energy:    0.445426;  406.000000 electrons
         Band energy:-0.141675E+04;  BLOECHL correction:   -0.061995

 total amount of memory used by VASP MPI-rank0   139594. kBytes
=======================================================================

   base      :      30000. kBytes
   nonlr-proj:      13902. kBytes
   fftplans  :       5150. kBytes
   grid      :      23126. kBytes
   one-center:        606. kBytes
   wavefun   :      66810. kBytes
 
  
  
 General timing and accounting informations for this job:
 ========================================================
  
                  Total CPU time used (sec):       97.203
                            User time (sec):       93.912
                          System time (sec):        3.291
                         Elapsed time (sec):       97.620
  
                   Maximum memory used (kb):      417196.
                   Average memory used (kb):          N/A
  
                          Minor page faults:        86604
                          Major page faults:            0
                 Voluntary context switches:         5037
