PROCAR new format
# of k-points:   10         # of bands:  252         # of ions:   39

 k-point     1 :    0.00000000 0.00000000 0.00000000     weight = 0.01562500

band     1 # energy  -25.26946076 # occ.  2.00000000
 
ion      s      p      d    tot
    1  0.000  0.000  0.000  0.000
    2  0.000  0.000  0.000  0.000
    3  0.000  0.000  0.000  0.000
    4  0.000  0.000  0.000  0.000
    5  0.000  0.000  0.000  0.000
    6  0.000  0.000  0.000  0.000
    7  0.000  0.000  0.000  0.000
    8  0.000  0.000  0.000  0.000
    9  0.000  0.000  0.000  0.000
   10  0.000  0.000  0.000  0.000
   11  0.000  0.000  0.000  0.000
   12  0.000  0.000  0.000  0.000
   13  0.000  0.000  0.000  0.000
   14  0.000  0.000  0.000  0.000
   15  0.000  0.000  0.000  0.000
   16  0.000  0.000  0.000  0.000
   17  0.000  0.000  0.000  0.000
   18  0.000  0.000  0.000  0.000
   19  0.000  0.000  0.000  0.000
   20  0.000  0.000  0.000  0.000
   21  0.000  0.000  0.000  0.000
   22  0.000  0.000  0.000  0.000
   23  0.000  0.000  0.000  0.000
   24  0.000  0.000  0.000  0.000
   25  0.000  0.000  0.000  0.000
   26  0.000  0.000  0.000  0.000
   27  0.000  0.000  0.000  0.000
   28  0.000  0.000  0.000  0.000
   29  0.000  0.000  0.000  0.000
   30  0.000  0.000  0.000  0.000
   31  0.000  0.000  0.000  0.000
   32  0.000  0.000  0.000  0.000
   33  0.000  0.000  0.000  0.000
   34  0.000  0.000  0.000  0.000
   35  0.000  0.000  0.000  0.000
   36  0.000  0.000  0.000  0.000
   37  0.087  0.065  0.000  0.152
   38  0.723  0.012  0.000  0.734
   39  0.052  0.011  0.000  0.064
tot    0.862  0.088  0.000  0.950
 
band     2 # energy  -15.76024017 # occ.  2.00000000
 
ion      s      p      d    tot
    1  0.000  0.000  0.000  0.000
    2  0.000  0.000  0.000  0.000
    3  0.000  0.000  0.000  0.000
    4  0.000  0.000  0.000  0.000
    5  0.000  0.000  0.000  0.000
    6  0.000  0.000  0.000  0.000
    7  0.000  0.000  0.000  0.000
    8  0.000  0.000  0.000  0.000
    9  0.000  0.000  0.000  0.000
   10  0.000  0.000  0.000  0.000
   11  0.000  0.000  0.000  0.000
   12  0.000  0.000  0.000  0.000
   13  0.000  0.000  0.000  0.000
   14  0.000  0.000  0.000  0.000
   15  0.000  0.000  0.000  0.000
   16  0.000  0.000  0.000  0.000
   17  0.000  0.000  0.000  0.000
   18  0.000  0.000  0.000  0.000
   19  0.000  0.000  0.000  0.000
   20  0.000  0.000  0.000  0.000
   21  0.000  0.000  0.000  0.000
   22  0.000  0.000  0.000  0.000
   23  0.000  0.000  0.000  0.000
   24  0.000  0.000  0.000  0.000
   25  0.000  0.000  0.000  0.000
   26  0.000  0.000  0.000  0.000
   27  0.000  0.000  0.000  0.000
   28  0.000  0.000  0.000  0.000
   29  0.000  0.000  0.000  0.000
   30  0.000  0.000  0.000  0.000
   31  0.000  0.000  0.000  0.000
   32  0.000  0.000  0.000  0.000
   33  0.000  0.000  0.000  0.000
   34  0.000  0.000  0.000  0.000
   35  0.000  0.000  0.000  0.000
   36  0.002  0.002  0.003  0.007
   37  0.155  0.050  0.000  0.205
   38  0.024  0.528  0.000  0.553
   39  0.199  0.032  0.000  0.231
tot    0.380  0.613  0.003  0.996
 
band     3 # energy   -8.82885557 # occ.  2.00000000
 
ion      s      p      d    tot
    1  0.000  0.000  0.000  0.000
    2  0.000  0.000  0.000  0.000
    3  0.000  0.000  0.000  0.000
    4  0.000  0.000  0.000  0.000
    5  0.000  0.000  0.000  0.000
    6  0.000  0.000  0.000  0.000
    7  0.000  0.000  0.000  0.000
    8  0.000  0.000  0.000  0.000
    9  0.000  0.000  0.000  0.000
   10  0.001  0.000  0.000  0.001
   11  0.001  0.000  0.000  0.001
   12  0.001  0.000  0.000  0.001
   13  0.001  0.000  0.000  0.001
   14  0.001  0.000  0.000  0.001
   15  0.001  0.000  0.000  0.001
   16  0.001  0.000  0.000  0.001
   17  0.001  0.000  0.000  0.001
   18  0.001  0.000  0.000  0.001
   19  0.002  0.000  0.000  0.002
   20  0.006  0.000  0.002  0.008
   21  0.006  0.000  0.002  0.008
   22  0.002  0.000  0.000  0.002
   23  0.006  0.000  0.002  0.008
   24  0.002  0.000  0.000  0.002
   25  0.002  0.000  0.000  0.002
   26  0.002  0.000  0.000  0.002
   27  0.002  0.000  0.000  0.002
   28  0.001  0.000  0.000  0.001
   29  0.002  0.000  0.000  0.003
   30  0.002  0.000  0.000  0.003
   31  0.002  0.000  0.000  0.003
   32  0.002  0.000  0.000  0.003
   33  0.002  0.000  0.000  0.003
   34  0.002  0.000  0.000  0.003
   35  0.001  0.000  0.000  0.001
   36  0.102  0.057  0.266  0.425
   37  0.168  0.166  0.000  0.334
   38  0.010  0.043  0.000  0.053
   39  0.012  0.001  0.000  0.013
tot    0.349  0.269  0.274  0.891
 
band     4 # energy   -8.29248095 # occ.  2.00000000
 
ion      s      p      d    tot
    1  0.007  0.001  0.000  0.008
    2  0.007  0.001  0.000  0.008
    3  0.007  0.001  0.000  0.008
    4  0.007  0.001  0.000  0.008
    5  0.007  0.001  0.000  0.007
    6  0.007  0.001  0.000  0.008
    7  0.007  0.001  0.000  0.008
    8  0.007  0.001  0.000  0.008
    9  0.007  0.001  0.000  0.008
   10  0.026  0.000  0.000  0.027
   11  0.026  0.000  0.000  0.026
   12  0.026  0.000  0.000  0.027
   13  0.026  0.000  0.000  0.026
   14  0.026  0.000  0.000  0.026
   15  0.027  0.000  0.000  0.027
   16  0.026  0.000  0.000  0.027
   17  0.027  0.000  0.000  0.027
   18  0.027  0.000  0.000  0.027
   19  0.022  0.000  0.000  0.022
   20  0.019  0.000  0.000  0.019
   21  0.019  0.000  0.000  0.019
   22  0.022  0.000  0.000  0.022
   23  0.019  0.000  0.000  0.019
   24  0.022  0.000  0.000  0.022
   25  0.022  0.000  0.000  0.022
   26  0.022  0.000  0.000  0.022
   27  0.022  0.000  0.000  0.022
   28  0.004  0.000  0.000  0.005
   29  0.003  0.000  0.000  0.004
   30  0.003  0.000  0.000  0.004
   31  0.003  0.000  0.000  0.004
   32  0.003  0.000  0.000  0.004
   33  0.003  0.000  0.000  0.004
   34  0.003  0.000  0.000  0.004
   35  0.004  0.000  0.000  0.005
   36  0.001  0.011  0.029  0.041
   37  0.017  0.015  0.000  0.032
   38  0.001  0.004  0.000  0.005
   39  0.001  0.000  0.000  0.001
tot    0.536  0.041  0.033  0.611
 
band     5 # energy   -7.93346969 # occ.  2.00000000
 
ion      s      p      d    tot
    1  0.000  0.000  0.000  0.000
    2  0.000  0.000  0.000  0.000
    3  0.000  0.000  0.000  0.000
    4  0.000  0.000  0.000  0.000
    5  0.000  0.000  0.000  0.000
    6  0.000  0.000  0.000  0.000
    7  0.000  0.000  0.000  0.000
    8  0.000  0.000  0.000  0.000
    9  0.000  0.000  0.000  0.000
   10  0.000  0.000  0.000  0.000
   11  0.000  0.000  0.000  0.000
   12  0.000  0.000  0.000  0.000
   13  0.000  0.000  0.000  0.000
   14  0.000  0.000  0.000  0.000
   15  0.000  0.000  0.000  0.000
   16  0.000  0.000  0.000  0.000
   17  0.000  0.000  0.000  0.000
   18  0.000  0.000  0.000  0.000
   19  0.000  0.000  0.000  0.000
   20  0.000  0.000  0.000  0.000
   21  0.000  0.000  0.000  0.000
   22  0.000  0.000  0.000  0.000
   23  0.000  0.000  0.000  0.000
   24  0.000  0.000  0.000  0.000
   25  0.000  0.000  0.000  0.000
   26  0.000  0.000  0.000  0.000
   27  0.000  0.000  0.000  0.000
   28  0.000  0.000  0.000  0.000
   29  0.000  0.000  0.000  0.001
   30  0.000  0.000  0.000  0.000
   31  0.000  0.000  0.000  0.001
   32  0.000  0.000  0.000  0.001
   33  0.000  0.000  0.000  0.000
   34  0.000  0.000  0.000  0.001
   35  0.000  0.000  0.000  0.000
   36  0.000  0.002  0.019  0.021
   37  0.000  0.119  0.000  0.119
   38  0.000  0.544  0.000  0.544
   39  0.000  0.007  0.000  0.007
tot    0.001  0.672  0.021  0.694
 
band     6 # energy   -7.93329736 # occ.  2.00000000
 
ion      s      p      d    tot
    1  0.000  0.000  0.000  0.000
    2  0.000  0.000  0.000  0.000
    3  0.000  0.000  0.000  0.000
    4  0.000  0.000  0.000  0.000
    5  0.000  0.000  0.000  0.000
    6  0.000  0.000  0.000  0.000
    7  0.000  0.000  0.000  0.000
    8  0.000  0.000  0.000  0.000
    9  0.000  0.000  0.000  0.000
   10  0.000  0.000  0.000  0.000
   11  0.000  0.000  0.000  0.000
   12  0.000  0.000  0.000  0.000
   13  0.000  0.000  0.000  0.000
   14  0.000  0.000  0.000  0.000
   15  0.000  0.000  0.000  0.000
   16  0.000  0.000  0.000  0.000
   17  0.000  0.000  0.000  0.000
   18  0.000  0.000  0.000  0.000
   19  0.000  0.000  0.000  0.000
   20  0.000  0.000  0.000  0.000
   21  0.000  0.000  0.000  0.000
   22  0.000  0.000  0.000  0.000
   23  0.000  0.000  0.000  0.000
   24  0.000  0.000  0.000  0.000
   25  0.000  0.000  0.000  0.000
   26  0.000  0.000  0.000  0.000
   27  0.000  0.000  0.000  0.000
   28  0.000  0.000  0.000  0.000
   29  0.000  0.000  0.000  0.000
   30  0.000  0.000  0.000  0.001
   31  0.000  0.000  0.000  0.000
   32  0.000  0.000  0.000  0.000
   33  0.000  0.000  0.000  0.001
   34  0.000  0.000  0.000  0.000
   35  0.000  0.000  0.000  0.000
   36  0.000  0.002  0.019  0.021
   37  0.000  0.119  0.000  0.119
   38  0.000  0.544  0.000  0.544
   39  0.000  0.007  0.000  0.007
tot    0.001  0.672  0.021  0.694
 
band     7 # energy   -7.14933562 # occ.  2.00000000
 
ion      s      p      d    tot
    1  0.017  0.000  0.001  0.019
    2  0.016  0.000  0.001  0.018
    3  0.016  0.000  0.001  0.018
    4  0.016  0.000  0.001  0.018
    5  0.016  0.000  0.001  0.018
    6  0.016  0.000  0.001  0.018
    7  0.016  0.000  0.001  0.018
    8  0.016  0.000  0.001  0.018
    9  0.016  0.000  0.001  0.017
   10  0.010  0.001  0.002  0.013
   11  0.009  0.001  0.002  0.013
   12  0.010  0.001  0.002  0.013
   13  0.009  0.001  0.002  0.013
   14  0.009  0.001  0.002  0.013
   15  0.008  0.002  0.002  0.012
   16  0.010  0.001  0.002  0.013
   17  0.008  0.002  0.002  0.012
   18  0.008  0.002  0.002  0.012
   19  0.016  0.001  0.003  0.020
   20  0.012  0.001  0.004  0.017
   21  0.012  0.001  0.004  0.017
   22  0.016  0.001  0.003  0.021
   23  0.012  0.001  0.004  0.017
   24  0.016  0.001  0.003  0.021
   25  0.016  0.001  0.003  0.020
   26  0.016  0.001  0.003  0.020
   27  0.016  0.001  0.003  0.021
   28  0.017  0.001  0.001  0.018
   29  0.014  0.001  0.001  0.015
   30  0.014  0.001  0.001  0.015
   31  0.014  0.001  0.001  0.015
   32  0.014  0.001  0.001  0.015
   33  0.014  0.001  0.001  0.015
   34  0.014  0.001  0.001  0.015
   35  0.017  0.001  0.001  0.018
   36  0.003  0.003  0.014  0.020
   37  0.003  0.003  0.000  0.006
   38  0.000  0.000  0.000  0.001
   39  0.000  0.000  0.000  0.000
tot    0.486  0.038  0.081  0.605
 
band     8 # energy   -6.23103587 # occ.  2.00000000
 
ion      s      p      d    tot
    1  0.013  0.000  0.021  0.034
    2  0.019  0.000  0.017  0.036
    3  0.019  0.000  0.017  0.036
    4  0.019  0.000  0.017  0.036
    5  0.017  0.000  0.016  0.033
    6  0.019  0.000  0.017  0.036
    7  0.019  0.000  0.017  0.036
    8  0.019  0.000  0.017  0.036
    9  0.030  0.000  0.015  0.044
   10  0.012  0.001  0.015  0.027
   11  0.009  0.001  0.015  0.026
   12  0.012  0.001  0.015  0.027
   13  0.009  0.001  0.015  0.026
   14  0.009  0.001  0.015  0.026
   15  0.001  0.001  0.018  0.019
   16  0.012  0.001  0.015  0.027
   17  0.001  0.001  0.018  0.019
   18  0.001  0.001  0.018  0.019
   19  0.000  0.001  0.002  0.004
   20  0.004  0.001  0.002  0.008
   21  0.004  0.001  0.002  0.008
   22  0.001  0.001  0.001  0.002
   23  0.004  0.001  0.002  0.008
   24  0.001  0.001  0.001  0.002
   25  0.000  0.001  0.002  0.004
   26  0.000  0.001  0.002  0.004
   27  0.001  0.001  0.001  0.002
   28  0.009  0.000  0.003  0.012
   29  0.007  0.000  0.004  0.012
   30  0.007  0.000  0.004  0.012
   31  0.007  0.000  0.004  0.012
   32  0.007  0.000  0.004  0.012
   33  0.007  0.000  0.004  0.012
   34  0.007  0.000  0.004  0.012
   35  0.013  0.000  0.003  0.017
   36  0.001  0.001  0.006  0.008
   37  0.000  0.000  0.000  0.000
   38  0.000  0.000  0.000  0.000
   39  0.000  0.000  0.000  0.000
tot    0.323  0.019  0.352  0.694
 
band     9 # energy   -6.18739884 # occ.  2.00000000
 
ion      s      p      d    tot
    1  0.000  0.001  0.010  0.011
    2  0.005  0.001  0.003  0.009
    3  0.000  0.000  0.003  0.003
    4  0.005  0.001  0.003  0.009
    5  0.000  0.001  0.005  0.006
    6  0.006  0.001  0.004  0.011
    7  0.000  0.000  0.003  0.004
    8  0.006  0.001  0.004  0.011
    9  0.000  0.000  0.002  0.002
   10  0.049  0.002  0.004  0.054
   11  0.010  0.003  0.014  0.028
   12  0.012  0.001  0.032  0.045
   13  0.011  0.003  0.014  0.028
   14  0.042  0.000  0.013  0.056
   15  0.000  0.002  0.011  0.013
   16  0.012  0.001  0.033  0.045
   17  0.000  0.002  0.011  0.013
   18  0.000  0.001  0.011  0.012
   19  0.005  0.003  0.008  0.016
   20  0.056  0.002  0.006  0.064
   21  0.014  0.001  0.029  0.045
   22  0.002  0.001  0.017  0.020
   23  0.014  0.001  0.030  0.045
   24  0.008  0.001  0.007  0.016
   25  0.021  0.000  0.014  0.035
   26  0.005  0.003  0.008  0.017
   27  0.002  0.001  0.017  0.020
   28  0.000  0.001  0.002  0.003
   29  0.005  0.001  0.003  0.009
   30  0.003  0.001  0.003  0.007
   31  0.005  0.001  0.003  0.009
   32  0.000  0.000  0.002  0.003
   33  0.003  0.001  0.003  0.007
   34  0.000  0.000  0.002  0.003
   35  0.000  0.000  0.003  0.003
   36  0.000  0.002  0.010  0.012
   37  0.000  0.000  0.000  0.000
   38  0.000  0.000  0.000  0.000
   39  0.000  0.000  0.000  0.000
tot    0.304  0.043  0.348  0.694
 
band    10 # energy   -6.18737779 # occ.  2.00000000
 
ion      s      p      d    tot
    1  0.000  0.001  0.010  0.011
    2  0.002  0.001  0.004  0.007
    3  0.007  0.001  0.003  0.012
    4  0.002  0.001  0.004  0.007
    5  0.000  0.001  0.005  0.006
    6  0.001  0.000  0.003  0.005
    7  0.007  0.001  0.003  0.012
    8  0.001  0.000  0.003  0.005
    9  0.000  0.000  0.002  0.002
   10  0.000  0.000  0.042  0.042
   11  0.032  0.001  0.014  0.047
   12  0.036  0.002  0.013  0.051
   13  0.031  0.001  0.014  0.046
   14  0.000  0.004  0.015  0.019
   15  0.000  0.001  0.011  0.012
   16  0.037  0.002  0.013  0.051
   17  0.000  0.001  0.011  0.012
   18  0.000  0.003  0.010  0.013
   19  0.016  0.001  0.012  0.029
   20  0.000  0.001  0.037  0.039
   21  0.042  0.002  0.014  0.057
   22  0.006  0.001  0.010  0.017
   23  0.043  0.002  0.014  0.058
   24  0.000  0.001  0.020  0.021
   25  0.000  0.004  0.006  0.010
   26  0.016  0.001  0.012  0.029
   27  0.006  0.001  0.010  0.017
   28  0.000  0.001  0.002  0.003
   29  0.000  0.000  0.003  0.003
   30  0.003  0.001  0.002  0.006
   31  0.000  0.000  0.003  0.003
   32  0.005  0.001  0.003  0.010
   33  0.003  0.001  0.002  0.006
   34  0.006  0.001  0.003  0.010
   35  0.000  0.000  0.003  0.003
   36  0.000  0.001  0.010  0.012
   37  0.000  0.000  0.000  0.000
   38  0.000  0.000  0.000  0.000
   39  0.000  0.000  0.000  0.000
tot    0.304  0.043  0.348  0.694
 
band    11 # energy   -6.18265132 # occ.  2.00000000
 
ion      s      p      d    tot
    1  0.021  0.001  0.000  0.023
    2  0.002  0.000  0.006  0.009
    3  0.002  0.000  0.006  0.009
    4  0.002  0.000  0.006  0.009
    5  0.000  0.000  0.007  0.007
    6  0.002  0.000  0.006  0.009
    7  0.002  0.000  0.006  0.009
    8  0.002  0.000  0.006  0.009
    9  0.000  0.001  0.003  0.003
   10  0.010  0.001  0.022  0.032
   11  0.008  0.000  0.023  0.031
   12  0.010  0.001  0.022  0.032
   13  0.008  0.000  0.023  0.031
   14  0.008  0.000  0.023  0.030
   15  0.017  0.002  0.008  0.028
   16  0.010  0.001  0.022  0.032
   17  0.017  0.002  0.008  0.028
   18  0.018  0.002  0.008  0.028
   19  0.019  0.002  0.009  0.030
   20  0.007  0.000  0.023  0.030
   21  0.007  0.000  0.023  0.030
   22  0.007  0.001  0.022  0.030
   23  0.007  0.000  0.023  0.030
   24  0.007  0.001  0.022  0.029
   25  0.019  0.002  0.009  0.030
   26  0.019  0.002  0.009  0.030
   27  0.007  0.001  0.022  0.030
   28  0.000  0.000  0.004  0.004
   29  0.003  0.000  0.006  0.009
   30  0.003  0.000  0.006  0.009
   31  0.003  0.000  0.006  0.009
   32  0.003  0.000  0.006  0.009
   33  0.003  0.000  0.006  0.009
   34  0.003  0.000  0.006  0.009
   35  0.020  0.001  0.001  0.021
   36  0.001  0.002  0.003  0.006
   37  0.001  0.000  0.000  0.001
   38  0.000  0.000  0.000  0.000
   39  0.000  0.000  0.000  0.000
tot    0.274  0.030  0.414  0.717
 
band    12 # energy   -6.17329987 # occ.  2.00000000
 
ion      s      p      d    tot
    1  0.001  0.000  0.001  0.002
    2  0.001  0.000  0.005  0.007
    3  0.001  0.000  0.005  0.007
    4  0.001  0.000  0.005  0.007
    5  0.018  0.001  0.000  0.019
    6  0.001  0.000  0.005  0.007
    7  0.001  0.000  0.005  0.007
    8  0.001  0.000  0.005  0.007
    9  0.001  0.001  0.005  0.006
   10  0.014  0.002  0.009  0.025
   11  0.015  0.001  0.017  0.033
   12  0.014  0.002  0.008  0.025
   13  0.015  0.001  0.017  0.033
   14  0.015  0.001  0.017  0.033
   15  0.008  0.000  0.023  0.032
   16  0.014  0.002  0.008  0.025
   17  0.008  0.000  0.023  0.032
   18  0.008  0.000  0.024  0.031
   19  0.009  0.001  0.022  0.032
   20  0.022  0.003  0.007  0.032
   21  0.022  0.003  0.007  0.032
   22  0.005  0.000  0.023  0.028
   23  0.022  0.003  0.007  0.032
   24  0.005  0.000  0.023  0.028
   25  0.009  0.001  0.022  0.032
   26  0.009  0.001  0.022  0.032
   27  0.005  0.000  0.023  0.028
   28  0.022  0.001  0.001  0.023
   29  0.003  0.000  0.007  0.010
   30  0.003  0.000  0.007  0.010
   31  0.003  0.000  0.007  0.010
   32  0.003  0.000  0.007  0.010
   33  0.003  0.000  0.007  0.010
   34  0.003  0.000  0.007  0.010
   35  0.001  0.000  0.007  0.008
   36  0.000  0.002  0.002  0.004
   37  0.000  0.000  0.000  0.000
   38  0.000  0.000  0.000  0.000
   39  0.000  0.000  0.000  0.000
tot    0.283  0.033  0.392  0.708
 
band    13 # energy   -6.17148144 # occ.  2.00000000
 
ion      s      p      d    tot
    1  0.000  0.001  0.002  0.002
    2  0.005  0.001  0.003  0.009
    3  0.000  0.000  0.003  0.004
    4  0.005  0.001  0.003  0.010
    5  0.000  0.000  0.006  0.006
    6  0.007  0.001  0.004  0.012
    7  0.000  0.000  0.003  0.004
    8  0.006  0.001  0.004  0.012
    9  0.000  0.001  0.010  0.011
   10  0.000  0.005  0.002  0.007
   11  0.014  0.001  0.011  0.026
   12  0.010  0.001  0.013  0.024
   13  0.013  0.001  0.012  0.027
   14  0.000  0.001  0.031  0.032
   15  0.047  0.001  0.014  0.062
   16  0.010  0.001  0.013  0.024
   17  0.045  0.001  0.015  0.061
   18  0.000  0.002  0.035  0.037
   19  0.025  0.002  0.011  0.038
   20  0.000  0.003  0.005  0.008
   21  0.001  0.001  0.011  0.013
   22  0.035  0.001  0.013  0.050
   23  0.001  0.001  0.012  0.013
   24  0.000  0.003  0.022  0.025
   25  0.000  0.000  0.036  0.036
   26  0.024  0.001  0.012  0.038
   27  0.036  0.001  0.013  0.051
   28  0.000  0.000  0.007  0.007
   29  0.005  0.001  0.003  0.009
   30  0.004  0.001  0.003  0.007
   31  0.005  0.001  0.003  0.009
   32  0.000  0.000  0.002  0.003
   33  0.003  0.001  0.003  0.007
   34  0.000  0.000  0.002  0.003
   35  0.000  0.001  0.006  0.007
   36  0.000  0.000  0.000  0.001
   37  0.000  0.000  0.000  0.000
   38  0.000  0.000  0.000  0.000
   39  0.000  0.000  0.000  0.000
tot    0.303  0.042  0.349  0.693
 
band    14 # energy   -6.17146422 # occ.  2.00000000
 
ion      s      p      d    tot
    1  0.000  0.001  0.002  0.002
    2  0.003  0.001  0.004  0.007
    3  0.008  0.001  0.004  0.013
    4  0.003  0.001  0.004  0.007
    5  0.000  0.000  0.006  0.006
    6  0.001  0.000  0.003  0.005
    7  0.008  0.001  0.004  0.013
    8  0.001  0.001  0.003  0.005
    9  0.000  0.001  0.010  0.011
   10  0.013  0.000  0.016  0.030
   11  0.004  0.001  0.025  0.030
   12  0.004  0.003  0.006  0.013
   13  0.005  0.001  0.024  0.030
   14  0.018  0.002  0.005  0.025
   15  0.015  0.002  0.029  0.045
   16  0.003  0.003  0.005  0.012
   17  0.016  0.002  0.028  0.046
   18  0.061  0.001  0.007  0.070
   19  0.008  0.000  0.028  0.036
   20  0.001  0.000  0.013  0.015
   21  0.000  0.002  0.007  0.010
   22  0.012  0.003  0.019  0.034
   23  0.000  0.003  0.007  0.010
   24  0.047  0.001  0.010  0.058
   25  0.033  0.002  0.003  0.039
   26  0.009  0.001  0.027  0.036
   27  0.011  0.003  0.019  0.033
   28  0.000  0.000  0.007  0.007
   29  0.001  0.000  0.003  0.004
   30  0.002  0.001  0.002  0.005
   31  0.001  0.000  0.003  0.004
   32  0.006  0.001  0.003  0.010
   33  0.003  0.001  0.002  0.005
   34  0.006  0.001  0.003  0.010
   35  0.000  0.001  0.006  0.007
   36  0.000  0.000  0.000  0.001
   37  0.000  0.000  0.000  0.000
   38  0.000  0.000  0.000  0.000
   39  0.000  0.000  0.000  0.000
tot    0.303  0.042  0.349  0.693
 
band    15 # energy   -6.10726320 # occ.  2.00000000
 
ion      s      p      d    tot
    1  0.003  0.000  0.001  0.005
    2  0.000  0.000  0.004  0.004
    3  0.000  0.000  0.004  0.004
    4  0.000  0.000  0.004  0.004
    5  0.004  0.000  0.000  0.004
    6  0.000  0.000  0.004  0.004
    7  0.000  0.000  0.004  0.004
    8  0.000  0.000  0.004  0.004
    9  0.009  0.001  0.001  0.011
   10  0.004  0.000  0.019  0.023
   11  0.008  0.002  0.005  0.015
   12  0.004  0.000  0.019  0.023
   13  0.008  0.002  0.005  0.015
   14  0.008  0.002  0.005  0.015
   15  0.017  0.001  0.011  0.029
   16  0.004  0.000  0.019  0.023
   17  0.017  0.001  0.011  0.029
   18  0.017  0.001  0.011  0.029
   19  0.004  0.001  0.019  0.024
   20  0.002  0.000  0.024  0.026
   21  0.002  0.000  0.024  0.026
   22  0.018  0.002  0.012  0.033
   23  0.002  0.000  0.024  0.026
   24  0.018  0.002  0.012  0.033
   25  0.004  0.001  0.019  0.024
   26  0.004  0.001  0.019  0.024
   27  0.018  0.002  0.012  0.033
   28  0.010  0.000  0.016  0.026
   29  0.012  0.000  0.011  0.023
   30  0.012  0.000  0.011  0.023
   31  0.012  0.000  0.011  0.023
   32  0.012  0.000  0.011  0.023
   33  0.012  0.000  0.011  0.023
   34  0.012  0.000  0.011  0.023
   35  0.007  0.000  0.012  0.019
   36  0.010  0.001  0.019  0.030
   37  0.001  0.001  0.000  0.001
   38  0.000  0.000  0.000  0.000
   39  0.000  0.000  0.000  0.000
tot    0.279  0.028  0.411  0.718
 
band    16 # energy   -5.70729488 # occ.  2.00000000
 
ion      s      p      d    tot
    1  0.000  0.001  0.004  0.005
    2  0.001  0.001  0.005  0.006
    3  0.009  0.001  0.005  0.015
    4  0.001  0.001  0.005  0.006
    5  0.000  0.001  0.011  0.012
    6  0.005  0.001  0.004  0.010
    7  0.009  0.001  0.005  0.015
    8  0.005  0.001  0.004  0.010
    9  0.000  0.000  0.009  0.010
   10  0.000  0.001  0.047  0.048
   11  0.016  0.001  0.020  0.037
   12  0.006  0.002  0.019  0.027
   13  0.016  0.001  0.020  0.037
   14  0.000  0.000  0.053  0.053
   15  0.002  0.000  0.020  0.022
   16  0.006  0.002  0.019  0.027
   17  0.002  0.000  0.020  0.022
   18  0.000  0.001  0.011  0.012
   19  0.006  0.000  0.019  0.025
   20  0.000  0.000  0.064  0.064
   21  0.018  0.001  0.021  0.040
   22  0.003  0.001  0.019  0.023
   23  0.018  0.001  0.021  0.040
   24  0.000  0.001  0.036  0.038
   25  0.000  0.001  0.012  0.013
   26  0.006  0.000  0.019  0.025
   27  0.003  0.001  0.019  0.023
   28  0.000  0.000  0.009  0.009
   29  0.002  0.000  0.004  0.006
   30  0.009  0.001  0.004  0.014
   31  0.002  0.000  0.004  0.006
   32  0.002  0.001  0.004  0.008
   33  0.009  0.001  0.004  0.014
   34  0.002  0.001  0.004  0.008
   35  0.000  0.000  0.004  0.004
   36  0.000  0.002  0.011  0.014
   37  0.000  0.000  0.000  0.000
   38  0.000  0.000  0.000  0.000
   39  0.000  0.000  0.000  0.000
tot    0.157  0.031  0.559  0.748
 
band    17 # energy   -5.70727629 # occ.  2.00000000
 
ion      s      p      d    tot
    1  0.000  0.001  0.004  0.005
    2  0.009  0.001  0.004  0.014
    3  0.001  0.000  0.005  0.006
    4  0.009  0.001  0.004  0.014
    5  0.000  0.001  0.011  0.012
    6  0.005  0.001  0.005  0.011
    7  0.001  0.000  0.005  0.006
    8  0.005  0.001  0.005  0.011
    9  0.000  0.000  0.009  0.010
   10  0.008  0.002  0.009  0.020
   11  0.005  0.000  0.042  0.048
   12  0.002  0.001  0.038  0.041
   13  0.005  0.000  0.042  0.048
   14  0.021  0.001  0.010  0.032
   15  0.001  0.001  0.014  0.016
   16  0.002  0.001  0.038  0.041
   17  0.001  0.001  0.014  0.016
   18  0.003  0.000  0.023  0.026
   19  0.002  0.001  0.014  0.017
   20  0.024  0.002  0.006  0.032
   21  0.006  0.000  0.050  0.056
   22  0.001  0.001  0.030  0.033
   23  0.006  0.000  0.050  0.056
   24  0.004  0.001  0.013  0.018
   25  0.007  0.000  0.022  0.029
   26  0.002  0.001  0.014  0.017
   27  0.001  0.001  0.030  0.033
   28  0.000  0.000  0.009  0.009
   29  0.007  0.001  0.005  0.012
   30  0.000  0.000  0.004  0.005
   31  0.007  0.001  0.005  0.012
   32  0.006  0.001  0.004  0.011
   33  0.000  0.000  0.004  0.005
   34  0.006  0.001  0.004  0.011
   35  0.000  0.000  0.004  0.004
   36  0.000  0.002  0.011  0.014
   37  0.000  0.000  0.000  0.000
   38  0.000  0.000  0.000  0.000
   39  0.000  0.000  0.000  0.000
tot    0.157  0.031  0.559  0.748
 
band    18 # energy   -5.69653427 # occ.  2.00000000
 
ion      s      p      d    tot
    1  0.014  0.002  0.002  0.017
    2  0.000  0.001  0.008  0.009
    3  0.000  0.001  0.008  0.009
    4  0.000  0.001  0.008  0.009
    5  0.000  0.000  0.002  0.002
    6  0.000  0.001  0.008  0.009
    7  0.000  0.001  0.008  0.009
    8  0.000  0.001  0.008  0.009
    9  0.016  0.001  0.000  0.017
   10  0.010  0.002  0.011  0.023
   11  0.003  0.000  0.040  0.043
   12  0.010  0.002  0.011  0.023
   13  0.003  0.000  0.040  0.043
   14  0.003  0.000  0.040  0.043
   15  0.002  0.001  0.025  0.028
   16  0.010  0.002  0.011  0.023
   17  0.002  0.001  0.025  0.028
   18  0.002  0.001  0.025  0.028
   19  0.004  0.001  0.016  0.022
   20  0.002  0.000  0.046  0.048
   21  0.002  0.000  0.045  0.048
   22  0.013  0.001  0.016  0.030
   23  0.002  0.000  0.045  0.048
   24  0.013  0.001  0.016  0.030
   25  0.004  0.001  0.016  0.022
   26  0.004  0.001  0.016  0.022
   27  0.013  0.001  0.016  0.030
   28  0.015  0.001  0.000  0.016
   29  0.000  0.001  0.007  0.008
   30  0.000  0.001  0.007  0.008
   31  0.000  0.001  0.007  0.008
   32  0.000  0.001  0.007  0.008
   33  0.000  0.001  0.007  0.008
   34  0.000  0.001  0.007  0.008
   35  0.011  0.002  0.002  0.014
   36  0.000  0.000  0.001  0.001
   37  0.000  0.000  0.000  0.000
   38  0.000  0.000  0.000  0.000
   39  0.000  0.000  0.000  0.000
tot    0.158  0.031  0.558  0.746
 
band    19 # energy   -5.68758789 # occ.  2.00000000
 
ion      s      p      d    tot
    1  0.000  0.001  0.014  0.015
    2  0.000  0.001  0.005  0.006
    3  0.009  0.001  0.005  0.016
    4  0.000  0.001  0.005  0.006
    5  0.000  0.000  0.006  0.006
    6  0.006  0.001  0.004  0.011
    7  0.009  0.001  0.005  0.016
    8  0.006  0.001  0.004  0.011
    9  0.000  0.001  0.007  0.008
   10  0.012  0.000  0.019  0.031
   11  0.000  0.001  0.019  0.020
   12  0.003  0.001  0.028  0.031
   13  0.000  0.001  0.019  0.020
   14  0.001  0.001  0.019  0.020
   15  0.004  0.001  0.048  0.053
   16  0.003  0.001  0.028  0.031
   17  0.004  0.001  0.049  0.053
   18  0.017  0.002  0.006  0.024
   19  0.004  0.001  0.048  0.053
   20  0.000  0.000  0.021  0.021
   21  0.000  0.001  0.017  0.019
   22  0.005  0.001  0.029  0.035
   23  0.000  0.001  0.017  0.019
   24  0.021  0.001  0.016  0.038
   25  0.017  0.002  0.005  0.024
   26  0.004  0.001  0.048  0.053
   27  0.005  0.001  0.029  0.035
   28  0.000  0.001  0.005  0.006
   29  0.002  0.000  0.003  0.005
   30  0.008  0.001  0.003  0.013
   31  0.002  0.000  0.003  0.005
   32  0.003  0.001  0.005  0.008
   33  0.008  0.001  0.003  0.013
   34  0.003  0.001  0.005  0.008
   35  0.000  0.001  0.009  0.010
   36  0.000  0.000  0.003  0.003
   37  0.000  0.000  0.000  0.000
   38  0.000  0.000  0.000  0.000
   39  0.000  0.000  0.000  0.000
tot    0.156  0.030  0.561  0.747
 
band    20 # energy   -5.68757083 # occ.  2.00000000
 
ion      s      p      d    tot
    1  0.000  0.001  0.014  0.015
    2  0.010  0.001  0.004  0.015
    3  0.001  0.000  0.005  0.006
    4  0.010  0.001  0.004  0.015
    5  0.000  0.000  0.006  0.006
    6  0.005  0.001  0.005  0.011
    7  0.001  0.000  0.005  0.006
    8  0.005  0.001  0.005  0.011
    9  0.000  0.001  0.007  0.008
   10  0.000  0.001  0.030  0.031
   11  0.000  0.001  0.019  0.020
   12  0.009  0.000  0.022  0.031
   13  0.000  0.001  0.019  0.020
   14  0.000  0.001  0.019  0.020
   15  0.013  0.002  0.020  0.034
   16  0.009  0.000  0.022  0.031
   17  0.013  0.002  0.020  0.034
   18  0.000  0.000  0.063  0.063
   19  0.013  0.001  0.019  0.034
   20  0.000  0.002  0.016  0.018
   21  0.000  0.001  0.020  0.020
   22  0.016  0.001  0.021  0.037
   23  0.000  0.001  0.020  0.020
   24  0.000  0.000  0.033  0.034
   25  0.000  0.000  0.063  0.063
   26  0.013  0.001  0.019  0.034
   27  0.016  0.001  0.021  0.037
   28  0.000  0.001  0.005  0.006
   29  0.007  0.001  0.004  0.012
   30  0.000  0.000  0.004  0.005
   31  0.007  0.001  0.004  0.012
   32  0.006  0.001  0.003  0.009
   33  0.000  0.000  0.004  0.005
   34  0.006  0.001  0.003  0.009
   35  0.000  0.001  0.009  0.010
   36  0.000  0.000  0.003  0.003
   37  0.000  0.000  0.000  0.000
   38  0.000  0.000  0.000  0.000
   39  0.000  0.000  0.000  0.000