PROCAR new format
# of k-points:   10         # of bands:  252         # of ions:   37

 k-point     1 :    0.00000000 0.00000000 0.00000000     weight = 0.01562500

band     1 # energy  -17.15407379 # occ.  2.00000000
 
ion      s      p      d    tot
    1  0.000  0.000  0.000  0.000
    2  0.000  0.000  0.000  0.000
    3  0.000  0.000  0.000  0.000
    4  0.000  0.000  0.000  0.000
    5  0.000  0.000  0.000  0.000
    6  0.000  0.000  0.000  0.000
    7  0.000  0.000  0.000  0.000
    8  0.000  0.000  0.000  0.000
    9  0.000  0.000  0.000  0.000
   10  0.000  0.000  0.000  0.000
   11  0.000  0.000  0.000  0.000
   12  0.000  0.000  0.000  0.000
   13  0.000  0.000  0.000  0.000
   14  0.000  0.000  0.000  0.000
   15  0.000  0.000  0.000  0.000
   16  0.000  0.000  0.000  0.000
   17  0.000  0.000  0.000  0.000
   18  0.000  0.000  0.000  0.000
   19  0.000  0.000  0.000  0.000
   20  0.000  0.000  0.000  0.000
   21  0.000  0.000  0.000  0.000
   22  0.000  0.000  0.000  0.000
   23  0.000  0.000  0.000  0.000
   24  0.000  0.000  0.000  0.000
   25  0.000  0.000  0.000  0.000
   26  0.000  0.000  0.000  0.000
   27  0.000  0.000  0.000  0.000
   28  0.000  0.000  0.000  0.000
   29  0.000  0.000  0.000  0.000
   30  0.000  0.000  0.000  0.000
   31  0.000  0.000  0.000  0.000
   32  0.000  0.000  0.000  0.000
   33  0.000  0.000  0.000  0.000
   34  0.000  0.000  0.000  0.000
   35  0.000  0.000  0.000  0.000
   36  0.027  0.047  0.081  0.155
   37  0.767  0.013  0.000  0.780
tot    0.795  0.060  0.081  0.936
 
band     2 # energy   -8.16223020 # occ.  2.00000000
 
ion      s      p      d    tot
    1  0.007  0.001  0.000  0.007
    2  0.007  0.001  0.000  0.007
    3  0.007  0.001  0.000  0.007
    4  0.007  0.001  0.000  0.007
    5  0.007  0.001  0.000  0.007
    6  0.007  0.001  0.000  0.007
    7  0.007  0.001  0.000  0.007
    8  0.007  0.001  0.000  0.007
    9  0.007  0.001  0.000  0.007
   10  0.027  0.000  0.000  0.027
   11  0.027  0.000  0.000  0.027
   12  0.027  0.000  0.000  0.027
   13  0.027  0.000  0.000  0.027
   14  0.027  0.000  0.000  0.027
   15  0.027  0.000  0.000  0.027
   16  0.027  0.000  0.000  0.027
   17  0.027  0.000  0.000  0.027
   18  0.027  0.000  0.000  0.027
   19  0.024  0.000  0.000  0.025
   20  0.025  0.000  0.000  0.025
   21  0.025  0.000  0.000  0.025
   22  0.025  0.000  0.000  0.025
   23  0.025  0.000  0.000  0.025
   24  0.025  0.000  0.000  0.025
   25  0.024  0.000  0.000  0.025
   26  0.024  0.000  0.000  0.025
   27  0.025  0.000  0.000  0.025
   28  0.005  0.000  0.000  0.005
   29  0.005  0.000  0.000  0.005
   30  0.005  0.000  0.000  0.005
   31  0.005  0.000  0.000  0.005
   32  0.005  0.000  0.000  0.005
   33  0.005  0.000  0.000  0.005
   34  0.005  0.000  0.000  0.005
   35  0.005  0.000  0.000  0.005
   36  0.004  0.001  0.000  0.005
   37  0.000  0.000  0.000  0.000
tot    0.565  0.012  0.003  0.581
 
band     3 # energy   -6.97570006 # occ.  2.00000000
 
ion      s      p      d    tot
    1  0.017  0.000  0.001  0.019
    2  0.017  0.000  0.001  0.018
    3  0.017  0.000  0.001  0.018
    4  0.017  0.000  0.001  0.018
    5  0.017  0.000  0.001  0.018
    6  0.017  0.000  0.001  0.018
    7  0.017  0.000  0.001  0.018
    8  0.017  0.000  0.001  0.018
    9  0.017  0.000  0.001  0.018
   10  0.010  0.002  0.002  0.014
   11  0.010  0.002  0.003  0.014
   12  0.010  0.002  0.002  0.014
   13  0.010  0.002  0.003  0.014
   14  0.010  0.002  0.003  0.014
   15  0.010  0.002  0.003  0.014
   16  0.010  0.002  0.002  0.014
   17  0.010  0.002  0.003  0.014
   18  0.010  0.002  0.003  0.014
   19  0.015  0.001  0.004  0.020
   20  0.014  0.001  0.004  0.019
   21  0.014  0.001  0.004  0.019
   22  0.016  0.001  0.003  0.020
   23  0.014  0.001  0.004  0.019
   24  0.016  0.001  0.003  0.020
   25  0.015  0.001  0.004  0.020
   26  0.015  0.001  0.004  0.020
   27  0.016  0.001  0.003  0.020
   28  0.015  0.001  0.000  0.016
   29  0.014  0.001  0.000  0.015
   30  0.014  0.001  0.000  0.015
   31  0.014  0.001  0.000  0.015
   32  0.014  0.001  0.000  0.015
   33  0.014  0.001  0.000  0.015
   34  0.014  0.001  0.000  0.015
   35  0.015  0.001  0.000  0.016
   36  0.008  0.001  0.000  0.009
   37  0.000  0.000  0.000  0.001
tot    0.495  0.033  0.071  0.598
 
band     4 # energy   -6.04577721 # occ.  2.00000000
 
ion      s      p      d    tot
    1  0.004  0.001  0.018  0.022
    2  0.012  0.000  0.013  0.026
    3  0.013  0.000  0.013  0.026
    4  0.012  0.000  0.013  0.026
    5  0.008  0.000  0.010  0.018
    6  0.013  0.000  0.013  0.026
    7  0.013  0.000  0.013  0.026
    8  0.013  0.000  0.013  0.026
    9  0.034  0.000  0.007  0.042
   10  0.014  0.001  0.017  0.032
   11  0.013  0.002  0.013  0.027
   12  0.014  0.001  0.017  0.032
   13  0.013  0.002  0.013  0.027
   14  0.013  0.002  0.013  0.027
   15  0.002  0.001  0.018  0.021
   16  0.014  0.001  0.017  0.032
   17  0.002  0.001  0.018  0.021
   18  0.002  0.001  0.018  0.021
   19  0.000  0.001  0.010  0.011
   20  0.013  0.001  0.009  0.023
   21  0.013  0.001  0.009  0.023
   22  0.006  0.001  0.002  0.009
   23  0.013  0.001  0.009  0.023
   24  0.006  0.001  0.002  0.009
   25  0.000  0.001  0.010  0.011
   26  0.000  0.001  0.010  0.011
   27  0.006  0.001  0.002  0.009
   28  0.007  0.000  0.001  0.008
   29  0.005  0.000  0.004  0.009
   30  0.005  0.000  0.004  0.009
   31  0.005  0.000  0.004  0.009
   32  0.005  0.000  0.004  0.009
   33  0.005  0.000  0.004  0.009
   34  0.005  0.000  0.004  0.009
   35  0.014  0.000  0.001  0.016
   36  0.000  0.001  0.010  0.011
   37  0.000  0.002  0.000  0.003
tot    0.315  0.029  0.355  0.698
 
band     5 # energy   -6.02376530 # occ.  2.00000000
 
ion      s      p      d    tot
    1  0.027  0.000  0.004  0.032
    2  0.008  0.000  0.011  0.020
    3  0.008  0.000  0.012  0.020
    4  0.008  0.000  0.011  0.020
    5  0.007  0.000  0.012  0.019
    6  0.008  0.000  0.012  0.020
    7  0.008  0.000  0.012  0.020
    8  0.008  0.000  0.012  0.020
    9  0.000  0.001  0.012  0.013
   10  0.001  0.000  0.032  0.033
   11  0.003  0.001  0.023  0.026
   12  0.001  0.000  0.032  0.033
   13  0.003  0.001  0.023  0.026
   14  0.003  0.001  0.023  0.026
   15  0.029  0.002  0.009  0.041
   16  0.001  0.000  0.032  0.033
   17  0.029  0.002  0.009  0.041
   18  0.029  0.002  0.009  0.041
   19  0.004  0.001  0.013  0.018
   20  0.012  0.000  0.018  0.030
   21  0.012  0.000  0.018  0.030
   22  0.007  0.002  0.011  0.019
   23  0.012  0.000  0.018  0.030
   24  0.007  0.002  0.011  0.019
   25  0.004  0.001  0.013  0.018
   26  0.004  0.001  0.013  0.018
   27  0.007  0.002  0.011  0.019
   28  0.000  0.000  0.000  0.000
   29  0.000  0.000  0.003  0.003
   30  0.000  0.000  0.003  0.003
   31  0.000  0.000  0.003  0.003
   32  0.000  0.000  0.003  0.003
   33  0.000  0.000  0.003  0.003
   34  0.000  0.000  0.003  0.003
   35  0.007  0.000  0.000  0.007
   36  0.002  0.001  0.008  0.011
   37  0.001  0.003  0.000  0.003
tot    0.265  0.024  0.439  0.728
 
band     6 # energy   -6.01464584 # occ.  2.00000000
 
ion      s      p      d    tot
    1  0.000  0.000  0.008  0.009
    2  0.004  0.001  0.004  0.008
    3  0.007  0.001  0.003  0.011
    4  0.004  0.001  0.004  0.009
    5  0.000  0.001  0.007  0.008
    6  0.000  0.000  0.003  0.004
    7  0.007  0.001  0.003  0.011
    8  0.000  0.000  0.003  0.003
    9  0.000  0.000  0.001  0.001
   10  0.000  0.000  0.038  0.038
   11  0.039  0.001  0.015  0.055
   12  0.028  0.002  0.012  0.041
   13  0.040  0.001  0.014  0.056
   14  0.000  0.003  0.024  0.028
   15  0.001  0.001  0.011  0.013
   16  0.027  0.002  0.013  0.041
   17  0.001  0.001  0.011  0.014
   18  0.000  0.004  0.005  0.008
   19  0.007  0.001  0.011  0.020
   20  0.000  0.002  0.033  0.035
   21  0.045  0.002  0.014  0.060
   22  0.013  0.001  0.011  0.025
   23  0.044  0.002  0.014  0.060
   24  0.000  0.000  0.028  0.029
   25  0.000  0.004  0.003  0.007
   26  0.008  0.001  0.012  0.020
   27  0.013  0.001  0.011  0.025
   28  0.000  0.000  0.001  0.001
   29  0.000  0.000  0.002  0.003
   30  0.004  0.001  0.003  0.008
   31  0.000  0.000  0.002  0.003
   32  0.005  0.001  0.003  0.009
   33  0.004  0.001  0.003  0.008
   34  0.005  0.001  0.003  0.009
   35  0.000  0.000  0.004  0.004
   36  0.000  0.002  0.008  0.009
   37  0.000  0.000  0.000  0.000
tot    0.305  0.043  0.346  0.695
 
band     7 # energy   -6.01463161 # occ.  2.00000000
 
ion      s      p      d    tot
    1  0.000  0.000  0.008  0.009
    2  0.003  0.001  0.003  0.007
    3  0.001  0.000  0.003  0.004
    4  0.003  0.001  0.003  0.007
    5  0.000  0.001  0.007  0.008
    6  0.007  0.001  0.004  0.012
    7  0.001  0.000  0.003  0.004
    8  0.007  0.001  0.004  0.012
    9  0.000  0.000  0.001  0.001
   10  0.036  0.002  0.004  0.042
   11  0.014  0.003  0.021  0.037
   12  0.009  0.001  0.030  0.039
   13  0.013  0.003  0.021  0.037
   14  0.053  0.001  0.011  0.065
   15  0.000  0.003  0.007  0.010
   16  0.010  0.001  0.029  0.039
   17  0.000  0.003  0.007  0.010
   18  0.002  0.000  0.013  0.015
   19  0.003  0.003  0.006  0.012
   20  0.059  0.001  0.008  0.068
   21  0.014  0.002  0.027  0.043
   22  0.004  0.001  0.023  0.028
   23  0.015  0.002  0.027  0.044
   24  0.017  0.002  0.005  0.024
   25  0.010  0.000  0.014  0.025
   26  0.002  0.003  0.006  0.011
   27  0.005  0.001  0.022  0.027
   28  0.000  0.000  0.001  0.001
   29  0.006  0.001  0.003  0.010
   30  0.002  0.001  0.003  0.005
   31  0.006  0.001  0.003  0.010
   32  0.001  0.000  0.002  0.004
   33  0.002  0.001  0.003  0.005
   34  0.001  0.000  0.002  0.004
   35  0.000  0.000  0.004  0.004
   36  0.000  0.002  0.008  0.009
   37  0.000  0.000  0.000  0.000
tot    0.305  0.043  0.346  0.695
 
band     8 # energy   -5.99197537 # occ.  2.00000000
 
ion      s      p      d    tot
    1  0.004  0.001  0.001  0.006
    2  0.000  0.001  0.006  0.007
    3  0.001  0.001  0.006  0.007
    4  0.000  0.001  0.006  0.007
    5  0.020  0.002  0.000  0.022
    6  0.000  0.001  0.006  0.007
    7  0.001  0.001  0.006  0.007
    8  0.000  0.001  0.006  0.007
    9  0.000  0.000  0.003  0.004
   10  0.023  0.003  0.003  0.029
   11  0.021  0.001  0.020  0.043
   12  0.022  0.003  0.003  0.028
   13  0.021  0.001  0.020  0.043
   14  0.021  0.001  0.020  0.042
   15  0.003  0.001  0.027  0.030
   16  0.022  0.003  0.003  0.028
   17  0.003  0.001  0.027  0.030
   18  0.002  0.001  0.027  0.030
   19  0.022  0.002  0.011  0.034
   20  0.011  0.003  0.010  0.024
   21  0.011  0.003  0.010  0.024
   22  0.007  0.000  0.025  0.032
   23  0.011  0.003  0.010  0.024
   24  0.006  0.000  0.026  0.032
   25  0.020  0.002  0.011  0.033
   26  0.022  0.002  0.011  0.034
   27  0.007  0.000  0.025  0.032
   28  0.013  0.001  0.000  0.015
   29  0.000  0.000  0.004  0.005
   30  0.000  0.000  0.004  0.005
   31  0.000  0.000  0.004  0.005
   32  0.000  0.000  0.004  0.005
   33  0.000  0.000  0.004  0.005
   34  0.000  0.000  0.004  0.005
   35  0.002  0.001  0.003  0.005
   36  0.001  0.000  0.000  0.001
   37  0.000  0.000  0.000  0.000
tot    0.298  0.040  0.359  0.697
 
band     9 # energy   -5.99076923 # occ.  2.00000000
 
ion      s      p      d    tot
    1  0.000  0.001  0.003  0.004
    2  0.004  0.001  0.004  0.009
    3  0.007  0.001  0.003  0.012
    4  0.005  0.001  0.004  0.009
    5  0.000  0.000  0.004  0.004
    6  0.000  0.000  0.003  0.004
    7  0.007  0.001  0.003  0.012
    8  0.000  0.000  0.003  0.004
    9  0.000  0.001  0.011  0.012
   10  0.025  0.000  0.016  0.041
   11  0.002  0.001  0.019  0.022
   12  0.006  0.004  0.007  0.017
   13  0.002  0.001  0.019  0.022
   14  0.008  0.001  0.008  0.017
   15  0.016  0.001  0.032  0.049
   16  0.007  0.003  0.008  0.018
   17  0.014  0.001  0.033  0.049
   18  0.061  0.002  0.005  0.068
   19  0.011  0.001  0.029  0.041
   20  0.000  0.001  0.012  0.013
   21  0.000  0.002  0.011  0.013
   22  0.008  0.003  0.015  0.026
   23  0.000  0.002  0.011  0.013
   24  0.038  0.001  0.012  0.050
   25  0.044  0.002  0.003  0.049
   26  0.010  0.001  0.030  0.040
   27  0.009  0.003  0.015  0.027
   28  0.000  0.000  0.007  0.007
   29  0.000  0.000  0.002  0.003
   30  0.003  0.001  0.002  0.006
   31  0.000  0.000  0.002  0.002
   32  0.005  0.001  0.003  0.009
   33  0.003  0.001  0.002  0.006
   34  0.005  0.001  0.003  0.008
   35  0.000  0.001  0.004  0.005
   36  0.000  0.000  0.001  0.001
   37  0.000  0.000  0.000  0.000
tot    0.301  0.042  0.350  0.693
 
band    10 # energy   -5.99074833 # occ.  2.00000000
 
ion      s      p      d    tot
    1  0.000  0.001  0.003  0.004
    2  0.004  0.001  0.003  0.008
    3  0.001  0.000  0.004  0.005
    4  0.004  0.001  0.003  0.007
    5  0.000  0.000  0.004  0.004
    6  0.008  0.001  0.004  0.013
    7  0.001  0.000  0.003  0.005
    8  0.008  0.001  0.004  0.013
    9  0.000  0.001  0.011  0.012
   10  0.000  0.005  0.005  0.009
   11  0.005  0.001  0.012  0.019
   12  0.020  0.001  0.013  0.034
   13  0.006  0.001  0.011  0.018
   14  0.000  0.001  0.023  0.024
   15  0.045  0.001  0.015  0.061
   16  0.019  0.001  0.013  0.033
   17  0.046  0.002  0.014  0.062
   18  0.000  0.001  0.042  0.043
   19  0.032  0.002  0.012  0.046
   20  0.000  0.002  0.011  0.013
   21  0.000  0.001  0.012  0.013
   22  0.028  0.001  0.013  0.043
   23  0.000  0.001  0.012  0.013
   24  0.000  0.004  0.015  0.019
   25  0.000  0.000  0.038  0.039
   26  0.033  0.002  0.011  0.046
   27  0.027  0.001  0.013  0.042
   28  0.000  0.000  0.007  0.007
   29  0.005  0.001  0.003  0.009
   30  0.002  0.000  0.003  0.005
   31  0.005  0.001  0.003  0.009
   32  0.001  0.000  0.002  0.003
   33  0.002  0.001  0.003  0.005
   34  0.001  0.000  0.002  0.003
   35  0.000  0.001  0.004  0.005
   36  0.000  0.000  0.001  0.001
   37  0.000  0.000  0.000  0.000
tot    0.301  0.042  0.350  0.693
 
band    11 # energy   -5.90057460 # occ.  2.00000000
 
ion      s      p      d    tot
    1  0.002  0.000  0.000  0.002
    2  0.000  0.000  0.002  0.002
    3  0.000  0.000  0.002  0.002
    4  0.000  0.000  0.002  0.002
    5  0.003  0.000  0.000  0.003
    6  0.000  0.000  0.002  0.002
    7  0.000  0.000  0.002  0.002
    8  0.000  0.000  0.002  0.002
    9  0.002  0.000  0.001  0.004
   10  0.001  0.000  0.009  0.010
   11  0.004  0.001  0.003  0.007
   12  0.001  0.000  0.009  0.010
   13  0.004  0.001  0.003  0.007
   14  0.004  0.001  0.003  0.007
   15  0.007  0.001  0.006  0.014
   16  0.001  0.000  0.009  0.010
   17  0.007  0.001  0.006  0.014
   18  0.007  0.001  0.006  0.014
   19  0.005  0.001  0.019  0.025
   20  0.000  0.000  0.028  0.028
   21  0.000  0.000  0.028  0.028
   22  0.013  0.002  0.019  0.034
   23  0.000  0.000  0.028  0.028
   24  0.013  0.002  0.019  0.034
   25  0.005  0.001  0.019  0.025
   26  0.005  0.001  0.019  0.025
   27  0.013  0.002  0.019  0.034
   28  0.022  0.000  0.021  0.043
   29  0.021  0.000  0.017  0.039
   30  0.021  0.000  0.017  0.039
   31  0.021  0.000  0.017  0.039
   32  0.021  0.000  0.017  0.039
   33  0.021  0.000  0.017  0.039
   34  0.021  0.000  0.017  0.039
   35  0.019  0.000  0.019  0.039
   36  0.011  0.000  0.018  0.029
   37  0.000  0.001  0.000  0.001
tot    0.279  0.017  0.425  0.721
 
band    12 # energy   -5.53040106 # occ.  2.00000000
 
ion      s      p      d    tot
    1  0.010  0.001  0.003  0.014
    2  0.000  0.001  0.008  0.009
    3  0.000  0.001  0.008  0.009
    4  0.000  0.001  0.008  0.009
    5  0.002  0.000  0.001  0.003
    6  0.000  0.001  0.008  0.009
    7  0.000  0.001  0.008  0.009
    8  0.000  0.001  0.008  0.009
    9  0.019  0.002  0.000  0.021
   10  0.010  0.001  0.017  0.028
   11  0.001  0.000  0.045  0.046
   12  0.010  0.001  0.017  0.029
   13  0.001  0.000  0.045  0.046
   14  0.001  0.000  0.045  0.046
   15  0.005  0.001  0.017  0.024
   16  0.010  0.001  0.017  0.029
   17  0.005  0.001  0.017  0.024
   18  0.005  0.001  0.017  0.024
   19  0.002  0.001  0.021  0.023
   20  0.003  0.000  0.045  0.049
   21  0.003  0.000  0.045  0.049
   22  0.012  0.001  0.012  0.026
   23  0.003  0.000  0.045  0.049
   24  0.012  0.001  0.012  0.026
   25  0.002  0.001  0.021  0.024
   26  0.002  0.001  0.021  0.023
   27  0.012  0.001  0.012  0.026
   28  0.012  0.001  0.000  0.012
   29  0.000  0.001  0.006  0.006
   30  0.000  0.001  0.006  0.006
   31  0.000  0.001  0.006  0.006
   32  0.000  0.001  0.006  0.006
   33  0.000  0.001  0.006  0.006
   34  0.000  0.001  0.006  0.006
   35  0.009  0.002  0.003  0.014
   36  0.000  0.000  0.005  0.005
   37  0.000  0.002  0.000  0.002
tot    0.152  0.031  0.570  0.753
 
band    13 # energy   -5.52484769 # occ.  2.00000000
 
ion      s      p      d    tot
    1  0.000  0.001  0.004  0.005
    2  0.009  0.001  0.004  0.015
    3  0.001  0.000  0.005  0.006
    4  0.009  0.001  0.004  0.015
    5  0.000  0.001  0.011  0.012
    6  0.005  0.001  0.005  0.011
    7  0.001  0.000  0.005  0.006
    8  0.005  0.001  0.005  0.011
    9  0.000  0.000  0.010  0.010
   10  0.008  0.002  0.010  0.020
   11  0.005  0.000  0.043  0.049
   12  0.002  0.001  0.038  0.041
   13  0.005  0.000  0.043  0.049
   14  0.021  0.001  0.010  0.032
   15  0.001  0.001  0.015  0.016
   16  0.002  0.001  0.038  0.041
   17  0.001  0.001  0.014  0.016
   18  0.003  0.000  0.024  0.026
   19  0.002  0.001  0.014  0.017
   20  0.024  0.001  0.007  0.032
   21  0.006  0.000  0.050  0.056
   22  0.001  0.001  0.032  0.034
   23  0.006  0.000  0.050  0.056
   24  0.005  0.001  0.012  0.018
   25  0.007  0.000  0.022  0.029
   26  0.002  0.001  0.014  0.017
   27  0.001  0.001  0.032  0.034
   28  0.000  0.000  0.007  0.008
   29  0.006  0.001  0.004  0.012
   30  0.000  0.000  0.004  0.004
   31  0.006  0.001  0.004  0.012
   32  0.006  0.001  0.004  0.011
   33  0.000  0.000  0.004  0.004
   34  0.006  0.001  0.004  0.011
   35  0.000  0.000  0.003  0.003
   36  0.000  0.002  0.008  0.010
   37  0.000  0.000  0.000  0.000
tot    0.156  0.031  0.564  0.750
 
band    14 # energy   -5.52484551 # occ.  2.00000000
 
ion      s      p      d    tot
    1  0.000  0.001  0.004  0.005
    2  0.001  0.001  0.005  0.006
    3  0.009  0.001  0.005  0.015
    4  0.001  0.001  0.005  0.006
    5  0.000  0.001  0.011  0.012
    6  0.005  0.001  0.004  0.010
    7  0.009  0.001  0.005  0.015
    8  0.005  0.001  0.004  0.010
    9  0.000  0.000  0.010  0.010
   10  0.000  0.001  0.048  0.049
   11  0.016  0.001  0.021  0.038
   12  0.006  0.002  0.019  0.027
   13  0.016  0.001  0.021  0.038
   14  0.000  0.000  0.054  0.054
   15  0.002  0.000  0.020  0.023
   16  0.006  0.002  0.019  0.027
   17  0.002  0.000  0.021  0.023
   18  0.000  0.001  0.012  0.013
   19  0.005  0.000  0.019  0.025
   20  0.000  0.000  0.065  0.065
   21  0.018  0.001  0.021  0.040
   22  0.004  0.001  0.019  0.023
   23  0.018  0.001  0.021  0.040
   24  0.000  0.001  0.039  0.040
   25  0.000  0.001  0.011  0.013
   26  0.005  0.000  0.019  0.025
   27  0.004  0.001  0.019  0.023
   28  0.000  0.000  0.007  0.008
   29  0.002  0.000  0.004  0.006
   30  0.008  0.001  0.004  0.014
   31  0.002  0.000  0.004  0.006
   32  0.002  0.001  0.004  0.007
   33  0.008  0.001  0.004  0.014
   34  0.002  0.001  0.004  0.007
   35  0.000  0.000  0.003  0.003
   36  0.000  0.002  0.008  0.010
   37  0.000  0.000  0.000  0.000
tot    0.156  0.031  0.564  0.750
 
band    15 # energy   -5.50389883 # occ.  2.00000000
 
ion      s      p      d    tot
    1  0.000  0.001  0.014  0.014
    2  0.010  0.001  0.004  0.015
    3  0.001  0.000  0.005  0.006
    4  0.010  0.001  0.004  0.015
    5  0.000  0.000  0.005  0.006
    6  0.004  0.001  0.005  0.011
    7  0.001  0.000  0.005  0.006
    8  0.004  0.001  0.005  0.011
    9  0.000  0.001  0.007  0.008
   10  0.000  0.001  0.030  0.031
   11  0.000  0.001  0.019  0.021
   12  0.008  0.000  0.022  0.031
   13  0.000  0.001  0.019  0.021
   14  0.000  0.001  0.019  0.020
   15  0.012  0.002  0.020  0.034
   16  0.008  0.000  0.022  0.031
   17  0.012  0.002  0.020  0.034
   18  0.000  0.000  0.063  0.064
   19  0.014  0.001  0.020  0.035
   20  0.000  0.002  0.018  0.019
   21  0.000  0.001  0.021  0.022
   22  0.016  0.001  0.021  0.038
   23  0.000  0.001  0.021  0.022
   24  0.000  0.001  0.033  0.033
   25  0.000  0.000  0.066  0.066
   26  0.014  0.001  0.020  0.035
   27  0.016  0.001  0.021  0.038
   28  0.000  0.001  0.005  0.006
   29  0.006  0.001  0.004  0.011
   30  0.000  0.000  0.004  0.005
   31  0.006  0.001  0.004  0.011
   32  0.005  0.001  0.003  0.008
   33  0.000  0.000  0.004  0.005
   34  0.005  0.001  0.003  0.008
   35  0.000  0.001  0.009  0.010
   36  0.000  0.000  0.002  0.002
   37  0.000  0.000  0.000  0.000
tot    0.152  0.030  0.569  0.750
 
band    16 # energy   -5.50388082 # occ.  2.00000000
 
ion      s      p      d    tot
    1  0.000  0.001  0.014  0.014
    2  0.000  0.001  0.005  0.006
    3  0.009  0.001  0.005  0.015
    4  0.000  0.001  0.005  0.006
    5  0.000  0.000  0.005  0.006
    6  0.006  0.001  0.004  0.011
    7  0.009  0.001  0.005  0.015
    8  0.006  0.001  0.004  0.011
    9  0.000  0.001  0.007  0.008
   10  0.011  0.000  0.019  0.031
   11  0.000  0.001  0.019  0.020
   12  0.003  0.001  0.028  0.031
   13  0.000  0.001  0.019  0.020
   14  0.001  0.001  0.020  0.021
   15  0.004  0.001  0.049  0.054
   16  0.003  0.001  0.028  0.031
   17  0.004  0.001  0.049  0.054
   18  0.016  0.002  0.006  0.024
   19  0.005  0.001  0.050  0.056
   20  0.000  0.000  0.022  0.022
   21  0.000  0.001  0.019  0.020
   22  0.005  0.001  0.029  0.035
   23  0.000  0.001  0.019  0.020
   24  0.021  0.001  0.017  0.039
   25  0.018  0.001  0.005  0.024
   26  0.005  0.001  0.050  0.056
   27  0.005  0.001  0.029  0.035
   28  0.000  0.001  0.005  0.006
   29  0.001  0.000  0.003  0.005
   30  0.007  0.001  0.003  0.011
   31  0.001  0.000  0.003  0.005
   32  0.002  0.001  0.005  0.007
   33  0.007  0.001  0.003  0.011
   34  0.002  0.001  0.005  0.007
   35  0.000  0.001  0.009  0.010
   36  0.000  0.000  0.002  0.002
   37  0.000  0.000  0.000  0.000
tot    0.152  0.030  0.568  0.750
 
band    17 # energy   -5.49389788 # occ.  2.00000000
 
ion      s      p      d    tot
    1  0.013  0.001  0.000  0.014
    2  0.000  0.001  0.009  0.009
    3  0.000  0.001  0.009  0.009
    4  0.000  0.001  0.009  0.009
    5  0.015  0.002  0.001  0.018
    6  0.000  0.001  0.009  0.009
    7  0.000  0.001  0.009  0.009
    8  0.000  0.001  0.009  0.009
    9  0.000  0.000  0.002  0.002
   10  0.000  0.001  0.038  0.039
   11  0.008  0.002  0.007  0.016
   12  0.000  0.001  0.038  0.039
   13  0.008  0.002  0.007  0.016
   14  0.008  0.002  0.007  0.016
   15  0.005  0.001  0.033  0.038
   16  0.000  0.001  0.038  0.039
   17  0.005  0.001  0.033  0.038
   18  0.005  0.001  0.033  0.038
   19  0.013  0.001  0.035  0.049
   20  0.007  0.002  0.009  0.018
   21  0.007  0.002  0.009  0.018
   22  0.000  0.000  0.042  0.042
   23  0.007  0.002  0.009  0.018
   24  0.000  0.000  0.042  0.043
   25  0.013  0.001  0.035  0.049
   26  0.013  0.001  0.035  0.049
   27  0.000  0.000  0.042  0.042
   28  0.001  0.001  0.007  0.010
   29  0.001  0.000  0.005  0.006
   30  0.001  0.000  0.005  0.006
   31  0.001  0.000  0.005  0.006
   32  0.001  0.000  0.005  0.006
   33  0.001  0.000  0.005  0.006
   34  0.001  0.000  0.005  0.006
   35  0.000  0.000  0.000  0.000
   36  0.012  0.002  0.003  0.018
   37  0.001  0.004  0.000  0.005
tot    0.146  0.032  0.585  0.763
 
band    18 # energy   -5.15080883 # occ.  2.00000000
 
ion      s      p      d    tot
    1  0.011  0.000  0.003  0.014
    2  0.000  0.001  0.009  0.010
    3  0.000  0.000  0.009  0.010
    4  0.000  0.001  0.009  0.010
    5  0.001  0.000  0.013  0.014
    6  0.000  0.000  0.009  0.010
    7  0.000  0.000  0.009  0.010
    8  0.000  0.000  0.009  0.010
    9  0.004  0.001  0.003  0.007
   10  0.000  0.000  0.022  0.022
   11  0.000  0.000  0.045  0.046
   12  0.000  0.000  0.022  0.022
   13  0.000  0.000  0.045  0.046
   14  0.000  0.000  0.045  0.046
   15  0.000  0.000  0.030  0.031
   16  0.000  0.000  0.022  0.022
   17  0.000  0.000  0.030  0.031
   18  0.000  0.000  0.030  0.031
   19  0.000  0.000  0.020  0.020
   20  0.001  0.000  0.041  0.042
   21  0.001  0.000  0.041  0.042
   22  0.001  0.000  0.035  0.036
   23  0.001  0.000  0.041  0.042
   24  0.001  0.000  0.035  0.035
   25  0.000  0.000  0.020  0.020
   26  0.000  0.000  0.020  0.020
   27  0.001  0.000  0.035  0.036
   28  0.008  0.001  0.000  0.009
   29  0.000  0.001  0.014  0.015
   30  0.000  0.001  0.014  0.015
   31  0.000  0.001  0.014  0.015
   32  0.000  0.001  0.014  0.015
   33  0.000  0.001  0.014  0.015
   34  0.000  0.001  0.014  0.015
   35  0.016  0.001  0.004  0.021
   36  0.000  0.000  0.025  0.025
   37  0.001  0.009  0.000  0.010
tot    0.049  0.023  0.764  0.835
 
band    19 # energy   -5.13901679 # occ.  2.00000000
 
ion      s      p      d    tot
    1  0.000  0.000  0.017  0.017
    2  0.011  0.001  0.013  0.024
    3  0.003  0.001  0.010  0.014
    4  0.011  0.001  0.013  0.024
    5  0.000  0.000  0.032  0.032
    6  0.002  0.000  0.016  0.018
    7  0.003  0.001  0.010  0.014
    8  0.002  0.000  0.016  0.018
    9  0.000  0.001  0.008  0.009
   10  0.000  0.000  0.007  0.007
   11  0.000  0.000  0.041  0.042
   12  0.000  0.000  0.016  0.016
   13  0.000  0.000  0.041  0.042
   14  0.000  0.000  0.045  0.045
   15  0.000  0.000  0.044  0.045
   16  0.000  0.000  0.016  0.016
   17  0.000  0.000  0.044  0.045
   18  0.000  0.000  0.034  0.034
   19  0.000  0.000  0.011  0.011
   20  0.000  0.000  0.022  0.022
   21  0.001  0.000  0.037  0.039
   22  0.000  0.000  0.038  0.038
   23  0.001  0.000  0.038  0.039
   24  0.000  0.000  0.033  0.034
   25  0.000  0.000  0.010  0.010
   26  0.000  0.000  0.011  0.011
   27  0.000  0.000  0.038  0.038
   28  0.000  0.000  0.013  0.014
   29  0.003  0.001  0.006  0.010
   30  0.009  0.001  0.010  0.019
   31  0.003  0.001  0.006  0.010
   32  0.001  0.000  0.010  0.012
   33  0.009  0.001  0.010  0.019
   34  0.002  0.000  0.010  0.012
   35  0.000  0.000  0.019  0.020
   36  0.000  0.002  0.004  0.006
   37  0.000  0.000  0.000  0.000
tot    0.063  0.015  0.748  0.826
 
band    20 # energy   -5.13901550 # occ.  2.00000000
 
ion      s      p      d    tot
    1  0.000  0.000  0.017  0.017
    2  0.000  0.001  0.013  0.013
    3  0.008  0.000  0.016  0.024
    4  0.000  0.001  0.013  0.013
    5  0.000  0.000  0.032  0.032
    6  0.009  0.001  0.010  0.019
    7  0.008  0.000  0.015  0.024
    8  0.009  0.001  0.010  0.019
    9  0.000  0.001  0.008  0.009
   10  0.000  0.000  0.019  0.019
   11  0.000  0.000  0.043  0.044
   12  0.000  0.000  0.010  0.010
   13  0.000  0.000  0.043  0.044
   14  0.000  0.001  0.040  0.041
   15  0.000  0.000  0.037  0.038
   16  0.000  0.000  0.010  0.010
   17  0.000  0.000  0.038  0.038
   18  0.000  0.000  0.048  0.048
   19  0.000  0.000  0.010  0.011
   20  0.001  0.000  0.043  0.044
   21  0.000  0.000  0.028  0.028
   22  0.000  0.000  0.035  0.035
   23  0.000  0.000  0.027  0.028
   24  0.000  0.000  0.039  0.040
   25  0.001  0.000  0.011  0.012
   26  0.000  0.000  0.010  0.011
   27  0.000  0.000  0.035  0.035
   28  0.000  0.000  0.013  0.014
   29  0.006  0.000  0.011  0.017
   30  0.000  0.000  0.008  0.008
   31  0.006  0.000  0.011  0.017
   32  0.007  0.001  0.007  0.015
   33  0.000  0.000  0.008  0.008
   34  0.007  0.001  0.007  0.015
   35  0.000  0.000  0.019  0.020
   36  0.000  0.002  0.004  0.006
   37  0.000  0.000  0.000  0.000
tot    0.063  0.015  0.748  0.826
 
band    21 # energy   -5.11817534 # occ.  2.00000000
 
ion      s      p      d    tot
    1  0.002  0.001  0.008  0.010
    2  0.000  0.001  0.020  0.021
    3  0.000  0.001  0.020  0.021
    4  0.000  0.001  0.020  0.021
    5  0.029  0.002  0.000  0.031
    6  0.000  0.001  0.020  0.021
    7  0.000  0.001  0.020  0.021
    8  0.000  0.001  0.020  0.021
    9  0.017  0.000  0.011  0.028
   10  0.000  0.000  0.046  0.046
   11  0.000  0.001  0.037  0.038
   12  0.000  0.000  0.046  0.046
   13  0.000  0.001  0.037  0.038
   14  0.000  0.001  0.037  0.038
   15  0.000  0.000  0.031  0.032
   16  0.000  0.000  0.046  0.046
   17  0.000  0.000  0.031  0.032
   18  0.000  0.000  0.032  0.032
   19  0.001  0.000  0.023  0.025
   20  0.000  0.000  0.025  0.025
   21  0.000  0.000  0.025  0.025
   22  0.000  0.000  0.015  0.016
   23  0.000  0.000  0.025  0.025
   24  0.000  0.000  0.015  0.016
   25  0.001  0.000  0.024  0.025
   26  0.001  0.000  0.023  0.025
   27  0.000  0.000  0.015  0.016
   28  0.006  0.000  0.005  0.011
   29  0.000  0.000  0.010  0.010
   30  0.000  0.000  0.010  0.010
   31  0.000  0.000  0.010  0.010
   32  0.000  0.000  0.010  0.010
   33  0.000  0.000  0.010  0.010
   34  0.000  0.000  0.010  0.010
   35  0.000  0.000  0.003  0.003
   36  0.004  0.000  0.004  0.008