PROCAR new format
# of k-points:   10         # of bands:  252         # of ions:   37

 k-point     1 :    0.00000000 0.00000000 0.00000000     weight = 0.01562500

band     1 # energy  -16.08879378 # occ.  2.00000000
 
ion      s      p      d    tot
    1  0.000  0.000  0.000  0.000
    2  0.000  0.000  0.000  0.000
    3  0.000  0.000  0.000  0.000
    4  0.000  0.000  0.000  0.000
    5  0.000  0.000  0.000  0.000
    6  0.000  0.000  0.000  0.000
    7  0.000  0.000  0.000  0.000
    8  0.000  0.000  0.000  0.000
    9  0.000  0.000  0.000  0.000
   10  0.000  0.000  0.000  0.000
   11  0.000  0.000  0.000  0.000
   12  0.000  0.000  0.000  0.000
   13  0.000  0.000  0.000  0.000
   14  0.000  0.000  0.000  0.000
   15  0.000  0.000  0.000  0.000
   16  0.000  0.000  0.000  0.000
   17  0.000  0.000  0.000  0.000
   18  0.000  0.000  0.000  0.000
   19  0.000  0.000  0.000  0.000
   20  0.000  0.000  0.000  0.000
   21  0.000  0.000  0.000  0.000
   22  0.000  0.000  0.000  0.000
   23  0.000  0.000  0.000  0.000
   24  0.000  0.000  0.000  0.000
   25  0.000  0.000  0.000  0.000
   26  0.000  0.000  0.000  0.000
   27  0.000  0.000  0.000  0.000
   28  0.000  0.000  0.000  0.000
   29  0.000  0.000  0.000  0.000
   30  0.000  0.000  0.000  0.000
   31  0.000  0.000  0.000  0.000
   32  0.000  0.000  0.000  0.000
   33  0.000  0.000  0.000  0.000
   34  0.000  0.000  0.000  0.000
   35  0.000  0.000  0.000  0.000
   36  0.023  0.034  0.054  0.111
   37  0.768  0.009  0.000  0.777
tot    0.791  0.043  0.054  0.889
 
band     2 # energy   -6.40964283 # occ.  2.00000000
 
ion      s      p      d    tot
    1  0.006  0.001  0.000  0.007
    2  0.006  0.001  0.000  0.007
    3  0.006  0.001  0.000  0.007
    4  0.006  0.001  0.000  0.007
    5  0.006  0.001  0.000  0.006
    6  0.006  0.001  0.000  0.007
    7  0.006  0.001  0.000  0.007
    8  0.006  0.001  0.000  0.007
    9  0.006  0.001  0.000  0.007
   10  0.024  0.000  0.000  0.024
   11  0.024  0.000  0.000  0.024
   12  0.024  0.000  0.000  0.024
   13  0.024  0.000  0.000  0.024
   14  0.024  0.000  0.000  0.024
   15  0.024  0.000  0.000  0.024
   16  0.024  0.000  0.000  0.024
   17  0.024  0.000  0.000  0.024
   18  0.024  0.000  0.000  0.024
   19  0.023  0.000  0.000  0.024
   20  0.023  0.000  0.000  0.024
   21  0.023  0.000  0.000  0.024
   22  0.023  0.000  0.000  0.024
   23  0.023  0.000  0.000  0.024
   24  0.023  0.000  0.000  0.024
   25  0.023  0.000  0.000  0.024
   26  0.023  0.000  0.000  0.024
   27  0.023  0.000  0.000  0.024
   28  0.006  0.001  0.000  0.006
   29  0.005  0.001  0.000  0.006
   30  0.005  0.001  0.000  0.006
   31  0.005  0.001  0.000  0.006
   32  0.005  0.001  0.000  0.006
   33  0.005  0.001  0.000  0.006
   34  0.005  0.001  0.000  0.006
   35  0.006  0.001  0.000  0.006
   36  0.006  0.001  0.000  0.007
   37  0.000  0.000  0.000  0.001
tot    0.525  0.014  0.006  0.545
 
band     3 # energy   -5.53371575 # occ.  2.00000000
 
ion      s      p      d    tot
    1  0.008  0.000  0.000  0.009
    2  0.008  0.000  0.000  0.008
    3  0.008  0.000  0.000  0.008
    4  0.008  0.000  0.000  0.008
    5  0.008  0.000  0.000  0.008
    6  0.008  0.000  0.000  0.008
    7  0.008  0.000  0.000  0.008
    8  0.008  0.000  0.000  0.008
    9  0.008  0.000  0.000  0.008
   10  0.011  0.001  0.015  0.027
   11  0.011  0.001  0.015  0.027
   12  0.011  0.001  0.015  0.027
   13  0.011  0.001  0.015  0.027
   14  0.011  0.001  0.015  0.027
   15  0.011  0.001  0.016  0.027
   16  0.011  0.001  0.015  0.027
   17  0.011  0.001  0.016  0.027
   18  0.011  0.001  0.016  0.027
   19  0.013  0.001  0.017  0.031
   20  0.012  0.001  0.017  0.030
   21  0.012  0.001  0.017  0.030
   22  0.013  0.001  0.017  0.030
   23  0.012  0.001  0.017  0.030
   24  0.013  0.001  0.017  0.030
   25  0.013  0.001  0.017  0.031
   26  0.013  0.001  0.017  0.031
   27  0.013  0.001  0.017  0.030
   28  0.007  0.000  0.000  0.008
   29  0.006  0.000  0.000  0.007
   30  0.006  0.000  0.000  0.007
   31  0.006  0.000  0.000  0.007
   32  0.006  0.000  0.000  0.007
   33  0.006  0.000  0.000  0.007
   34  0.006  0.000  0.000  0.007
   35  0.007  0.000  0.000  0.008
   36  0.006  0.001  0.000  0.007
   37  0.000  0.000  0.000  0.001
tot    0.339  0.026  0.293  0.657
 
band     4 # energy   -5.25458066 # occ.  2.00000000
 
ion      s      p      d    tot
    1  0.015  0.000  0.021  0.036
    2  0.014  0.000  0.022  0.036
    3  0.014  0.000  0.022  0.036
    4  0.014  0.000  0.022  0.036
    5  0.013  0.000  0.022  0.035
    6  0.014  0.000  0.022  0.036
    7  0.014  0.000  0.022  0.036
    8  0.014  0.000  0.022  0.036
    9  0.014  0.000  0.022  0.036
   10  0.000  0.000  0.020  0.021
   11  0.000  0.000  0.019  0.020
   12  0.000  0.000  0.020  0.021
   13  0.000  0.000  0.019  0.020
   14  0.000  0.000  0.019  0.020
   15  0.001  0.000  0.020  0.021
   16  0.000  0.000  0.020  0.021
   17  0.001  0.000  0.020  0.021
   18  0.001  0.000  0.020  0.021
   19  0.000  0.000  0.011  0.011
   20  0.000  0.000  0.010  0.010
   21  0.000  0.000  0.010  0.010
   22  0.000  0.000  0.014  0.014
   23  0.000  0.000  0.010  0.010
   24  0.000  0.000  0.014  0.014
   25  0.000  0.000  0.011  0.011
   26  0.000  0.000  0.011  0.011
   27  0.000  0.000  0.014  0.014
   28  0.008  0.000  0.010  0.018
   29  0.007  0.000  0.010  0.017
   30  0.007  0.000  0.010  0.017
   31  0.007  0.000  0.010  0.017
   32  0.007  0.000  0.010  0.017
   33  0.007  0.000  0.010  0.017
   34  0.007  0.000  0.010  0.017
   35  0.009  0.000  0.011  0.020
   36  0.004  0.000  0.007  0.011
   37  0.000  0.000  0.000  0.000
tot    0.197  0.006  0.560  0.763
 
band     5 # energy   -5.13697735 # occ.  2.00000000
 
ion      s      p      d    tot
    1  0.002  0.001  0.008  0.011
    2  0.000  0.000  0.005  0.006
    3  0.000  0.000  0.005  0.006
    4  0.000  0.000  0.005  0.006
    5  0.000  0.000  0.000  0.000
    6  0.000  0.000  0.005  0.006
    7  0.000  0.000  0.005  0.006
    8  0.000  0.000  0.005  0.006
    9  0.005  0.001  0.001  0.007
   10  0.004  0.000  0.054  0.058
   11  0.004  0.001  0.017  0.021
   12  0.004  0.000  0.054  0.058
   13  0.004  0.001  0.017  0.021
   14  0.004  0.001  0.017  0.021
   15  0.012  0.001  0.023  0.035
   16  0.004  0.000  0.054  0.058
   17  0.012  0.001  0.023  0.035
   18  0.012  0.001  0.023  0.035
   19  0.000  0.000  0.042  0.043
   20  0.011  0.000  0.046  0.057
   21  0.011  0.000  0.046  0.057
   22  0.009  0.001  0.007  0.017
   23  0.011  0.000  0.046  0.057
   24  0.009  0.001  0.007  0.017
   25  0.000  0.000  0.042  0.043
   26  0.000  0.000  0.042  0.043
   27  0.009  0.001  0.007  0.017
   28  0.002  0.000  0.001  0.003
   29  0.000  0.000  0.005  0.005
   30  0.000  0.000  0.005  0.005
   31  0.000  0.000  0.005  0.005
   32  0.000  0.000  0.005  0.005
   33  0.000  0.000  0.005  0.005
   34  0.000  0.000  0.005  0.005
   35  0.002  0.000  0.000  0.003
   36  0.004  0.001  0.009  0.015
   37  0.001  0.003  0.000  0.004
tot    0.136  0.020  0.645  0.801
 
band     6 # energy   -5.13254389 # occ.  2.00000000
 
ion      s      p      d    tot
    1  0.000  0.000  0.000  0.000
    2  0.001  0.000  0.004  0.005
    3  0.002  0.001  0.005  0.007
    4  0.001  0.000  0.004  0.005
    5  0.000  0.000  0.006  0.007
    6  0.000  0.000  0.003  0.003
    7  0.002  0.001  0.005  0.007
    8  0.000  0.000  0.003  0.003
    9  0.000  0.000  0.008  0.009
   10  0.000  0.000  0.027  0.028
   11  0.004  0.000  0.056  0.060
   12  0.000  0.001  0.024  0.025
   13  0.004  0.000  0.054  0.059
   14  0.016  0.001  0.004  0.021
   15  0.005  0.001  0.029  0.035
   16  0.000  0.001  0.024  0.025
   17  0.006  0.001  0.029  0.036
   18  0.022  0.001  0.025  0.047
   19  0.003  0.000  0.063  0.065
   20  0.003  0.000  0.033  0.037
   21  0.001  0.001  0.018  0.020
   22  0.007  0.001  0.043  0.051
   23  0.001  0.001  0.017  0.019
   24  0.028  0.001  0.018  0.046
   25  0.011  0.001  0.007  0.019
   26  0.003  0.000  0.060  0.064
   27  0.007  0.001  0.044  0.051
   28  0.000  0.000  0.005  0.005
   29  0.001  0.000  0.005  0.006
   30  0.000  0.000  0.002  0.002
   31  0.001  0.000  0.005  0.006
   32  0.002  0.001  0.005  0.007
   33  0.000  0.000  0.002  0.002
   34  0.002  0.001  0.005  0.007
   35  0.000  0.000  0.010  0.010
   36  0.000  0.000  0.000  0.000
   37  0.000  0.000  0.000  0.000
tot    0.132  0.017  0.650  0.800
 
band     7 # energy   -5.13253258 # occ.  2.00000000
 
ion      s      p      d    tot
    1  0.000  0.000  0.000  0.000
    2  0.001  0.000  0.004  0.005
    3  0.000  0.000  0.003  0.003
    4  0.001  0.000  0.004  0.005
    5  0.000  0.000  0.006  0.007
    6  0.002  0.000  0.005  0.007
    7  0.000  0.000  0.003  0.003
    8  0.002  0.000  0.005  0.007
    9  0.000  0.000  0.008  0.009
   10  0.000  0.001  0.023  0.024
   11  0.012  0.001  0.020  0.033
   12  0.000  0.000  0.026  0.027
   13  0.012  0.001  0.022  0.034
   14  0.000  0.000  0.072  0.072
   15  0.017  0.001  0.026  0.043
   16  0.000  0.000  0.026  0.027
   17  0.016  0.001  0.026  0.043
   18  0.000  0.001  0.030  0.032
   19  0.008  0.001  0.024  0.033
   20  0.000  0.001  0.012  0.014
   21  0.003  0.000  0.027  0.031
   22  0.020  0.001  0.027  0.048
   23  0.003  0.000  0.028  0.031
   24  0.000  0.001  0.052  0.053
   25  0.000  0.000  0.080  0.080
   26  0.008  0.001  0.026  0.035
   27  0.021  0.001  0.026  0.048
   28  0.000  0.000  0.005  0.005
   29  0.001  0.000  0.003  0.004
   30  0.002  0.001  0.005  0.008
   31  0.001  0.000  0.003  0.004
   32  0.000  0.000  0.003  0.003
   33  0.002  0.001  0.005  0.008
   34  0.000  0.000  0.003  0.003
   35  0.000  0.000  0.010  0.010
   36  0.000  0.000  0.000  0.000
   37  0.000  0.000  0.000  0.000
tot    0.132  0.017  0.650  0.800
 
band     8 # energy   -5.12865115 # occ.  2.00000000
 
ion      s      p      d    tot
    1  0.000  0.000  0.001  0.002
    2  0.000  0.000  0.005  0.005
    3  0.000  0.000  0.005  0.005
    4  0.000  0.000  0.005  0.005
    5  0.006  0.001  0.003  0.010
    6  0.000  0.000  0.005  0.005
    7  0.000  0.000  0.005  0.005
    8  0.000  0.000  0.005  0.005
    9  0.001  0.000  0.004  0.005
   10  0.010  0.001  0.005  0.016
   11  0.009  0.000  0.045  0.054
   12  0.010  0.001  0.005  0.016
   13  0.009  0.000  0.045  0.054
   14  0.010  0.000  0.044  0.054
   15  0.000  0.000  0.043  0.043
   16  0.010  0.001  0.005  0.016
   17  0.000  0.000  0.043  0.043
   18  0.000  0.000  0.042  0.043
   19  0.014  0.001  0.021  0.036
   20  0.003  0.001  0.015  0.019
   21  0.003  0.001  0.015  0.020
   22  0.003  0.000  0.063  0.066
   23  0.003  0.001  0.016  0.020
   24  0.003  0.000  0.063  0.066
   25  0.014  0.001  0.022  0.036
   26  0.014  0.001  0.021  0.036
   27  0.003  0.000  0.063  0.066
   28  0.003  0.001  0.005  0.009
   29  0.000  0.000  0.004  0.005
   30  0.000  0.000  0.004  0.005
   31  0.000  0.000  0.004  0.005
   32  0.000  0.000  0.004  0.005
   33  0.000  0.000  0.004  0.005
   34  0.000  0.000  0.004  0.005
   35  0.004  0.001  0.005  0.010
   36  0.000  0.000  0.001  0.001
   37  0.000  0.000  0.000  0.000
tot    0.133  0.017  0.651  0.801
 
band     9 # energy   -5.12745271 # occ.  2.00000000
 
ion      s      p      d    tot
    1  0.000  0.000  0.009  0.009
    2  0.000  0.000  0.003  0.003
    3  0.001  0.001  0.005  0.007
    4  0.000  0.000  0.003  0.004
    5  0.000  0.000  0.002  0.002
    6  0.000  0.000  0.003  0.004
    7  0.001  0.001  0.005  0.007
    8  0.000  0.000  0.003  0.003
    9  0.000  0.000  0.003  0.003
   10  0.000  0.001  0.058  0.058
   11  0.005  0.001  0.029  0.035
   12  0.021  0.001  0.023  0.045
   13  0.006  0.001  0.031  0.037
   14  0.000  0.002  0.013  0.014
   15  0.004  0.000  0.032  0.037
   16  0.019  0.001  0.027  0.046
   17  0.005  0.000  0.027  0.032
   18  0.000  0.000  0.080  0.080
   19  0.009  0.001  0.027  0.036
   20  0.000  0.000  0.060  0.061
   21  0.016  0.001  0.019  0.037
   22  0.001  0.000  0.028  0.029
   23  0.015  0.001  0.023  0.039
   24  0.000  0.001  0.054  0.055
   25  0.000  0.002  0.015  0.017
   26  0.010  0.001  0.028  0.038
   27  0.001  0.000  0.030  0.032
   28  0.000  0.000  0.004  0.005
   29  0.001  0.000  0.003  0.004
   30  0.000  0.000  0.002  0.002
   31  0.001  0.000  0.003  0.004
   32  0.001  0.000  0.004  0.006
   33  0.000  0.000  0.002  0.002
   34  0.001  0.000  0.004  0.006
   35  0.000  0.000  0.002  0.002
   36  0.000  0.000  0.005  0.005
   37  0.000  0.000  0.000  0.000
tot    0.118  0.016  0.673  0.807
 
band    10 # energy   -5.12744906 # occ.  2.00000000
 
ion      s      p      d    tot
    1  0.000  0.000  0.009  0.009
    2  0.001  0.000  0.004  0.006
    3  0.000  0.000  0.002  0.002
    4  0.001  0.000  0.004  0.006
    5  0.000  0.000  0.002  0.002
    6  0.001  0.000  0.004  0.006
    7  0.000  0.000  0.002  0.002
    8  0.001  0.000  0.005  0.006
    9  0.000  0.000  0.003  0.003
   10  0.026  0.001  0.014  0.041
   11  0.002  0.001  0.019  0.023
   12  0.006  0.001  0.048  0.055
   13  0.002  0.001  0.018  0.020
   14  0.007  0.000  0.036  0.044
   15  0.002  0.000  0.061  0.063
   16  0.008  0.001  0.045  0.053
   17  0.001  0.000  0.066  0.067
   18  0.006  0.001  0.013  0.020
   19  0.003  0.001  0.020  0.025
   20  0.021  0.001  0.008  0.030
   21  0.004  0.000  0.049  0.054
   22  0.000  0.000  0.047  0.048
   23  0.006  0.000  0.045  0.052
   24  0.001  0.000  0.021  0.022
   25  0.012  0.000  0.031  0.044
   26  0.003  0.001  0.019  0.023
   27  0.000  0.000  0.045  0.046
   28  0.000  0.000  0.004  0.005
   29  0.000  0.000  0.003  0.004
   30  0.001  0.000  0.004  0.006
   31  0.000  0.000  0.003  0.004
   32  0.000  0.000  0.002  0.003
   33  0.001  0.000  0.004  0.006
   34  0.000  0.000  0.002  0.002
   35  0.000  0.000  0.002  0.002
   36  0.000  0.000  0.005  0.005
   37  0.000  0.000  0.000  0.000
tot    0.118  0.016  0.673  0.807
 
band    11 # energy   -5.09998254 # occ.  2.00000000
 
ion      s      p      d    tot
    1  0.000  0.000  0.011  0.011
    2  0.002  0.000  0.011  0.013
    3  0.002  0.000  0.011  0.013
    4  0.002  0.000  0.011  0.013
    5  0.001  0.000  0.000  0.002
    6  0.002  0.000  0.011  0.013
    7  0.002  0.000  0.011  0.013
    8  0.002  0.000  0.011  0.013
    9  0.008  0.000  0.014  0.023
   10  0.005  0.000  0.013  0.018
   11  0.000  0.000  0.026  0.027
   12  0.005  0.000  0.013  0.018
   13  0.000  0.000  0.026  0.027
   14  0.000  0.000  0.026  0.027
   15  0.000  0.000  0.039  0.039
   16  0.005  0.000  0.013  0.018
   17  0.000  0.000  0.039  0.039
   18  0.000  0.000  0.039  0.039
   19  0.001  0.001  0.006  0.007
   20  0.002  0.000  0.024  0.026
   21  0.002  0.000  0.023  0.026
   22  0.002  0.000  0.061  0.063
   23  0.002  0.000  0.023  0.026
   24  0.002  0.000  0.061  0.063
   25  0.001  0.001  0.006  0.007
   26  0.001  0.001  0.006  0.007
   27  0.002  0.000  0.061  0.063
   28  0.009  0.000  0.002  0.011
   29  0.004  0.000  0.016  0.019
   30  0.004  0.000  0.016  0.019
   31  0.004  0.000  0.015  0.019
   32  0.004  0.000  0.015  0.019
   33  0.004  0.000  0.015  0.019
   34  0.004  0.000  0.015  0.019
   35  0.007  0.000  0.031  0.038
   36  0.000  0.000  0.003  0.003
   37  0.000  0.000  0.000  0.000
tot    0.092  0.007  0.724  0.823
 
band    12 # energy   -5.09153499 # occ.  2.00000000
 
ion      s      p      d    tot
    1  0.004  0.000  0.010  0.015
    2  0.000  0.000  0.010  0.010
    3  0.000  0.000  0.010  0.010
    4  0.000  0.000  0.010  0.010
    5  0.002  0.001  0.001  0.004
    6  0.000  0.000  0.010  0.010
    7  0.000  0.000  0.010  0.010
    8  0.000  0.000  0.010  0.010
    9  0.001  0.000  0.003  0.004
   10  0.000  0.000  0.060  0.060
   11  0.004  0.000  0.011  0.016
   12  0.000  0.000  0.060  0.060
   13  0.004  0.000  0.011  0.016
   14  0.004  0.000  0.011  0.016
   15  0.002  0.000  0.031  0.033
   16  0.000  0.000  0.060  0.060
   17  0.002  0.000  0.031  0.033
   18  0.002  0.000  0.031  0.033
   19  0.000  0.000  0.062  0.062
   20  0.002  0.000  0.033  0.036
   21  0.002  0.000  0.033  0.036
   22  0.004  0.000  0.014  0.018
   23  0.002  0.000  0.033  0.036
   24  0.004  0.000  0.014  0.018
   25  0.000  0.000  0.062  0.062
   26  0.000  0.000  0.062  0.062
   27  0.004  0.000  0.014  0.018
   28  0.005  0.000  0.013  0.017
   29  0.001  0.000  0.009  0.010
   30  0.001  0.000  0.009  0.010
   31  0.001  0.000  0.009  0.010
   32  0.001  0.000  0.009  0.010
   33  0.001  0.000  0.009  0.010
   34  0.001  0.000  0.009  0.010
   35  0.001  0.001  0.003  0.005
   36  0.002  0.001  0.004  0.007
   37  0.000  0.002  0.000  0.002
tot    0.057  0.008  0.781  0.846
 
band    13 # energy   -5.08968478 # occ.  2.00000000
 
ion      s      p      d    tot
    1  0.000  0.000  0.016  0.016
    2  0.002  0.001  0.006  0.009
    3  0.001  0.000  0.008  0.009
    4  0.003  0.000  0.005  0.009
    5  0.000  0.000  0.004  0.004
    6  0.000  0.000  0.009  0.009
    7  0.002  0.000  0.006  0.009
    8  0.001  0.000  0.008  0.009
    9  0.000  0.000  0.011  0.011
   10  0.000  0.000  0.021  0.021
   11  0.002  0.000  0.029  0.031
   12  0.000  0.000  0.039  0.039
   13  0.004  0.000  0.020  0.024
   14  0.000  0.000  0.038  0.039
   15  0.004  0.000  0.037  0.041
   16  0.000  0.000  0.030  0.030
   17  0.007  0.000  0.015  0.022
   18  0.000  0.000  0.059  0.060
   19  0.006  0.000  0.045  0.051
   20  0.000  0.000  0.062  0.062
   21  0.007  0.000  0.016  0.023
   22  0.000  0.000  0.044  0.044
   23  0.004  0.000  0.039  0.042
   24  0.000  0.000  0.014  0.015
   25  0.001  0.000  0.070  0.071
   26  0.010  0.000  0.021  0.032
   27  0.000  0.000  0.029  0.030
   28  0.000  0.000  0.013  0.013
   29  0.001  0.000  0.008  0.010
   30  0.002  0.000  0.006  0.008
   31  0.000  0.000  0.010  0.010
   32  0.003  0.001  0.005  0.008
   33  0.001  0.000  0.008  0.009
   34  0.002  0.001  0.006  0.009
   35  0.000  0.000  0.011  0.011
   36  0.000  0.000  0.002  0.003
   37  0.000  0.000  0.000  0.000
tot    0.064  0.008  0.769  0.841
 
band    14 # energy   -5.08968342 # occ.  2.00000000
 
ion      s      p      d    tot
    1  0.000  0.000  0.016  0.016
    2  0.001  0.000  0.008  0.009
    3  0.002  0.001  0.006  0.009
    4  0.000  0.000  0.009  0.009
    5  0.000  0.000  0.004  0.004
    6  0.003  0.000  0.005  0.009
    7  0.001  0.000  0.008  0.009
    8  0.002  0.000  0.006  0.009
    9  0.000  0.000  0.011  0.011
   10  0.000  0.000  0.039  0.039
   11  0.002  0.000  0.029  0.031
   12  0.000  0.000  0.021  0.021
   13  0.000  0.000  0.038  0.039
   14  0.004  0.000  0.020  0.024
   15  0.004  0.000  0.037  0.041
   16  0.000  0.000  0.030  0.030
   17  0.000  0.000  0.059  0.059
   18  0.007  0.000  0.015  0.022
   19  0.006  0.000  0.046  0.051
   20  0.007  0.000  0.016  0.023
   21  0.000  0.000  0.062  0.062
   22  0.000  0.000  0.014  0.015
   23  0.003  0.000  0.039  0.043
   24  0.000  0.000  0.044  0.044
   25  0.010  0.000  0.021  0.031
   26  0.001  0.000  0.070  0.071
   27  0.000  0.000  0.029  0.029
   28  0.000  0.000  0.013  0.013
   29  0.002  0.000  0.006  0.008
   30  0.001  0.000  0.008  0.010
   31  0.003  0.001  0.005  0.008
   32  0.000  0.000  0.010  0.010
   33  0.002  0.001  0.006  0.009
   34  0.001  0.000  0.008  0.009
   35  0.000  0.000  0.011  0.011
   36  0.000  0.000  0.002  0.003
   37  0.000  0.000  0.000  0.000
tot    0.064  0.008  0.769  0.841
 
band    15 # energy   -5.08020215 # occ.  2.00000000
 
ion      s      p      d    tot
    1  0.000  0.000  0.006  0.007
    2  0.000  0.000  0.010  0.010
    3  0.001  0.000  0.009  0.010
    4  0.001  0.000  0.009  0.010
    5  0.000  0.000  0.017  0.017
    6  0.001  0.000  0.008  0.010
    7  0.003  0.001  0.005  0.008
    8  0.003  0.000  0.005  0.008
    9  0.000  0.000  0.008  0.008
   10  0.001  0.000  0.076  0.077
   11  0.008  0.000  0.032  0.040
   12  0.003  0.000  0.061  0.064
   13  0.003  0.000  0.050  0.053
   14  0.001  0.000  0.055  0.057
   15  0.000  0.000  0.045  0.045
   16  0.009  0.000  0.007  0.016
   17  0.000  0.000  0.024  0.025
   18  0.000  0.000  0.018  0.019
   19  0.000  0.000  0.032  0.032
   20  0.001  0.000  0.038  0.039
   21  0.001  0.000  0.037  0.038
   22  0.002  0.000  0.048  0.050
   23  0.003  0.000  0.032  0.035
   24  0.001  0.000  0.060  0.061
   25  0.000  0.000  0.019  0.020
   26  0.000  0.000  0.022  0.022
   27  0.006  0.000  0.007  0.014
   28  0.000  0.000  0.004  0.004
   29  0.002  0.000  0.003  0.006
   30  0.002  0.000  0.004  0.006
   31  0.001  0.000  0.004  0.005
   32  0.001  0.000  0.004  0.005
   33  0.000  0.000  0.006  0.007
   34  0.000  0.000  0.006  0.007
   35  0.000  0.000  0.005  0.005
   36  0.000  0.000  0.005  0.005
   37  0.000  0.000  0.000  0.000
tot    0.054  0.007  0.784  0.845
 
band    16 # energy   -5.08020125 # occ.  2.00000000
 
ion      s      p      d    tot
    1  0.000  0.000  0.006  0.007
    2  0.003  0.000  0.006  0.009
    3  0.002  0.000  0.007  0.009
    4  0.002  0.001  0.006  0.009
    5  0.000  0.000  0.017  0.017
    6  0.001  0.001  0.007  0.009
    7  0.000  0.000  0.010  0.011
    8  0.000  0.000  0.010  0.011
    9  0.000  0.000  0.008  0.008
   10  0.007  0.000  0.020  0.028
   11  0.000  0.000  0.060  0.060
   12  0.006  0.000  0.035  0.041
   13  0.005  0.000  0.041  0.047
   14  0.007  0.000  0.036  0.043
   15  0.000  0.000  0.013  0.014
   16  0.000  0.000  0.089  0.089
   17  0.000  0.000  0.034  0.034
   18  0.000  0.000  0.040  0.040
   19  0.000  0.000  0.017  0.017
   20  0.003  0.000  0.033  0.036
   21  0.002  0.000  0.034  0.037
   22  0.004  0.000  0.029  0.033
   23  0.000  0.000  0.039  0.040
   24  0.005  0.000  0.017  0.022
   25  0.000  0.000  0.029  0.030
   26  0.000  0.000  0.027  0.027
   27  0.000  0.000  0.069  0.069
   28  0.000  0.000  0.004  0.004
   29  0.000  0.000  0.006  0.006
   30  0.000  0.000  0.005  0.006
   31  0.001  0.000  0.006  0.007
   32  0.001  0.000  0.005  0.006
   33  0.002  0.000  0.003  0.005
   34  0.002  0.000  0.003  0.005
   35  0.000  0.000  0.005  0.005
   36  0.000  0.000  0.005  0.005
   37  0.000  0.000  0.000  0.000
tot    0.054  0.007  0.784  0.845
 
band    17 # energy   -5.06871434 # occ.  2.00000000
 
ion      s      p      d    tot
    1  0.007  0.000  0.001  0.008
    2  0.003  0.000  0.012  0.015
    3  0.003  0.000  0.012  0.015
    4  0.003  0.000  0.012  0.015
    5  0.005  0.000  0.023  0.028
    6  0.003  0.000  0.012  0.015
    7  0.003  0.000  0.012  0.015
    8  0.003  0.000  0.012  0.015
    9  0.000  0.000  0.008  0.008
   10  0.001  0.000  0.014  0.015
   11  0.002  0.000  0.046  0.048
   12  0.001  0.000  0.014  0.015
   13  0.002  0.000  0.046  0.048
   14  0.002  0.000  0.046  0.048
   15  0.006  0.000  0.012  0.018
   16  0.001  0.000  0.014  0.015
   17  0.006  0.000  0.012  0.018
   18  0.006  0.000  0.012  0.018
   19  0.003  0.000  0.018  0.021
   20  0.000  0.000  0.029  0.030
   21  0.000  0.000  0.029  0.030
   22  0.000  0.001  0.012  0.013
   23  0.000  0.000  0.029  0.030
   24  0.000  0.001  0.012  0.013
   25  0.003  0.000  0.018  0.021
   26  0.003  0.000  0.018  0.021
   27  0.000  0.001  0.012  0.013
   28  0.004  0.000  0.027  0.032
   29  0.008  0.000  0.018  0.026
   30  0.008  0.000  0.018  0.026
   31  0.008  0.000  0.018  0.026
   32  0.008  0.000  0.018  0.026
   33  0.008  0.000  0.018  0.026
   34  0.008  0.000  0.018  0.026
   35  0.010  0.000  0.009  0.019
   36  0.012  0.000  0.016  0.029
   37  0.000  0.000  0.000  0.000
tot    0.137  0.008  0.659  0.804
 
band    18 # energy   -4.92743567 # occ.  2.00000000
 
ion      s      p      d    tot
    1  0.003  0.001  0.002  0.005
    2  0.000  0.000  0.009  0.009
    3  0.000  0.000  0.008  0.009
    4  0.000  0.000  0.009  0.009
    5  0.001  0.000  0.004  0.005
    6  0.000  0.000  0.009  0.009
    7  0.000  0.000  0.008  0.009
    8  0.000  0.000  0.009  0.009
    9  0.001  0.001  0.011  0.012
   10  0.000  0.000  0.022  0.022
   11  0.001  0.000  0.030  0.031
   12  0.000  0.000  0.021  0.022
   13  0.001  0.000  0.030  0.031
   14  0.001  0.000  0.030  0.031
   15  0.001  0.001  0.064  0.066
   16  0.000  0.000  0.021  0.022
   17  0.001  0.001  0.064  0.066
   18  0.001  0.001  0.064  0.065
   19  0.001  0.000  0.017  0.018
   20  0.000  0.001  0.044  0.044
   21  0.000  0.001  0.043  0.044
   22  0.002  0.000  0.053  0.055
   23  0.000  0.001  0.043  0.044
   24  0.002  0.000  0.052  0.055
   25  0.001  0.000  0.017  0.018
   26  0.001  0.000  0.017  0.018
   27  0.002  0.000  0.053  0.055
   28  0.003  0.001  0.000  0.004
   29  0.000  0.000  0.010  0.010
   30  0.000  0.000  0.010  0.010
   31  0.000  0.000  0.010  0.010
   32  0.000  0.000  0.009  0.010
   33  0.000  0.000  0.010  0.010
   34  0.000  0.000  0.009  0.010
   35  0.000  0.000  0.008  0.008
   36  0.003  0.001  0.006  0.010
   37  0.000  0.002  0.000  0.003
tot    0.025  0.017  0.824  0.866
 
band    19 # energy   -4.92490583 # occ.  2.00000000
 
ion      s      p      d    tot
    1  0.000  0.001  0.015  0.016
    2  0.002  0.001  0.006  0.008
    3  0.000  0.000  0.010  0.011
    4  0.002  0.001  0.006  0.008
    5  0.000  0.000  0.001  0.001
    6  0.000  0.000  0.006  0.007
    7  0.000  0.000  0.010  0.011
    8  0.001  0.000  0.005  0.006
    9  0.000  0.001  0.011  0.012
   10  0.000  0.000  0.033  0.033
   11  0.000  0.001  0.022  0.023
   12  0.002  0.000  0.044  0.046
   13  0.000  0.001  0.023  0.024
   14  0.000  0.000  0.010  0.010
   15  0.001  0.000  0.048  0.049
   16  0.002  0.000  0.042  0.044
   17  0.001  0.000  0.042  0.043
   18  0.000  0.000  0.088  0.089
   19  0.000  0.000  0.033  0.033
   20  0.000  0.000  0.000  0.000
   21  0.001  0.001  0.024  0.026
   22  0.003  0.000  0.052  0.055
   23  0.001  0.001  0.021  0.023
   24  0.000  0.000  0.065  0.065
   25  0.000  0.000  0.059  0.060
   26  0.000  0.000  0.029  0.030
   27  0.002  0.000  0.053  0.056
   28  0.000  0.000  0.004  0.004
   29  0.001  0.000  0.005  0.006
   30  0.000  0.000  0.009  0.009
   31  0.001  0.000  0.005  0.006
   32  0.001  0.001  0.007  0.009
   33  0.000  0.000  0.009  0.009
   34  0.001  0.001  0.006  0.008
   35  0.000  0.001  0.020  0.021
   36  0.000  0.000  0.003  0.003
   37  0.000  0.000  0.000  0.000
tot    0.023  0.015  0.827  0.865
 
band    20 # energy   -4.92489520 # occ.  2.00000000
 
ion      s      p      d    tot
    1  0.000  0.001  0.015  0.016
    2  0.000  0.000  0.009  0.009
    3  0.001  0.001  0.004  0.006
    4  0.000  0.000  0.008  0.008
    5  0.000  0.000  0.001  0.001
    6  0.001  0.001  0.008  0.010
    7  0.001  0.000  0.004  0.006
    8  0.001  0.001  0.009  0.010
    9  0.000  0.001  0.011  0.012
   10  0.002  0.000  0.046  0.049
   11  0.000  0.000  0.015  0.015
   12  0.000  0.000  0.036  0.037
   13  0.000  0.000  0.013  0.014
   14  0.000  0.001  0.026  0.028
   15  0.000  0.000  0.071  0.071
   16  0.001  0.000  0.037  0.038
   17  0.000  0.000  0.077  0.077
   18  0.001  0.000  0.031  0.032
   19  0.000  0.000  0.048  0.048
   20  0.001  0.001  0.030  0.033
   21  0.000  0.000  0.006  0.007
   22  0.001  0.000  0.062  0.063
   23  0.000  0.000  0.009  0.010
   24  0.003  0.000  0.048  0.052
   25  0.000  0.000  0.022  0.022
   26  0.000  0.000  0.052  0.052
   27  0.001  0.000  0.060  0.061
   28  0.000  0.000  0.004  0.004
   29  0.000  0.000  0.009  0.010
   30  0.001  0.001  0.005  0.007
   31  0.001  0.000  0.009  0.009
   32  0.000  0.000  0.007  0.007
   33  0.001  0.001  0.005  0.007
   34  0.000  0.000  0.007  0.008
   35  0.000  0.001  0.020  0.021
   36  0.000  0.000  0.003  0.003
   37  0.000  0.000  0.000  0.000
tot    0.023  0.015  0.827  0.865
 
band    21 # energy   -4.92034330 # occ.  2.00000000
 
ion      s      p      d    tot
    1  0.000  0.000  0.009  0.009
    2  0.000  0.000  0.009  0.010
    3  0.000  0.000  0.009  0.010
    4  0.000  0.000  0.009  0.010
    5  0.002  0.001  0.006  0.009
    6  0.000  0.000  0.009  0.010
    7  0.000  0.000  0.009  0.010
    8  0.000  0.000  0.009  0.010
    9  0.002  0.000  0.000  0.003
   10  0.002  0.000  0.053  0.055
   11  0.000  0.001  0.045  0.046
   12  0.002  0.000  0.053  0.055
   13  0.000  0.001  0.045  0.046
   14  0.000  0.001  0.046  0.047
   15  0.001  0.000  0.016  0.017
   16  0.002  0.000  0.053  0.055
   17  0.001  0.000  0.016  0.017
   18  0.001  0.000  0.016  0.016
   19  0.001  0.001  0.057  0.059
   20  0.002  0.000  0.030  0.031
   21  0.002  0.000  0.029  0.031
   22  0.000  0.000  0.026  0.026
   23  0.002  0.000  0.029  0.031
   24  0.000  0.000  0.026  0.026
   25  0.001  0.001  0.056  0.058
   26  0.001  0.001  0.057  0.059
   27  0.000  0.000  0.026  0.026
   28  0.001  0.000  0.007  0.009
   29  0.000  0.000  0.009  0.010
   30  0.000  0.000  0.009  0.010
   31  0.000  0.000  0.009  0.010
   32  0.000  0.000  0.009  0.010
   33  0.000  0.000  0.009  0.010
   34  0.000  0.000  0.009  0.010
   35  0.003  0.001  0.002  0.007
   36  0.001  0.000  0.004  0.006