PROCAR new format
# of k-points:   10         # of bands:  252         # of ions:   36

 k-point     1 :    0.00000000 0.00000000 0.00000000     weight = 0.01562500

band     1 # energy   -8.72819619 # occ.  2.00000000
 
ion      s      p      d    tot
    1  0.007  0.001  0.000  0.007
    2  0.007  0.001  0.000  0.007
    3  0.007  0.001  0.000  0.007
    4  0.007  0.001  0.000  0.007
    5  0.007  0.001  0.000  0.007
    6  0.007  0.001  0.000  0.007
    7  0.007  0.001  0.000  0.007
    8  0.007  0.001  0.000  0.007
    9  0.007  0.001  0.000  0.007
   10  0.024  0.000  0.000  0.024
   11  0.024  0.000  0.000  0.025
   12  0.024  0.000  0.000  0.024
   13  0.024  0.000  0.000  0.025
   14  0.024  0.000  0.000  0.025
   15  0.024  0.000  0.000  0.024
   16  0.024  0.000  0.000  0.024
   17  0.024  0.000  0.000  0.024
   18  0.024  0.000  0.000  0.024
   19  0.024  0.000  0.000  0.024
   20  0.025  0.000  0.000  0.025
   21  0.025  0.000  0.000  0.025
   22  0.024  0.000  0.000  0.025
   23  0.025  0.000  0.000  0.025
   24  0.024  0.000  0.000  0.025
   25  0.024  0.000  0.000  0.024
   26  0.024  0.000  0.000  0.024
   27  0.024  0.000  0.000  0.025
   28  0.007  0.001  0.000  0.008
   29  0.007  0.001  0.000  0.008
   30  0.007  0.001  0.000  0.008
   31  0.007  0.001  0.000  0.008
   32  0.007  0.001  0.000  0.008
   33  0.007  0.001  0.000  0.008
   34  0.007  0.001  0.000  0.008
   35  0.007  0.001  0.000  0.008
   36  0.014  0.001  0.000  0.016
tot    0.568  0.016  0.001  0.586
 
band     2 # energy   -7.46381640 # occ.  2.00000000
 
ion      s      p      d    tot
    1  0.018  0.001  0.000  0.019
    2  0.018  0.001  0.000  0.019
    3  0.018  0.001  0.000  0.019
    4  0.018  0.001  0.000  0.019
    5  0.017  0.001  0.000  0.019
    6  0.018  0.001  0.000  0.019
    7  0.018  0.001  0.000  0.019
    8  0.018  0.001  0.000  0.019
    9  0.018  0.001  0.000  0.019
   10  0.010  0.002  0.001  0.013
   11  0.010  0.002  0.001  0.013
   12  0.010  0.002  0.001  0.013
   13  0.010  0.002  0.001  0.013
   14  0.010  0.002  0.001  0.013
   15  0.010  0.002  0.001  0.013
   16  0.010  0.002  0.001  0.013
   17  0.010  0.002  0.001  0.013
   18  0.010  0.002  0.001  0.013
   19  0.009  0.002  0.000  0.012
   20  0.009  0.002  0.000  0.012
   21  0.009  0.002  0.000  0.012
   22  0.009  0.002  0.000  0.012
   23  0.009  0.002  0.000  0.012
   24  0.009  0.002  0.000  0.012
   25  0.009  0.002  0.000  0.012
   26  0.009  0.002  0.000  0.012
   27  0.009  0.002  0.000  0.012
   28  0.018  0.001  0.001  0.019
   29  0.019  0.001  0.001  0.020
   30  0.019  0.001  0.001  0.020
   31  0.019  0.001  0.001  0.020
   32  0.019  0.001  0.001  0.020
   33  0.019  0.001  0.001  0.020
   34  0.019  0.001  0.001  0.020
   35  0.018  0.001  0.001  0.019
   36  0.037  0.001  0.002  0.040
tot    0.518  0.054  0.020  0.592
 
band     3 # energy   -5.85110409 # occ.  2.00000000
 
ion      s      p      d    tot
    1  0.016  0.000  0.006  0.022
    2  0.017  0.000  0.006  0.023
    3  0.017  0.000  0.006  0.023
    4  0.017  0.000  0.006  0.023
    5  0.017  0.000  0.006  0.023
    6  0.017  0.000  0.006  0.023
    7  0.017  0.000  0.006  0.023
    8  0.017  0.000  0.006  0.023
    9  0.017  0.000  0.006  0.023
   10  0.004  0.004  0.002  0.009
   11  0.003  0.004  0.002  0.008
   12  0.004  0.004  0.002  0.009
   13  0.003  0.004  0.002  0.008
   14  0.003  0.004  0.002  0.008
   15  0.003  0.004  0.002  0.009
   16  0.004  0.004  0.002  0.009
   17  0.003  0.004  0.002  0.009
   18  0.003  0.004  0.002  0.009
   19  0.006  0.003  0.003  0.012
   20  0.005  0.003  0.004  0.012
   21  0.005  0.003  0.004  0.012
   22  0.005  0.003  0.003  0.011
   23  0.005  0.003  0.004  0.012
   24  0.005  0.003  0.003  0.011
   25  0.006  0.003  0.003  0.012
   26  0.006  0.003  0.003  0.012
   27  0.005  0.003  0.003  0.011
   28  0.013  0.000  0.007  0.020
   29  0.017  0.000  0.008  0.025
   30  0.017  0.000  0.008  0.025
   31  0.017  0.000  0.008  0.025
   32  0.017  0.000  0.008  0.025
   33  0.017  0.000  0.008  0.025
   34  0.017  0.000  0.008  0.025
   35  0.013  0.000  0.006  0.020
   36  0.036  0.000  0.020  0.056
tot    0.398  0.063  0.180  0.641
 
band     4 # energy   -5.74132928 # occ.  2.00000000
 
ion      s      p      d    tot
    1  0.000  0.003  0.005  0.008
    2  0.009  0.002  0.002  0.014
    3  0.003  0.001  0.002  0.006
    4  0.009  0.002  0.002  0.014
    5  0.000  0.002  0.003  0.005
    6  0.002  0.001  0.002  0.006
    7  0.003  0.001  0.002  0.006
    8  0.002  0.001  0.002  0.006
    9  0.000  0.000  0.003  0.003
   10  0.060  0.004  0.004  0.068
   11  0.005  0.010  0.003  0.019
   12  0.015  0.003  0.012  0.030
   13  0.005  0.010  0.003  0.019
   14  0.020  0.000  0.007  0.027
   15  0.002  0.004  0.008  0.015
   16  0.015  0.003  0.012  0.030
   17  0.002  0.004  0.008  0.015
   18  0.010  0.003  0.003  0.016
   19  0.008  0.009  0.004  0.022
   20  0.062  0.004  0.005  0.071
   21  0.015  0.002  0.014  0.031
   22  0.001  0.006  0.006  0.013
   23  0.015  0.002  0.014  0.031
   24  0.003  0.002  0.004  0.008
   25  0.035  0.001  0.007  0.042
   26  0.009  0.009  0.004  0.022
   27  0.001  0.006  0.006  0.013
   28  0.000  0.003  0.004  0.007
   29  0.010  0.003  0.003  0.016
   30  0.006  0.002  0.003  0.010
   31  0.010  0.003  0.003  0.016
   32  0.001  0.001  0.003  0.004
   33  0.006  0.002  0.003  0.010
   34  0.001  0.001  0.003  0.004
   35  0.000  0.000  0.003  0.003
   36  0.000  0.004  0.018  0.022
tot    0.345  0.113  0.190  0.648
 
band     5 # energy   -5.74115234 # occ.  2.00000000
 
ion      s      p      d    tot
    1  0.000  0.003  0.005  0.008
    2  0.000  0.001  0.002  0.003
    3  0.007  0.002  0.002  0.011
    4  0.000  0.001  0.002  0.003
    5  0.000  0.002  0.003  0.005
    6  0.007  0.002  0.002  0.011
    7  0.007  0.002  0.002  0.011
    8  0.007  0.002  0.002  0.011
    9  0.000  0.000  0.003  0.003
   10  0.000  0.003  0.014  0.017
   11  0.016  0.003  0.006  0.024
   12  0.045  0.004  0.006  0.055
   13  0.015  0.003  0.006  0.024
   14  0.000  0.013  0.002  0.016
   15  0.008  0.003  0.005  0.015
   16  0.045  0.004  0.006  0.055
   17  0.008  0.003  0.005  0.015
   18  0.000  0.004  0.010  0.014
   19  0.026  0.004  0.006  0.035
   20  0.000  0.001  0.017  0.018
   21  0.046  0.003  0.008  0.057
   22  0.002  0.003  0.005  0.010
   23  0.046  0.003  0.008  0.057
   24  0.000  0.007  0.007  0.014
   25  0.000  0.012  0.003  0.016
   26  0.026  0.004  0.006  0.035
   27  0.002  0.003  0.005  0.010
   28  0.000  0.003  0.004  0.007
   29  0.001  0.001  0.003  0.004
   30  0.005  0.002  0.003  0.010
   31  0.001  0.001  0.003  0.004
   32  0.010  0.003  0.003  0.016
   33  0.005  0.002  0.003  0.010
   34  0.010  0.003  0.003  0.016
   35  0.000  0.000  0.003  0.003
   36  0.000  0.004  0.018  0.022
tot    0.345  0.113  0.190  0.648
 
band     6 # energy   -5.73105542 # occ.  2.00000000
 
ion      s      p      d    tot
    1  0.000  0.000  0.000  0.000
    2  0.000  0.002  0.004  0.006
    3  0.000  0.002  0.004  0.006
    4  0.000  0.002  0.004  0.006
    5  0.016  0.003  0.001  0.019
    6  0.000  0.002  0.004  0.006
    7  0.000  0.002  0.004  0.006
    8  0.000  0.002  0.004  0.006
    9  0.014  0.002  0.001  0.017
   10  0.000  0.002  0.009  0.012
   11  0.024  0.009  0.002  0.035
   12  0.000  0.003  0.009  0.012
   13  0.024  0.009  0.002  0.035
   14  0.024  0.009  0.002  0.035
   15  0.022  0.002  0.009  0.034
   16  0.000  0.003  0.009  0.012
   17  0.022  0.002  0.009  0.034
   18  0.022  0.002  0.009  0.033
   19  0.005  0.000  0.011  0.017
   20  0.031  0.006  0.006  0.043
   21  0.032  0.006  0.006  0.044
   22  0.012  0.008  0.003  0.023
   23  0.032  0.006  0.006  0.044
   24  0.012  0.008  0.003  0.023
   25  0.005  0.000  0.012  0.017
   26  0.005  0.000  0.011  0.017
   27  0.012  0.008  0.003  0.023
   28  0.003  0.000  0.000  0.003
   29  0.000  0.002  0.004  0.006
   30  0.000  0.002  0.004  0.006
   31  0.000  0.002  0.004  0.006
   32  0.000  0.002  0.004  0.006
   33  0.000  0.002  0.004  0.006
   34  0.000  0.002  0.004  0.006
   35  0.012  0.002  0.000  0.013
   36  0.034  0.005  0.003  0.042
tot    0.361  0.118  0.176  0.654
 
band     7 # energy   -5.71611811 # occ.  2.00000000
 
ion      s      p      d    tot
    1  0.000  0.000  0.002  0.003
    2  0.010  0.002  0.002  0.015
    3  0.003  0.001  0.002  0.006
    4  0.010  0.002  0.002  0.015
    5  0.000  0.001  0.005  0.006
    6  0.002  0.001  0.002  0.006
    7  0.003  0.001  0.002  0.006
    8  0.002  0.001  0.002  0.006
    9  0.000  0.003  0.005  0.008
   10  0.000  0.010  0.004  0.014
   11  0.031  0.004  0.006  0.041
   12  0.000  0.003  0.005  0.008
   13  0.031  0.004  0.006  0.040
   14  0.000  0.000  0.016  0.016
   15  0.037  0.004  0.006  0.047
   16  0.000  0.003  0.005  0.008
   17  0.037  0.004  0.006  0.047
   18  0.000  0.009  0.007  0.017
   19  0.022  0.004  0.005  0.030
   20  0.000  0.014  0.001  0.015
   21  0.004  0.004  0.005  0.013
   22  0.045  0.004  0.006  0.055
   23  0.004  0.004  0.005  0.013
   24  0.000  0.007  0.010  0.017
   25  0.000  0.001  0.015  0.016
   26  0.021  0.003  0.005  0.030
   27  0.045  0.004  0.006  0.055
   28  0.000  0.001  0.004  0.005
   29  0.011  0.003  0.003  0.016
   30  0.004  0.002  0.003  0.009
   31  0.011  0.003  0.003  0.016
   32  0.002  0.001  0.002  0.005
   33  0.004  0.002  0.003  0.009
   34  0.002  0.001  0.002  0.005
   35  0.000  0.004  0.006  0.009
   36  0.000  0.002  0.009  0.011
tot    0.343  0.117  0.180  0.640
 
band     8 # energy   -5.71595047 # occ.  2.00000000
 
ion      s      p      d    tot
    1  0.000  0.000  0.002  0.003
    2  0.000  0.001  0.002  0.003
    3  0.007  0.002  0.002  0.012
    4  0.000  0.001  0.002  0.003
    5  0.000  0.001  0.005  0.006
    6  0.008  0.002  0.002  0.012
    7  0.007  0.002  0.002  0.012
    8  0.008  0.002  0.002  0.012
    9  0.000  0.003  0.005  0.008
   10  0.000  0.001  0.005  0.006
   11  0.010  0.001  0.013  0.024
   12  0.000  0.008  0.004  0.012
   13  0.011  0.001  0.013  0.025
   14  0.042  0.005  0.002  0.048
   15  0.012  0.008  0.007  0.027
   16  0.000  0.008  0.004  0.012
   17  0.012  0.008  0.007  0.027
   18  0.050  0.002  0.006  0.058
   19  0.007  0.002  0.012  0.021
   20  0.006  0.000  0.006  0.012
   21  0.002  0.010  0.002  0.014
   22  0.016  0.006  0.009  0.030
   23  0.001  0.010  0.002  0.014
   24  0.060  0.003  0.005  0.068
   25  0.028  0.004  0.002  0.035
   26  0.007  0.002  0.012  0.021
   27  0.015  0.006  0.009  0.030
   28  0.000  0.001  0.004  0.005
   29  0.000  0.001  0.003  0.004
   30  0.007  0.002  0.002  0.011
   31  0.000  0.001  0.003  0.004
   32  0.009  0.003  0.003  0.015
   33  0.007  0.002  0.002  0.011
   34  0.010  0.003  0.003  0.015
   35  0.000  0.004  0.006  0.009
   36  0.000  0.002  0.009  0.011
tot    0.343  0.117  0.180  0.640
 
band     9 # energy   -5.70197254 # occ.  2.00000000
 
ion      s      p      d    tot
    1  0.022  0.003  0.001  0.027
    2  0.000  0.002  0.004  0.006
    3  0.000  0.002  0.004  0.006
    4  0.000  0.002  0.004  0.006
    5  0.003  0.001  0.001  0.004
    6  0.000  0.002  0.004  0.006
    7  0.000  0.002  0.004  0.006
    8  0.000  0.002  0.004  0.006
    9  0.007  0.001  0.000  0.008
   10  0.031  0.007  0.005  0.042
   11  0.008  0.000  0.012  0.020
   12  0.031  0.007  0.005  0.042
   13  0.008  0.000  0.012  0.020
   14  0.008  0.000  0.012  0.020
   15  0.009  0.007  0.004  0.020
   16  0.031  0.007  0.005  0.042
   17  0.009  0.007  0.004  0.020
   18  0.008  0.007  0.004  0.020
   19  0.025  0.009  0.002  0.036
   20  0.000  0.004  0.008  0.012
   21  0.000  0.004  0.008  0.012
   22  0.020  0.001  0.010  0.032
   23  0.000  0.004  0.008  0.012
   24  0.021  0.001  0.010  0.032
   25  0.026  0.009  0.002  0.037
   26  0.025  0.009  0.002  0.036
   27  0.020  0.001  0.010  0.032
   28  0.021  0.003  0.001  0.025
   29  0.000  0.002  0.004  0.006
   30  0.000  0.002  0.004  0.006
   31  0.000  0.002  0.004  0.006
   32  0.000  0.002  0.004  0.006
   33  0.000  0.002  0.004  0.006
   34  0.000  0.002  0.004  0.006
   35  0.010  0.002  0.001  0.013
   36  0.002  0.000  0.000  0.002
tot    0.346  0.116  0.176  0.638
 
band    10 # energy   -5.00786557 # occ.  2.00000000
 
ion      s      p      d    tot
    1  0.000  0.003  0.010  0.013
    2  0.003  0.002  0.005  0.009
    3  0.019  0.004  0.005  0.027
    4  0.002  0.002  0.005  0.008
    5  0.000  0.000  0.010  0.010
    6  0.007  0.002  0.005  0.014
    7  0.019  0.004  0.005  0.028
    8  0.009  0.002  0.005  0.015
    9  0.000  0.005  0.008  0.013
   10  0.008  0.001  0.006  0.015
   11  0.001  0.002  0.013  0.016
   12  0.002  0.003  0.014  0.020
   13  0.001  0.002  0.012  0.016
   14  0.005  0.002  0.007  0.014
   15  0.006  0.001  0.017  0.024
   16  0.002  0.004  0.015  0.020
   17  0.007  0.002  0.016  0.025
   18  0.025  0.005  0.005  0.034
   19  0.003  0.001  0.012  0.016
   20  0.000  0.001  0.010  0.011
   21  0.000  0.002  0.015  0.017
   22  0.003  0.002  0.021  0.026
   23  0.000  0.002  0.015  0.018
   24  0.011  0.003  0.003  0.017
   25  0.012  0.006  0.008  0.025
   26  0.003  0.002  0.012  0.017
   27  0.002  0.002  0.022  0.026
   28  0.000  0.004  0.007  0.011
   29  0.005  0.002  0.009  0.015
   30  0.026  0.003  0.008  0.036
   31  0.004  0.002  0.009  0.014
   32  0.008  0.003  0.008  0.020
   33  0.026  0.003  0.008  0.036
   34  0.010  0.003  0.008  0.021
   35  0.000  0.006  0.009  0.014
   36  0.000  0.000  0.045  0.045
tot    0.228  0.090  0.389  0.708
 
band    11 # energy   -5.00786258 # occ.  2.00000000
 
ion      s      p      d    tot
    1  0.000  0.003  0.010  0.013
    2  0.017  0.003  0.005  0.025
    3  0.001  0.001  0.005  0.007
    4  0.018  0.003  0.005  0.026
    5  0.000  0.000  0.010  0.010
    6  0.012  0.003  0.005  0.020
    7  0.000  0.001  0.005  0.006
    8  0.011  0.003  0.005  0.018
    9  0.000  0.005  0.008  0.013
   10  0.000  0.004  0.017  0.021
   11  0.004  0.002  0.009  0.014
   12  0.006  0.002  0.009  0.017
   13  0.003  0.002  0.009  0.015
   14  0.000  0.002  0.014  0.016
   15  0.019  0.004  0.008  0.031
   16  0.006  0.002  0.009  0.016
   17  0.018  0.003  0.009  0.031
   18  0.000  0.000  0.021  0.021
   19  0.009  0.004  0.009  0.023
   20  0.000  0.003  0.017  0.020
   21  0.000  0.001  0.012  0.013
   22  0.008  0.003  0.009  0.020
   23  0.000  0.001  0.012  0.013
   24  0.000  0.002  0.027  0.029
   25  0.000  0.000  0.013  0.013
   26  0.009  0.004  0.009  0.022
   27  0.009  0.003  0.008  0.020
   28  0.000  0.004  0.007  0.011
   29  0.021  0.003  0.008  0.032
   30  0.001  0.002  0.009  0.012
   31  0.022  0.003  0.008  0.033
   32  0.018  0.002  0.008  0.028
   33  0.000  0.002  0.009  0.011
   34  0.016  0.002  0.008  0.026
   35  0.000  0.006  0.009  0.014
   36  0.000  0.000  0.045  0.045
tot    0.228  0.091  0.389  0.708
 
band    12 # energy   -4.99671782 # occ.  2.00000000
 
ion      s      p      d    tot
    1  0.000  0.002  0.008  0.010
    2  0.004  0.001  0.010  0.015
    3  0.004  0.001  0.010  0.015
    4  0.004  0.001  0.010  0.015
    5  0.027  0.000  0.005  0.032
    6  0.004  0.001  0.010  0.015
    7  0.004  0.001  0.010  0.015
    8  0.004  0.001  0.010  0.015
    9  0.001  0.001  0.009  0.011
   10  0.010  0.001  0.021  0.031
   11  0.000  0.001  0.022  0.023
   12  0.010  0.001  0.021  0.031
   13  0.000  0.001  0.022  0.023
   14  0.000  0.001  0.022  0.023
   15  0.011  0.000  0.022  0.033
   16  0.010  0.001  0.021  0.031
   17  0.011  0.000  0.022  0.033
   18  0.011  0.000  0.022  0.033
   19  0.011  0.001  0.017  0.029
   20  0.001  0.000  0.023  0.024
   21  0.001  0.000  0.022  0.024
   22  0.005  0.000  0.017  0.023
   23  0.001  0.000  0.022  0.024
   24  0.005  0.000  0.017  0.022
   25  0.011  0.001  0.017  0.029
   26  0.011  0.001  0.017  0.029
   27  0.005  0.000  0.017  0.023
   28  0.001  0.002  0.006  0.008
   29  0.002  0.001  0.010  0.014
   30  0.002  0.001  0.010  0.014
   31  0.002  0.001  0.010  0.014
   32  0.002  0.001  0.010  0.014
   33  0.002  0.001  0.010  0.014
   34  0.002  0.001  0.010  0.014
   35  0.000  0.001  0.005  0.006
   36  0.038  0.000  0.013  0.051
tot    0.221  0.031  0.523  0.775
 
band    13 # energy   -4.95881761 # occ.  2.00000000
 
ion      s      p      d    tot
    1  0.021  0.001  0.002  0.023
    2  0.001  0.002  0.010  0.014
    3  0.001  0.002  0.010  0.014
    4  0.001  0.002  0.010  0.014
    5  0.021  0.005  0.005  0.031
    6  0.001  0.002  0.010  0.014
    7  0.001  0.002  0.010  0.014
    8  0.001  0.002  0.010  0.014
    9  0.010  0.000  0.001  0.012
   10  0.000  0.001  0.022  0.023
   11  0.018  0.004  0.013  0.035
   12  0.000  0.001  0.022  0.023
   13  0.018  0.004  0.013  0.035
   14  0.017  0.004  0.014  0.035
   15  0.000  0.001  0.013  0.013
   16  0.000  0.001  0.022  0.023
   17  0.000  0.001  0.013  0.014
   18  0.000  0.001  0.013  0.014
   19  0.001  0.001  0.011  0.014
   20  0.015  0.004  0.019  0.038
   21  0.015  0.004  0.019  0.038
   22  0.001  0.000  0.020  0.021
   23  0.015  0.004  0.019  0.038
   24  0.001  0.000  0.019  0.020
   25  0.001  0.001  0.011  0.014
   26  0.001  0.001  0.011  0.014
   27  0.001  0.000  0.020  0.021
   28  0.020  0.001  0.001  0.022
   29  0.001  0.002  0.009  0.013
   30  0.001  0.002  0.009  0.013
   31  0.001  0.002  0.009  0.013
   32  0.001  0.002  0.009  0.013
   33  0.001  0.002  0.009  0.013
   34  0.001  0.002  0.009  0.013
   35  0.011  0.000  0.002  0.013
   36  0.036  0.007  0.010  0.053
tot    0.235  0.077  0.427  0.739
 
band    14 # energy   -4.94440595 # occ.  2.00000000
 
ion      s      p      d    tot
    1  0.000  0.003  0.010  0.013
    2  0.021  0.004  0.006  0.030
    3  0.001  0.002  0.005  0.008
    4  0.020  0.004  0.006  0.029
    5  0.000  0.006  0.010  0.016
    6  0.011  0.003  0.006  0.020
    7  0.002  0.002  0.005  0.009
    8  0.013  0.003  0.006  0.021
    9  0.000  0.001  0.013  0.014
   10  0.016  0.005  0.009  0.030
   11  0.005  0.003  0.022  0.030
   12  0.004  0.001  0.017  0.022
   13  0.004  0.002  0.023  0.030
   14  0.018  0.004  0.005  0.027
   15  0.000  0.003  0.016  0.018
   16  0.005  0.002  0.016  0.022
   17  0.000  0.003  0.016  0.019
   18  0.000  0.000  0.009  0.009
   19  0.001  0.003  0.017  0.020
   20  0.021  0.005  0.004  0.031
   21  0.005  0.002  0.023  0.029
   22  0.002  0.001  0.012  0.016
   23  0.006  0.002  0.021  0.029
   24  0.007  0.003  0.009  0.020
   25  0.003  0.000  0.007  0.010
   26  0.001  0.003  0.018  0.021
   27  0.002  0.002  0.012  0.016
   28  0.000  0.002  0.010  0.013
   29  0.016  0.003  0.006  0.026
   30  0.000  0.001  0.005  0.006
   31  0.015  0.003  0.006  0.025
   32  0.010  0.003  0.006  0.019
   33  0.001  0.001  0.005  0.007
   34  0.011  0.003  0.006  0.020
   35  0.000  0.001  0.009  0.010
   36  0.000  0.009  0.019  0.028
tot    0.221  0.096  0.395  0.712
 
band    15 # energy   -4.94438786 # occ.  2.00000000
 
ion      s      p      d    tot
    1  0.000  0.003  0.010  0.013
    2  0.001  0.002  0.006  0.009
    3  0.022  0.004  0.006  0.031
    4  0.002  0.002  0.006  0.010
    5  0.000  0.006  0.010  0.016
    6  0.011  0.003  0.005  0.019
    7  0.021  0.004  0.006  0.031
    8  0.010  0.003  0.005  0.018
    9  0.000  0.001  0.013  0.014
   10  0.000  0.000  0.019  0.019
   11  0.013  0.003  0.012  0.028
   12  0.013  0.004  0.011  0.028
   13  0.014  0.003  0.010  0.027
   14  0.000  0.002  0.029  0.031
   15  0.000  0.001  0.011  0.013
   16  0.012  0.004  0.012  0.027
   17  0.000  0.001  0.011  0.012
   18  0.000  0.004  0.018  0.022
   19  0.002  0.001  0.010  0.014
   20  0.000  0.001  0.028  0.029
   21  0.017  0.004  0.009  0.030
   22  0.006  0.002  0.010  0.018
   23  0.016  0.004  0.011  0.030
   24  0.000  0.001  0.013  0.014
   25  0.000  0.003  0.021  0.024
   26  0.002  0.001  0.010  0.013
   27  0.005  0.002  0.010  0.018
   28  0.000  0.002  0.010  0.013
   29  0.002  0.001  0.005  0.008
   30  0.018  0.004  0.006  0.028
   31  0.003  0.002  0.005  0.009
   32  0.008  0.002  0.005  0.015
   33  0.017  0.004  0.006  0.027
   34  0.007  0.002  0.005  0.014
   35  0.000  0.001  0.009  0.010
   36  0.000  0.009  0.019  0.028
tot    0.221  0.096  0.395  0.712
 
band    16 # energy   -4.94388733 # occ.  2.00000000
 
ion      s      p      d    tot
    1  0.026  0.003  0.001  0.030
    2  0.000  0.003  0.010  0.014
    3  0.000  0.003  0.010  0.013
    4  0.000  0.003  0.010  0.014
    5  0.001  0.000  0.000  0.001
    6  0.000  0.003  0.010  0.014
    7  0.000  0.003  0.010  0.013
    8  0.000  0.003  0.010  0.014
    9  0.037  0.004  0.000  0.042
   10  0.009  0.003  0.010  0.021
   11  0.000  0.000  0.016  0.016
   12  0.008  0.003  0.010  0.021
   13  0.000  0.000  0.016  0.016
   14  0.000  0.000  0.016  0.016
   15  0.007  0.004  0.017  0.029
   16  0.008  0.003  0.010  0.021
   17  0.007  0.004  0.017  0.029
   18  0.007  0.004  0.017  0.028
   19  0.004  0.003  0.018  0.025
   20  0.001  0.000  0.013  0.015
   21  0.001  0.000  0.013  0.014
   22  0.011  0.004  0.011  0.026
   23  0.001  0.000  0.013  0.014
   24  0.012  0.004  0.011  0.026
   25  0.004  0.003  0.017  0.025
   26  0.004  0.003  0.018  0.025
   27  0.011  0.004  0.011  0.026
   28  0.029  0.003  0.000  0.032
   29  0.000  0.003  0.010  0.013
   30  0.000  0.003  0.010  0.013
   31  0.000  0.003  0.010  0.013
   32  0.000  0.003  0.010  0.013
   33  0.000  0.003  0.010  0.013
   34  0.000  0.003  0.010  0.013
   35  0.036  0.004  0.001  0.041
   36  0.001  0.000  0.000  0.001
tot    0.230  0.094  0.379  0.704
 
band    17 # energy   -4.37192037 # occ.  2.00000000
 
ion      s      p      d    tot
    1  0.000  0.001  0.028  0.028
    2  0.015  0.001  0.008  0.024
    3  0.007  0.001  0.007  0.015
    4  0.014  0.001  0.008  0.024
    5  0.000  0.001  0.013  0.014
    6  0.002  0.001  0.008  0.010
    7  0.006  0.001  0.007  0.015
    8  0.002  0.001  0.008  0.010
    9  0.000  0.003  0.004  0.007
   10  0.000  0.000  0.060  0.060
   11  0.000  0.003  0.016  0.019
   12  0.000  0.000  0.019  0.019
   13  0.000  0.003  0.016  0.019
   14  0.000  0.000  0.006  0.006
   15  0.000  0.005  0.015  0.020
   16  0.000  0.000  0.019  0.019
   17  0.000  0.005  0.015  0.020
   18  0.000  0.000  0.028  0.028
   19  0.004  0.003  0.012  0.019
   20  0.000  0.000  0.057  0.057
   21  0.000  0.000  0.023  0.023
   22  0.003  0.002  0.016  0.020
   23  0.000  0.000  0.023  0.023
   24  0.000  0.000  0.015  0.015
   25  0.000  0.000  0.017  0.017
   26  0.004  0.003  0.012  0.019
   27  0.003  0.002  0.016  0.020
   28  0.000  0.001  0.006  0.007
   29  0.009  0.000  0.019  0.028
   30  0.000  0.001  0.016  0.017
   31  0.009  0.000  0.019  0.028
   32  0.010  0.000  0.017  0.027
   33  0.000  0.001  0.016  0.017
   34  0.010  0.000  0.017  0.027
   35  0.000  0.001  0.006  0.007
   36  0.000  0.000  0.083  0.083
tot    0.097  0.043  0.671  0.811
 
band    18 # energy   -4.37183481 # occ.  2.00000000
 
ion      s      p      d    tot
    1  0.000  0.001  0.028  0.028
    2  0.001  0.001  0.007  0.009
    3  0.008  0.001  0.008  0.017
    4  0.001  0.001  0.007  0.009
    5  0.000  0.001  0.013  0.014
    6  0.013  0.001  0.008  0.022
    7  0.009  0.001  0.008  0.017
    8  0.014  0.001  0.008  0.022
    9  0.000  0.003  0.004  0.007
   10  0.000  0.000  0.005  0.005
   11  0.000  0.001  0.009  0.010
   12  0.000  0.000  0.046  0.046
   13  0.000  0.001  0.009  0.010
   14  0.000  0.004  0.020  0.024
   15  0.000  0.002  0.024  0.026
   16  0.000  0.000  0.047  0.047
   17  0.000  0.002  0.024  0.025
   18  0.000  0.006  0.011  0.018
   19  0.001  0.001  0.015  0.018
   20  0.000  0.000  0.012  0.012
   21  0.000  0.000  0.045  0.045
   22  0.001  0.001  0.015  0.017
   23  0.000  0.000  0.046  0.046
   24  0.003  0.003  0.016  0.022
   25  0.006  0.004  0.010  0.020
   26  0.001  0.001  0.015  0.018
   27  0.001  0.001  0.015  0.017
   28  0.000  0.001  0.006  0.007
   29  0.004  0.001  0.016  0.020
   30  0.012  0.000  0.019  0.031
   31  0.003  0.001  0.016  0.020
   32  0.003  0.001  0.017  0.021
   33  0.012  0.000  0.019  0.031
   34  0.003  0.001  0.017  0.021
   35  0.000  0.001  0.006  0.007
   36  0.000  0.000  0.083  0.083
tot    0.097  0.043  0.671  0.811
 
band    19 # energy   -4.27261739 # occ.  2.00000000
 
ion      s      p      d    tot
    1  0.021  0.001  0.000  0.023
    2  0.000  0.001  0.018  0.019
    3  0.000  0.001  0.018  0.019
    4  0.000  0.001  0.018  0.019
    5  0.024  0.001  0.002  0.027
    6  0.000  0.001  0.018  0.019
    7  0.000  0.001  0.018  0.019
    8  0.000  0.001  0.018  0.019
    9  0.000  0.000  0.000  0.000
   10  0.000  0.001  0.029  0.030
   11  0.001  0.003  0.035  0.039
   12  0.000  0.001  0.029  0.030
   13  0.001  0.003  0.035  0.039
   14  0.001  0.003  0.035  0.039
   15  0.000  0.001  0.005  0.006
   16  0.000  0.001  0.029  0.030
   17  0.000  0.001  0.005  0.006
   18  0.000  0.001  0.005  0.006
   19  0.001  0.001  0.011  0.013
   20  0.001  0.003  0.033  0.037
   21  0.001  0.003  0.033  0.037
   22  0.000  0.001  0.020  0.021
   23  0.001  0.003  0.033  0.037
   24  0.000  0.001  0.020  0.021
   25  0.001  0.001  0.011  0.013
   26  0.001  0.001  0.011  0.013
   27  0.000  0.001  0.020  0.021
   28  0.004  0.000  0.003  0.007
   29  0.000  0.002  0.021  0.023
   30  0.000  0.002  0.021  0.023
   31  0.000  0.002  0.021  0.023
   32  0.000  0.002  0.021  0.023
   33  0.000  0.002  0.021  0.023
   34  0.000  0.002  0.021  0.023
   35  0.019  0.000  0.001  0.020
   36  0.037  0.000  0.007  0.044
tot    0.113  0.054  0.645  0.812
 
band    20 # energy   -4.24582622 # occ.  2.00000000
 
ion      s      p      d    tot
    1  0.008  0.000  0.002  0.011
    2  0.000  0.001  0.018  0.020
    3  0.000  0.001  0.018  0.020
    4  0.000  0.001  0.018  0.020
    5  0.007  0.000  0.000  0.007
    6  0.000  0.001  0.018  0.020
    7  0.000  0.001  0.018  0.020
    8  0.000  0.001  0.018  0.020
    9  0.030  0.001  0.002  0.033
   10  0.001  0.002  0.019  0.022
   11  0.000  0.000  0.011  0.011
   12  0.001  0.002  0.019  0.022
   13  0.000  0.000  0.011  0.011
   14  0.000  0.000  0.011  0.011
   15  0.000  0.003  0.041  0.045
   16  0.001  0.002  0.019  0.022
   17  0.000  0.003  0.041  0.045
   18  0.000  0.003  0.041  0.045
   19  0.000  0.002  0.036  0.038
   20  0.000  0.000  0.006  0.007
   21  0.000  0.000  0.006  0.007
   22  0.001  0.003  0.027  0.031
   23  0.000  0.000  0.006  0.007
   24  0.001  0.003  0.027  0.031
   25  0.000  0.002  0.036  0.038
   26  0.000  0.002  0.036  0.038
   27  0.001  0.003  0.027  0.031
   28  0.027  0.001  0.001  0.029
   29  0.000  0.001  0.018  0.020
   30  0.000  0.001  0.018  0.020
   31  0.000  0.001  0.018  0.020
   32  0.000  0.001  0.018  0.020
   33  0.000  0.001  0.018  0.020
   34  0.000  0.001  0.018  0.020
   35  0.017  0.000  0.002  0.020
   36  0.002  0.000  0.001  0.003
tot    0.099  0.053  0.648  0.800
 
band    21 # energy   -4.23600126 # occ.  2.00000000
 
ion      s      p      d    tot
    1  0.000  0.002  0.001  0.003
    2  0.014  0.001  0.011  0.026
    3  0.008  0.001  0.010  0.019
    4  0.014  0.001  0.011  0.026
    5  0.000  0.002  0.023  0.025
    6  0.001  0.001  0.010  0.011
    7  0.008  0.001  0.010  0.019
    8  0.001  0.001  0.010  0.011
    9  0.000  0.000  0.033  0.033
   10  0.001  0.007  0.021  0.030
   11  0.000  0.001  0.041  0.041
   12  0.000  0.002  0.013  0.015
   13  0.000  0.000  0.041  0.042
   14  0.001  0.002  0.005  0.008
   15  0.000  0.000  0.032  0.032
   16  0.000  0.002  0.013  0.015
   17  0.000  0.000  0.032  0.032
   18  0.000  0.002  0.013  0.014
   19  0.000  0.000  0.047  0.047
   20  0.001  0.007  0.019  0.027
   21  0.000  0.002  0.014  0.016
   22  0.000  0.001  0.024  0.025
   23  0.000  0.002  0.014  0.016
   24  0.000  0.002  0.016  0.018
   25  0.001  0.001  0.003  0.005
   26  0.000  0.000  0.047  0.047
   27  0.000  0.001  0.024  0.025
   28  0.000  0.002  0.029  0.031
   29  0.012  0.001  0.010  0.024
   30  0.000  0.001  0.009  0.010
   31  0.012  0.001  0.010  0.024
   32  0.010  0.001  0.010  0.021
   33  0.000  0.001  0.009  0.010
   34  0.010  0.001  0.010  0.021
   35  0.000  0.000  0.027  0.027
   36  0.000  0.004  0.001  0.005
tot    0.097  0.054  0.651  0.802
 
band    22 # energy   -4.23592464 # occ.  2.00000000
 
ion      s      p      d    tot
    1  0.000  0.002  0.001  0.003
    2  0.001  0.001  0.010  0.012
    3  0.007  0.001  0.011  0.018
    4  0.001  0.001  0.010  0.012
    5  0.000  0.002  0.023  0.025
    6  0.015  0.001  0.010  0.026
    7  0.007  0.001  0.011  0.018
    8  0.015  0.001  0.010  0.026
    9  0.000  0.000  0.033  0.033
   10  0.000  0.000  0.010  0.010
   11  0.001  0.001  0.017  0.019
   12  0.001  0.005  0.019  0.025
   13  0.001  0.001  0.017  0.019
   14  0.000  0.000  0.053  0.053
   15  0.000  0.001  0.019  0.020
   16  0.001  0.005  0.018  0.025