PROCAR new format
# of k-points:   10         # of bands:  252         # of ions:   36

 k-point     1 :    0.00000000 0.00000000 0.00000000     weight = 0.01562500

band     1 # energy   -8.75099433 # occ.  2.00000000
 
ion      s      p      d    tot
    1  0.007  0.001  0.000  0.008
    2  0.007  0.001  0.000  0.008
    3  0.007  0.001  0.000  0.008
    4  0.007  0.001  0.000  0.008
    5  0.007  0.001  0.000  0.008
    6  0.007  0.001  0.000  0.008
    7  0.007  0.001  0.000  0.008
    8  0.007  0.001  0.000  0.008
    9  0.007  0.001  0.000  0.008
   10  0.025  0.000  0.000  0.025
   11  0.025  0.000  0.000  0.026
   12  0.025  0.000  0.000  0.025
   13  0.025  0.000  0.000  0.026
   14  0.025  0.000  0.000  0.026
   15  0.025  0.000  0.000  0.025
   16  0.025  0.000  0.000  0.025
   17  0.025  0.000  0.000  0.025
   18  0.025  0.000  0.000  0.025
   19  0.024  0.000  0.000  0.025
   20  0.024  0.000  0.000  0.025
   21  0.024  0.000  0.000  0.025
   22  0.024  0.000  0.000  0.024
   23  0.024  0.000  0.000  0.025
   24  0.024  0.000  0.000  0.024
   25  0.024  0.000  0.000  0.025
   26  0.024  0.000  0.000  0.025
   27  0.024  0.000  0.000  0.024
   28  0.006  0.001  0.000  0.007
   29  0.006  0.001  0.000  0.007
   30  0.006  0.001  0.000  0.007
   31  0.006  0.001  0.000  0.007
   32  0.006  0.001  0.000  0.007
   33  0.006  0.001  0.000  0.007
   34  0.006  0.001  0.000  0.007
   35  0.006  0.001  0.000  0.007
   36  0.005  0.001  0.000  0.006
tot    0.563  0.016  0.001  0.580
 
band     2 # energy   -7.43506358 # occ.  2.00000000
 
ion      s      p      d    tot
    1  0.018  0.001  0.001  0.020
    2  0.018  0.001  0.001  0.019
    3  0.018  0.001  0.001  0.019
    4  0.018  0.001  0.001  0.019
    5  0.018  0.001  0.001  0.020
    6  0.018  0.001  0.001  0.019
    7  0.018  0.001  0.001  0.019
    8  0.018  0.001  0.001  0.019
    9  0.018  0.001  0.001  0.020
   10  0.009  0.002  0.001  0.012
   11  0.009  0.002  0.001  0.012
   12  0.009  0.002  0.001  0.012
   13  0.009  0.002  0.001  0.012
   14  0.009  0.002  0.001  0.012
   15  0.009  0.002  0.001  0.012
   16  0.009  0.002  0.001  0.012
   17  0.009  0.002  0.001  0.012
   18  0.009  0.002  0.001  0.012
   19  0.012  0.002  0.001  0.014
   20  0.010  0.002  0.001  0.013
   21  0.010  0.002  0.001  0.013
   22  0.011  0.002  0.001  0.014
   23  0.010  0.002  0.001  0.013
   24  0.011  0.002  0.001  0.014
   25  0.012  0.002  0.001  0.014
   26  0.012  0.002  0.001  0.014
   27  0.011  0.002  0.001  0.014
   28  0.019  0.001  0.000  0.020
   29  0.018  0.001  0.000  0.019
   30  0.018  0.001  0.000  0.019
   31  0.018  0.001  0.000  0.019
   32  0.018  0.001  0.000  0.019
   33  0.018  0.001  0.000  0.019
   34  0.018  0.001  0.000  0.019
   35  0.019  0.001  0.000  0.020
   36  0.013  0.001  0.000  0.014
tot    0.504  0.055  0.019  0.578
 
band     3 # energy   -5.80367861 # occ.  2.00000000
 
ion      s      p      d    tot
    1  0.018  0.000  0.006  0.024
    2  0.014  0.000  0.006  0.021
    3  0.014  0.000  0.006  0.021
    4  0.014  0.000  0.006  0.021
    5  0.003  0.001  0.008  0.012
    6  0.014  0.000  0.006  0.020
    7  0.014  0.000  0.006  0.021
    8  0.014  0.000  0.006  0.020
    9  0.026  0.000  0.004  0.030
   10  0.002  0.003  0.004  0.010
   11  0.017  0.005  0.001  0.024
   12  0.002  0.003  0.004  0.010
   13  0.017  0.005  0.001  0.024
   14  0.017  0.005  0.001  0.024
   15  0.000  0.002  0.006  0.008
   16  0.002  0.003  0.004  0.010
   17  0.000  0.002  0.006  0.008
   18  0.000  0.002  0.006  0.008
   19  0.000  0.003  0.005  0.008
   20  0.018  0.005  0.002  0.025
   21  0.019  0.005  0.002  0.025
   22  0.000  0.004  0.003  0.008
   23  0.019  0.005  0.002  0.025
   24  0.000  0.004  0.003  0.008
   25  0.000  0.003  0.005  0.008
   26  0.000  0.003  0.005  0.008
   27  0.000  0.004  0.003  0.008
   28  0.022  0.000  0.004  0.026
   29  0.014  0.000  0.006  0.021
   30  0.014  0.000  0.006  0.021
   31  0.014  0.000  0.006  0.021
   32  0.014  0.000  0.006  0.021
   33  0.014  0.000  0.006  0.021
   34  0.014  0.000  0.006  0.021
   35  0.025  0.000  0.005  0.029
   36  0.001  0.001  0.006  0.008
tot    0.379  0.075  0.169  0.623
 
band     4 # energy   -5.76304352 # occ.  2.00000000
 
ion      s      p      d    tot
    1  0.000  0.002  0.005  0.007
    2  0.010  0.002  0.002  0.015
    3  0.000  0.001  0.002  0.003
    4  0.009  0.002  0.002  0.013
    5  0.000  0.003  0.004  0.007
    6  0.004  0.002  0.002  0.008
    7  0.001  0.001  0.002  0.004
    8  0.006  0.002  0.002  0.011
    9  0.000  0.000  0.002  0.002
   10  0.053  0.005  0.003  0.061
   11  0.014  0.008  0.005  0.027
   12  0.009  0.001  0.015  0.025
   13  0.007  0.010  0.005  0.022
   14  0.039  0.001  0.007  0.047
   15  0.000  0.006  0.006  0.012
   16  0.018  0.002  0.012  0.033
   17  0.000  0.007  0.006  0.013
   18  0.001  0.002  0.004  0.007
   19  0.005  0.009  0.003  0.018
   20  0.064  0.004  0.005  0.073
   21  0.011  0.004  0.013  0.028
   22  0.003  0.003  0.011  0.016
   23  0.022  0.004  0.011  0.037
   24  0.015  0.004  0.003  0.021
   25  0.016  0.000  0.007  0.023
   26  0.003  0.011  0.003  0.017
   27  0.005  0.003  0.009  0.017
   28  0.000  0.002  0.003  0.005
   29  0.010  0.003  0.003  0.015
   30  0.001  0.001  0.002  0.004
   31  0.010  0.003  0.003  0.015
   32  0.003  0.001  0.002  0.006
   33  0.002  0.001  0.002  0.006
   34  0.005  0.002  0.002  0.008
   35  0.000  0.000  0.003  0.003
   36  0.000  0.003  0.004  0.008
tot    0.347  0.115  0.178  0.640
 
band     5 # energy   -5.76303480 # occ.  2.00000000
 
ion      s      p      d    tot
    1  0.000  0.002  0.005  0.008
    2  0.000  0.001  0.002  0.003
    3  0.010  0.002  0.003  0.015
    4  0.001  0.001  0.002  0.005
    5  0.000  0.003  0.004  0.007
    6  0.006  0.002  0.002  0.010
    7  0.009  0.002  0.003  0.014
    8  0.004  0.001  0.002  0.008
    9  0.000  0.000  0.002  0.002
   10  0.001  0.000  0.017  0.018
   11  0.026  0.005  0.006  0.037
   12  0.045  0.004  0.005  0.054
   13  0.033  0.003  0.006  0.042
   14  0.000  0.012  0.005  0.017
   15  0.001  0.004  0.005  0.010
   16  0.036  0.003  0.008  0.047
   17  0.001  0.003  0.004  0.008
   18  0.000  0.008  0.006  0.014
   19  0.011  0.005  0.005  0.020
   20  0.001  0.004  0.015  0.019
   21  0.054  0.004  0.007  0.064
   22  0.012  0.004  0.004  0.020
   23  0.042  0.004  0.008  0.055
   24  0.000  0.003  0.012  0.015
   25  0.000  0.013  0.002  0.015
   26  0.013  0.002  0.006  0.022
   27  0.010  0.003  0.006  0.019
   28  0.000  0.002  0.003  0.005
   29  0.000  0.001  0.002  0.003
   30  0.009  0.002  0.003  0.014
   31  0.000  0.001  0.002  0.003
   32  0.008  0.002  0.003  0.012
   33  0.008  0.002  0.003  0.012
   34  0.006  0.002  0.003  0.010
   35  0.000  0.000  0.003  0.003
   36  0.000  0.003  0.004  0.008
tot    0.346  0.115  0.178  0.640
 
band     6 # energy   -5.75031532 # occ.  2.00000000
 
ion      s      p      d    tot
    1  0.020  0.003  0.001  0.024
    2  0.000  0.002  0.004  0.006
    3  0.000  0.002  0.004  0.006
    4  0.000  0.002  0.004  0.006
    5  0.001  0.000  0.000  0.001
    6  0.000  0.002  0.004  0.006
    7  0.000  0.002  0.004  0.006
    8  0.000  0.002  0.004  0.006
    9  0.011  0.002  0.000  0.013
   10  0.030  0.005  0.007  0.042
   11  0.003  0.001  0.012  0.016
   12  0.030  0.005  0.007  0.042
   13  0.003  0.001  0.012  0.016
   14  0.003  0.001  0.012  0.015
   15  0.014  0.009  0.003  0.025
   16  0.030  0.005  0.007  0.041
   17  0.014  0.009  0.003  0.025
   18  0.014  0.008  0.003  0.026
   19  0.021  0.009  0.002  0.032
   20  0.000  0.002  0.011  0.013
   21  0.000  0.002  0.011  0.013
   22  0.026  0.003  0.008  0.037
   23  0.000  0.002  0.011  0.013
   24  0.026  0.003  0.009  0.037
   25  0.020  0.009  0.002  0.032
   26  0.021  0.009  0.002  0.032
   27  0.026  0.003  0.008  0.037
   28  0.017  0.002  0.000  0.020
   29  0.000  0.002  0.004  0.006
   30  0.000  0.002  0.004  0.006
   31  0.000  0.002  0.004  0.006
   32  0.000  0.002  0.004  0.006
   33  0.000  0.002  0.004  0.006
   34  0.000  0.002  0.004  0.006
   35  0.014  0.002  0.001  0.018
   36  0.000  0.000  0.000  0.000
tot    0.345  0.115  0.179  0.639
 
band     7 # energy   -5.74496072 # occ.  2.00000000
 
ion      s      p      d    tot
    1  0.000  0.001  0.003  0.004
    2  0.010  0.002  0.002  0.015
    3  0.000  0.001  0.002  0.003
    4  0.009  0.002  0.002  0.014
    5  0.000  0.000  0.004  0.004
    6  0.005  0.002  0.002  0.009
    7  0.001  0.001  0.002  0.004
    8  0.006  0.002  0.003  0.010
    9  0.000  0.003  0.006  0.009
   10  0.000  0.013  0.002  0.015
   11  0.017  0.003  0.006  0.026
   12  0.007  0.003  0.005  0.016
   13  0.019  0.004  0.005  0.027
   14  0.000  0.002  0.014  0.016
   15  0.044  0.004  0.007  0.055
   16  0.006  0.004  0.005  0.016
   17  0.049  0.004  0.007  0.059
   18  0.000  0.006  0.012  0.018
   19  0.033  0.003  0.007  0.043
   20  0.000  0.010  0.005  0.015
   21  0.000  0.003  0.005  0.008
   22  0.037  0.003  0.006  0.047
   23  0.000  0.004  0.005  0.009
   24  0.000  0.010  0.006  0.017
   25  0.000  0.000  0.017  0.017
   26  0.037  0.004  0.005  0.046
   27  0.034  0.004  0.006  0.044
   28  0.000  0.002  0.005  0.007
   29  0.010  0.002  0.003  0.015
   30  0.001  0.001  0.002  0.005
   31  0.010  0.002  0.003  0.015
   32  0.003  0.001  0.002  0.006
   33  0.002  0.001  0.002  0.006
   34  0.004  0.001  0.002  0.007
   35  0.000  0.003  0.005  0.008
   36  0.000  0.000  0.002  0.002
tot    0.345  0.116  0.178  0.638
 
band     8 # energy   -5.74495425 # occ.  2.00000000
 
ion      s      p      d    tot
    1  0.000  0.001  0.003  0.004
    2  0.001  0.001  0.002  0.004
    3  0.010  0.003  0.003  0.015
    4  0.001  0.001  0.002  0.004
    5  0.000  0.000  0.004  0.004
    6  0.006  0.002  0.002  0.010
    7  0.010  0.002  0.003  0.015
    8  0.005  0.002  0.002  0.008
    9  0.000  0.003  0.006  0.009
   10  0.009  0.000  0.007  0.016
   11  0.007  0.002  0.011  0.020
   12  0.002  0.011  0.003  0.015
   13  0.005  0.002  0.012  0.019
   14  0.024  0.004  0.002  0.030
   15  0.018  0.005  0.010  0.033
   16  0.003  0.010  0.003  0.015
   17  0.013  0.005  0.011  0.029
   18  0.062  0.003  0.005  0.070
   19  0.013  0.001  0.013  0.028
   20  0.000  0.001  0.005  0.006
   21  0.000  0.008  0.005  0.013
   22  0.010  0.009  0.006  0.025
   23  0.000  0.007  0.005  0.012
   24  0.047  0.002  0.006  0.055
   25  0.047  0.005  0.002  0.054
   26  0.010  0.001  0.014  0.025
   27  0.014  0.008  0.006  0.028
   28  0.000  0.002  0.005  0.007
   29  0.000  0.001  0.002  0.003
   30  0.009  0.002  0.002  0.013
   31  0.000  0.001  0.002  0.003
   32  0.007  0.002  0.003  0.012
   33  0.008  0.002  0.002  0.012
   34  0.006  0.002  0.003  0.011
   35  0.000  0.003  0.005  0.008
   36  0.000  0.000  0.002  0.002
tot    0.345  0.116  0.178  0.638
 
band     9 # energy   -5.70772333 # occ.  2.00000000
 
ion      s      p      d    tot
    1  0.000  0.000  0.002  0.002
    2  0.003  0.002  0.006  0.011
    3  0.003  0.002  0.006  0.011
    4  0.003  0.002  0.006  0.011
    5  0.039  0.003  0.000  0.042
    6  0.003  0.002  0.006  0.011
    7  0.003  0.002  0.006  0.011
    8  0.003  0.002  0.006  0.011
    9  0.001  0.002  0.004  0.007
   10  0.005  0.005  0.007  0.017
   11  0.017  0.008  0.005  0.029
   12  0.005  0.005  0.007  0.017
   13  0.017  0.008  0.005  0.029
   14  0.017  0.008  0.005  0.029
   15  0.025  0.002  0.010  0.036
   16  0.005  0.005  0.007  0.017
   17  0.025  0.002  0.010  0.036
   18  0.025  0.002  0.010  0.036
   19  0.012  0.002  0.008  0.022
   20  0.017  0.005  0.006  0.027
   21  0.017  0.005  0.006  0.027
   22  0.008  0.006  0.004  0.018
   23  0.017  0.005  0.006  0.027
   24  0.008  0.006  0.004  0.018
   25  0.012  0.002  0.008  0.022
   26  0.012  0.002  0.008  0.022
   27  0.008  0.006  0.004  0.018
   28  0.000  0.001  0.004  0.004
   29  0.004  0.001  0.004  0.008
   30  0.004  0.001  0.004  0.008
   31  0.004  0.001  0.004  0.008
   32  0.004  0.001  0.004  0.008
   33  0.004  0.001  0.004  0.008
   34  0.004  0.001  0.004  0.008
   35  0.000  0.001  0.002  0.003
   36  0.020  0.002  0.000  0.022
tot    0.350  0.105  0.186  0.641
 
band    10 # energy   -4.98848784 # occ.  2.00000000
 
ion      s      p      d    tot
    1  0.000  0.001  0.008  0.010
    2  0.003  0.001  0.009  0.013
    3  0.003  0.001  0.009  0.013
    4  0.003  0.001  0.009  0.013
    5  0.000  0.001  0.006  0.008
    6  0.003  0.001  0.009  0.013
    7  0.003  0.001  0.009  0.013
    8  0.003  0.001  0.009  0.013
    9  0.026  0.000  0.005  0.031
   10  0.011  0.001  0.022  0.033
   11  0.006  0.000  0.020  0.026
   12  0.011  0.001  0.022  0.033
   13  0.006  0.000  0.020  0.026
   14  0.006  0.000  0.020  0.026
   15  0.000  0.001  0.021  0.023
   16  0.011  0.001  0.022  0.033
   17  0.000  0.001  0.021  0.023
   18  0.000  0.001  0.021  0.023
   19  0.008  0.000  0.020  0.028
   20  0.010  0.000  0.025  0.036
   21  0.011  0.000  0.025  0.036
   22  0.000  0.001  0.021  0.022
   23  0.011  0.000  0.025  0.036
   24  0.000  0.001  0.021  0.022
   25  0.008  0.000  0.020  0.028
   26  0.008  0.000  0.020  0.028
   27  0.000  0.001  0.021  0.022
   28  0.000  0.001  0.007  0.008
   29  0.004  0.001  0.009  0.014
   30  0.004  0.001  0.009  0.014
   31  0.004  0.001  0.009  0.014
   32  0.004  0.001  0.009  0.014
   33  0.004  0.001  0.009  0.014
   34  0.004  0.001  0.009  0.014
   35  0.026  0.000  0.005  0.031
   36  0.000  0.001  0.005  0.007
tot    0.204  0.029  0.529  0.762
 
band    11 # energy   -4.98388703 # occ.  2.00000000
 
ion      s      p      d    tot
    1  0.040  0.002  0.000  0.042
    2  0.001  0.003  0.010  0.013
    3  0.001  0.003  0.010  0.013
    4  0.001  0.003  0.010  0.013
    5  0.000  0.000  0.003  0.003
    6  0.001  0.003  0.010  0.013
    7  0.001  0.003  0.010  0.013
    8  0.001  0.003  0.010  0.013
    9  0.015  0.003  0.003  0.021
   10  0.003  0.003  0.013  0.020
   11  0.005  0.000  0.017  0.022
   12  0.003  0.003  0.013  0.020
   13  0.005  0.000  0.017  0.022
   14  0.004  0.000  0.017  0.021
   15  0.009  0.003  0.018  0.029
   16  0.003  0.003  0.013  0.020
   17  0.009  0.003  0.018  0.029
   18  0.009  0.003  0.018  0.029
   19  0.002  0.003  0.019  0.024
   20  0.001  0.000  0.017  0.018
   21  0.001  0.000  0.017  0.017
   22  0.015  0.002  0.013  0.030
   23  0.001  0.000  0.017  0.017
   24  0.015  0.002  0.013  0.030
   25  0.002  0.003  0.019  0.024
   26  0.002  0.003  0.019  0.024
   27  0.015  0.002  0.013  0.030
   28  0.042  0.002  0.001  0.045
   29  0.001  0.002  0.010  0.014
   30  0.001  0.002  0.010  0.014
   31  0.001  0.002  0.010  0.014
   32  0.001  0.002  0.010  0.014
   33  0.001  0.002  0.010  0.014
   34  0.001  0.002  0.010  0.014
   35  0.013  0.003  0.004  0.020
   36  0.000  0.000  0.001  0.001
tot    0.221  0.077  0.421  0.719
 
band    12 # energy   -4.97919841 # occ.  2.00000000
 
ion      s      p      d    tot
    1  0.000  0.001  0.011  0.011
    2  0.015  0.003  0.005  0.024
    3  0.003  0.002  0.005  0.010
    4  0.008  0.002  0.005  0.016
    5  0.000  0.006  0.008  0.014
    6  0.017  0.003  0.005  0.025
    7  0.000  0.002  0.005  0.007
    8  0.021  0.004  0.005  0.030
    9  0.000  0.003  0.012  0.015
   10  0.006  0.003  0.010  0.019
   11  0.009  0.003  0.017  0.029
   12  0.001  0.002  0.014  0.016
   13  0.003  0.001  0.023  0.027
   14  0.021  0.005  0.006  0.032
   15  0.002  0.002  0.017  0.021
   16  0.003  0.002  0.013  0.017
   17  0.001  0.003  0.022  0.026
   18  0.004  0.001  0.007  0.012
   19  0.000  0.002  0.014  0.016
   20  0.016  0.003  0.006  0.025
   21  0.002  0.002  0.028  0.033
   22  0.002  0.001  0.017  0.020
   23  0.007  0.003  0.021  0.030
   24  0.017  0.005  0.008  0.030
   25  0.000  0.000  0.009  0.009
   26  0.000  0.003  0.016  0.019
   27  0.007  0.002  0.014  0.023
   28  0.000  0.000  0.012  0.013
   29  0.014  0.003  0.006  0.023
   30  0.004  0.002  0.005  0.011
   31  0.006  0.002  0.006  0.014
   32  0.018  0.004  0.006  0.027
   33  0.000  0.002  0.005  0.007
   34  0.021  0.004  0.006  0.031
   35  0.000  0.003  0.009  0.012
   36  0.000  0.005  0.005  0.011
tot    0.227  0.093  0.386  0.705
 
band    13 # energy   -4.97919314 # occ.  2.00000000
 
ion      s      p      d    tot
    1  0.000  0.001  0.011  0.011
    2  0.006  0.002  0.005  0.014
    3  0.018  0.003  0.005  0.027
    4  0.013  0.003  0.005  0.022
    5  0.000  0.006  0.008  0.014
    6  0.005  0.002  0.005  0.012
    7  0.021  0.004  0.005  0.030
    8  0.000  0.002  0.005  0.007
    9  0.000  0.003  0.012  0.015
   10  0.000  0.001  0.014  0.016
   11  0.013  0.003  0.014  0.030
   12  0.005  0.002  0.010  0.018
   13  0.019  0.005  0.008  0.032
   14  0.001  0.001  0.025  0.026
   15  0.003  0.002  0.014  0.018
   16  0.004  0.002  0.012  0.018
   17  0.004  0.001  0.009  0.013
   18  0.000  0.004  0.023  0.027
   19  0.000  0.002  0.012  0.014
   20  0.000  0.002  0.031  0.034
   21  0.014  0.003  0.008  0.026
   22  0.015  0.005  0.009  0.029
   23  0.010  0.003  0.016  0.028
   24  0.001  0.000  0.018  0.019
   25  0.000  0.003  0.017  0.020
   26  0.000  0.001  0.010  0.010
   27  0.010  0.003  0.012  0.026
   28  0.000  0.000  0.012  0.013
   29  0.008  0.002  0.005  0.015
   30  0.017  0.003  0.006  0.027
   31  0.015  0.003  0.006  0.024
   32  0.003  0.002  0.006  0.011
   33  0.021  0.004  0.006  0.031
   34  0.000  0.002  0.005  0.007
   35  0.000  0.003  0.009  0.012
   36  0.000  0.005  0.005  0.011
tot    0.227  0.093  0.386  0.705
 
band    14 # energy   -4.97555750 # occ.  2.00000000
 
ion      s      p      d    tot
    1  0.000  0.006  0.010  0.016
    2  0.010  0.003  0.005  0.018
    3  0.021  0.004  0.005  0.030
    4  0.009  0.003  0.005  0.017
    5  0.000  0.000  0.013  0.013
    6  0.002  0.002  0.005  0.009
    7  0.020  0.004  0.005  0.030
    8  0.002  0.002  0.005  0.009
    9  0.000  0.003  0.009  0.012
   10  0.015  0.003  0.005  0.023
   11  0.000  0.002  0.015  0.018
   12  0.004  0.003  0.023  0.029
   13  0.000  0.002  0.015  0.017
   14  0.000  0.000  0.009  0.010
   15  0.004  0.001  0.016  0.021
   16  0.004  0.003  0.024  0.030
   17  0.004  0.001  0.016  0.022
   18  0.017  0.005  0.008  0.030
   19  0.005  0.002  0.021  0.027
   20  0.006  0.002  0.011  0.019
   21  0.002  0.002  0.014  0.017
   22  0.001  0.003  0.018  0.023
   23  0.001  0.002  0.014  0.017
   24  0.005  0.001  0.006  0.012
   25  0.022  0.005  0.005  0.033
   26  0.006  0.002  0.020  0.028
   27  0.001  0.003  0.019  0.023
   28  0.000  0.006  0.008  0.014
   29  0.011  0.003  0.006  0.020
   30  0.019  0.004  0.005  0.028
   31  0.011  0.003  0.006  0.019
   32  0.001  0.002  0.006  0.008
   33  0.019  0.004  0.005  0.028
   34  0.001  0.002  0.006  0.009
   35  0.000  0.003  0.012  0.015
   36  0.000  0.000  0.006  0.007
tot    0.226  0.094  0.382  0.702
 
band    15 # energy   -4.97554042 # occ.  2.00000000
 
ion      s      p      d    tot
    1  0.000  0.006  0.010  0.016
    2  0.011  0.003  0.005  0.019
    3  0.001  0.002  0.005  0.008
    4  0.012  0.003  0.005  0.020
    5  0.000  0.000  0.013  0.013
    6  0.020  0.004  0.006  0.029
    7  0.001  0.002  0.005  0.008
    8  0.019  0.004  0.006  0.029
    9  0.000  0.003  0.009  0.012
   10  0.000  0.002  0.029  0.032
   11  0.000  0.001  0.011  0.012
   12  0.011  0.003  0.011  0.026
   13  0.000  0.001  0.011  0.012
   14  0.000  0.003  0.017  0.020
   15  0.013  0.004  0.011  0.027
   16  0.012  0.003  0.011  0.025
   17  0.012  0.004  0.011  0.027
   18  0.000  0.000  0.018  0.018
   19  0.017  0.004  0.010  0.031
   20  0.000  0.002  0.015  0.017
   21  0.004  0.002  0.012  0.018
   22  0.004  0.001  0.011  0.016
   23  0.005  0.002  0.012  0.018
   24  0.000  0.004  0.023  0.027
   25  0.000  0.000  0.025  0.026
   26  0.016  0.004  0.011  0.031
   27  0.004  0.001  0.010  0.016
   28  0.000  0.006  0.008  0.014
   29  0.010  0.003  0.005  0.018
   30  0.001  0.002  0.006  0.009
   31  0.010  0.003  0.005  0.018
   32  0.020  0.004  0.005  0.029
   33  0.002  0.002  0.006  0.009
   34  0.020  0.004  0.005  0.029
   35  0.000  0.003  0.012  0.015
   36  0.000  0.000  0.006  0.007
tot    0.226  0.094  0.382  0.702
 
band    16 # energy   -4.88728354 # occ.  2.00000000
 
ion      s      p      d    tot
    1  0.010  0.001  0.001  0.012
    2  0.000  0.003  0.011  0.014
    3  0.000  0.003  0.011  0.014
    4  0.000  0.003  0.011  0.014
    5  0.046  0.004  0.000  0.049
    6  0.000  0.003  0.011  0.014
    7  0.000  0.003  0.011  0.014
    8  0.000  0.003  0.011  0.014
    9  0.006  0.001  0.001  0.008
   10  0.001  0.001  0.023  0.026
   11  0.004  0.004  0.019  0.027
   12  0.001  0.001  0.023  0.026
   13  0.004  0.004  0.019  0.027
   14  0.004  0.004  0.019  0.027
   15  0.005  0.002  0.010  0.017
   16  0.001  0.001  0.023  0.026
   17  0.005  0.002  0.010  0.017
   18  0.005  0.002  0.010  0.017
   19  0.010  0.001  0.019  0.029
   20  0.009  0.004  0.011  0.025
   21  0.009  0.004  0.011  0.025
   22  0.003  0.001  0.018  0.022
   23  0.009  0.004  0.011  0.025
   24  0.003  0.001  0.018  0.022
   25  0.010  0.001  0.019  0.029
   26  0.010  0.001  0.019  0.029
   27  0.003  0.001  0.018  0.022
   28  0.003  0.002  0.004  0.009
   29  0.001  0.002  0.010  0.013
   30  0.001  0.002  0.010  0.013
   31  0.001  0.002  0.010  0.013
   32  0.001  0.002  0.010  0.013
   33  0.001  0.002  0.010  0.013
   34  0.001  0.002  0.010  0.013
   35  0.005  0.002  0.002  0.008
   36  0.033  0.003  0.000  0.037
tot    0.211  0.083  0.431  0.725
 
band    17 # energy   -4.29231528 # occ.  2.00000000
 
ion      s      p      d    tot
    1  0.000  0.000  0.025  0.025
    2  0.013  0.001  0.010  0.024
    3  0.000  0.001  0.010  0.010
    4  0.012  0.001  0.010  0.024
    5  0.000  0.003  0.001  0.004
    6  0.011  0.001  0.011  0.023
    7  0.000  0.001  0.010  0.010
    8  0.012  0.001  0.011  0.023
    9  0.000  0.001  0.032  0.033
   10  0.000  0.003  0.019  0.022
   11  0.000  0.002  0.018  0.020
   12  0.000  0.001  0.023  0.024
   13  0.000  0.002  0.018  0.020
   14  0.001  0.007  0.017  0.025
   15  0.000  0.000  0.045  0.046
   16  0.000  0.001  0.023  0.024
   17  0.000  0.000  0.047  0.047
   18  0.001  0.001  0.003  0.004
   19  0.000  0.000  0.033  0.033
   20  0.001  0.003  0.006  0.010
   21  0.000  0.001  0.045  0.046
   22  0.000  0.002  0.009  0.011
   23  0.000  0.001  0.044  0.045
   24  0.001  0.007  0.022  0.029
   25  0.000  0.001  0.010  0.011
   26  0.000  0.000  0.034  0.034
   27  0.000  0.002  0.010  0.012
   28  0.000  0.000  0.033  0.033
   29  0.002  0.001  0.010  0.012
   30  0.007  0.001  0.009  0.016
   31  0.001  0.001  0.010  0.012
   32  0.015  0.001  0.011  0.027
   33  0.006  0.001  0.009  0.016
   34  0.014  0.001  0.011  0.026
   35  0.000  0.002  0.002  0.004
   36  0.000  0.002  0.008  0.010
tot    0.099  0.053  0.647  0.798
 
band    18 # energy   -4.29227788 # occ.  2.00000000
 
ion      s      p      d    tot
    1  0.000  0.000  0.025  0.025
    2  0.003  0.001  0.010  0.014
    3  0.016  0.001  0.010  0.028
    4  0.004  0.001  0.010  0.015
    5  0.000  0.003  0.001  0.004
    6  0.005  0.001  0.010  0.015
    7  0.016  0.001  0.011  0.028
    8  0.004  0.001  0.010  0.015
    9  0.000  0.001  0.031  0.033
   10  0.000  0.000  0.025  0.025
   11  0.001  0.005  0.017  0.023
   12  0.000  0.003  0.020  0.023
   13  0.001  0.005  0.017  0.024
   14  0.000  0.000  0.018  0.018
   15  0.000  0.001  0.018  0.019
   16  0.000  0.002  0.021  0.023
   17  0.000  0.001  0.017  0.018
   18  0.000  0.000  0.060  0.060
   19  0.000  0.001  0.018  0.019
   20  0.000  0.000  0.057  0.057
   21  0.001  0.002  0.018  0.021
   22  0.001  0.005  0.018  0.024
   23  0.001  0.002  0.020  0.023
   24  0.000  0.000  0.006  0.006
   25  0.000  0.000  0.041  0.041
   26  0.000  0.001  0.017  0.018
   27  0.001  0.005  0.017  0.023
   28  0.000  0.000  0.033  0.033
   29  0.013  0.001  0.009  0.024
   30  0.008  0.001  0.011  0.020
   31  0.014  0.001  0.010  0.024
   32  0.000  0.001  0.009  0.010
   33  0.009  0.001  0.011  0.020
   34  0.001  0.001  0.009  0.010
   35  0.000  0.002  0.002  0.004
   36  0.000  0.002  0.008  0.010
tot    0.099  0.053  0.646  0.798
 
band    19 # energy   -4.28918165 # occ.  2.00000000
 
ion      s      p      d    tot
    1  0.002  0.000  0.001  0.004
    2  0.000  0.001  0.018  0.019
    3  0.000  0.001  0.018  0.019
    4  0.000  0.001  0.018  0.019
    5  0.014  0.000  0.000  0.015
    6  0.000  0.001  0.019  0.020
    7  0.000  0.001  0.018  0.019
    8  0.000  0.001  0.019  0.020
    9  0.028  0.001  0.002  0.031
   10  0.001  0.002  0.010  0.012
   11  0.000  0.001  0.019  0.019
   12  0.001  0.001  0.011  0.013
   13  0.000  0.001  0.019  0.019
   14  0.000  0.001  0.019  0.019
   15  0.001  0.003  0.040  0.043
   16  0.001  0.001  0.011  0.013
   17  0.001  0.003  0.040  0.043
   18  0.001  0.004  0.037  0.042
   19  0.000  0.001  0.029  0.030
   20  0.000  0.001  0.006  0.007
   21  0.000  0.000  0.007  0.007
   22  0.001  0.003  0.034  0.038
   23  0.000  0.000  0.007  0.007
   24  0.001  0.004  0.033  0.038
   25  0.000  0.001  0.030  0.031
   26  0.000  0.001  0.029  0.030
   27  0.001  0.003  0.034  0.038
   28  0.023  0.001  0.001  0.024
   29  0.000  0.001  0.020  0.021
   30  0.000  0.001  0.021  0.022
   31  0.000  0.001  0.020  0.021
   32  0.000  0.001  0.020  0.022
   33  0.000  0.001  0.021  0.022
   34  0.000  0.001  0.020  0.022
   35  0.024  0.001  0.002  0.027
   36  0.000  0.000  0.000  0.000
tot    0.097  0.051  0.652  0.800
 
band    20 # energy   -4.28882990 # occ.  2.00000000
 
ion      s      p      d    tot
    1  0.000  0.002  0.014  0.016
    2  0.012  0.001  0.009  0.023
    3  0.000  0.001  0.009  0.010
    4  0.011  0.001  0.010  0.022
    5  0.000  0.000  0.036  0.036
    6  0.010  0.001  0.010  0.022
    7  0.000  0.001  0.009  0.010
    8  0.011  0.001  0.010  0.022
    9  0.000  0.002  0.006  0.008
   10  0.000  0.000  0.044  0.044
   11  0.000  0.000  0.019  0.019
   12  0.001  0.003  0.016  0.020
   13  0.000  0.000  0.017  0.017
   14  0.000  0.000  0.049  0.049
   15  0.001  0.005  0.018  0.023
   16  0.001  0.003  0.018  0.022
   17  0.001  0.005  0.018  0.024
   18  0.000  0.000  0.007  0.008
   19  0.001  0.005  0.017  0.022
   20  0.000  0.000  0.019  0.020
   21  0.000  0.003  0.023  0.027
   22  0.000  0.000  0.016  0.017
   23  0.000  0.003  0.023  0.026
   24  0.000  0.000  0.059  0.059
   25  0.000  0.000  0.026  0.026
   26  0.001  0.005  0.016  0.022
   27  0.000  0.000  0.019  0.019
   28  0.000  0.003  0.004  0.007
   29  0.002  0.001  0.010  0.012
   30  0.008  0.001  0.011  0.019
   31  0.001  0.001  0.010  0.012
   32  0.015  0.001  0.010  0.027
   33  0.007  0.001  0.011  0.019
   34  0.015  0.001  0.010  0.027
   35  0.000  0.001  0.035  0.036
   36  0.000  0.001  0.008  0.009
tot    0.098  0.052  0.647  0.798
 
band    21 # energy   -4.28881992 # occ.  2.00000000
 
ion      s      p      d    tot
    1  0.000  0.002  0.014  0.016
    2  0.003  0.001  0.010  0.013
    3  0.015  0.001  0.011  0.027
    4  0.003  0.001  0.010  0.014
    5  0.000  0.000  0.036  0.036
    6  0.005  0.001  0.008  0.014
    7  0.015  0.001  0.011  0.027
    8  0.004  0.001  0.008  0.013
    9  0.000  0.002  0.006  0.008
   10  0.001  0.004  0.009  0.014
   11  0.000  0.000  0.037  0.037
   12  0.000  0.001  0.036  0.037
   13  0.000  0.000  0.039  0.039
   14  0.000  0.000  0.008  0.009
   15  0.000  0.002  0.011  0.013
   16  0.000  0.001  0.034  0.035
   17  0.000  0.002  0.010  0.012
   18  0.001  0.006  0.023  0.030
   19  0.000  0.002  0.023  0.025
   20  0.000  0.004  0.024  0.028
   21  0.000  0.001  0.021  0.022
   22  0.000  0.000  0.047  0.047
   23  0.000  0.001  0.021  0.022
   24  0.000  0.000  0.004  0.005
   25  0.001  0.007  0.013  0.020
   26  0.000  0.001  0.023  0.025
   27  0.000  0.000  0.044  0.044
   28  0.000  0.003  0.004  0.007
   29  0.014  0.001  0.012  0.027
   30  0.008  0.001  0.009  0.019
   31  0.015  0.001  0.012  0.027
   32  0.001  0.001  0.010  0.011
   33  0.009  0.001  0.009  0.020
   34  0.001  0.001  0.010  0.012
   35  0.000  0.001  0.035  0.036
   36  0.000  0.001  0.008  0.009
tot    0.098  0.052  0.647  0.798
 
band    22 # energy   -4.23458610 # occ.  2.00000000
 
ion      s      p      d    tot
    1  0.028  0.001  0.002  0.031
    2  0.000  0.001  0.020  0.021
    3  0.000  0.001  0.020  0.021
    4  0.000  0.001  0.020  0.021
    5  0.012  0.000  0.004  0.016
    6  0.000  0.001  0.020  0.021
    7  0.000  0.001  0.020  0.021
    8  0.000  0.001  0.020  0.021
    9  0.003  0.000  0.000  0.004
   10  0.000  0.002  0.031  0.034
   11  0.001  0.002  0.028  0.032
   12  0.000  0.002  0.031  0.034
   13  0.001  0.002  0.028  0.032
   14  0.001  0.002  0.028  0.032
   15  0.000  0.000  0.010  0.010
   16  0.000  0.002  0.031  0.034