PROCAR new format
# of k-points:   10         # of bands:  252         # of ions:   39

 k-point     1 :    0.00000000 0.00000000 0.00000000     weight = 0.01562500

band     1 # energy  -24.19597120 # occ.  2.00000000
 
ion      s      p      d    tot
    1  0.000  0.000  0.000  0.000
    2  0.000  0.000  0.000  0.000
    3  0.000  0.000  0.000  0.000
    4  0.000  0.000  0.000  0.000
    5  0.000  0.000  0.000  0.000
    6  0.000  0.000  0.000  0.000
    7  0.000  0.000  0.000  0.000
    8  0.000  0.000  0.000  0.000
    9  0.000  0.000  0.000  0.000
   10  0.000  0.000  0.000  0.000
   11  0.000  0.000  0.000  0.000
   12  0.000  0.000  0.000  0.000
   13  0.000  0.000  0.000  0.000
   14  0.000  0.000  0.000  0.000
   15  0.000  0.000  0.000  0.000
   16  0.000  0.000  0.000  0.000
   17  0.000  0.000  0.000  0.000
   18  0.000  0.000  0.000  0.000
   19  0.000  0.000  0.000  0.000
   20  0.000  0.000  0.000  0.000
   21  0.000  0.000  0.000  0.000
   22  0.000  0.000  0.000  0.000
   23  0.000  0.000  0.000  0.000
   24  0.000  0.000  0.000  0.000
   25  0.000  0.000  0.000  0.000
   26  0.000  0.000  0.000  0.000
   27  0.000  0.000  0.000  0.000
   28  0.000  0.000  0.000  0.000
   29  0.000  0.000  0.000  0.000
   30  0.000  0.000  0.000  0.000
   31  0.000  0.000  0.000  0.000
   32  0.000  0.000  0.000  0.000
   33  0.000  0.000  0.000  0.000
   34  0.000  0.000  0.000  0.000
   35  0.000  0.000  0.000  0.000
   36  0.000  0.000  0.000  0.000
   37  0.075  0.055  0.000  0.129
   38  0.726  0.006  0.000  0.732
   39  0.065  0.014  0.000  0.078
tot    0.866  0.074  0.000  0.940
 
band     2 # energy  -14.94599582 # occ.  2.00000000
 
ion      s      p      d    tot
    1  0.000  0.000  0.000  0.000
    2  0.000  0.000  0.000  0.000
    3  0.000  0.000  0.000  0.000
    4  0.000  0.000  0.000  0.000
    5  0.000  0.000  0.000  0.000
    6  0.000  0.000  0.000  0.000
    7  0.000  0.000  0.000  0.000
    8  0.000  0.000  0.000  0.000
    9  0.000  0.000  0.000  0.000
   10  0.000  0.000  0.000  0.000
   11  0.000  0.000  0.000  0.000
   12  0.000  0.000  0.000  0.000
   13  0.000  0.000  0.000  0.000
   14  0.000  0.000  0.000  0.000
   15  0.000  0.000  0.000  0.000
   16  0.000  0.000  0.000  0.000
   17  0.000  0.000  0.000  0.000
   18  0.000  0.000  0.000  0.000
   19  0.000  0.000  0.000  0.000
   20  0.000  0.000  0.000  0.000
   21  0.000  0.000  0.000  0.000
   22  0.000  0.000  0.000  0.000
   23  0.000  0.000  0.000  0.000
   24  0.000  0.000  0.000  0.000
   25  0.000  0.000  0.000  0.000
   26  0.000  0.000  0.000  0.000
   27  0.000  0.000  0.000  0.000
   28  0.000  0.000  0.000  0.000
   29  0.000  0.000  0.000  0.000
   30  0.000  0.000  0.000  0.000
   31  0.000  0.000  0.000  0.000
   32  0.000  0.000  0.000  0.000
   33  0.000  0.000  0.000  0.000
   34  0.000  0.000  0.000  0.000
   35  0.000  0.000  0.000  0.000
   36  0.003  0.002  0.004  0.008
   37  0.159  0.050  0.000  0.210
   38  0.015  0.522  0.000  0.537
   39  0.202  0.032  0.000  0.234
tot    0.379  0.606  0.004  0.989
 
band     3 # energy   -9.00461887 # occ.  2.00000000
 
ion      s      p      d    tot
    1  0.005  0.001  0.000  0.005
    2  0.005  0.001  0.000  0.005
    3  0.005  0.001  0.000  0.005
    4  0.005  0.001  0.000  0.005
    5  0.005  0.001  0.000  0.005
    6  0.005  0.001  0.000  0.005
    7  0.005  0.001  0.000  0.005
    8  0.005  0.001  0.000  0.005
    9  0.005  0.001  0.000  0.005
   10  0.020  0.000  0.000  0.020
   11  0.020  0.000  0.000  0.020
   12  0.020  0.000  0.000  0.020
   13  0.020  0.000  0.000  0.020
   14  0.020  0.000  0.000  0.020
   15  0.019  0.000  0.000  0.019
   16  0.020  0.000  0.000  0.020
   17  0.019  0.000  0.000  0.019
   18  0.019  0.000  0.000  0.019
   19  0.022  0.000  0.000  0.023
   20  0.029  0.000  0.000  0.030
   21  0.029  0.000  0.000  0.030
   22  0.023  0.000  0.000  0.023
   23  0.029  0.000  0.000  0.030
   24  0.023  0.000  0.000  0.023
   25  0.022  0.000  0.000  0.023
   26  0.022  0.000  0.000  0.023
   27  0.023  0.000  0.000  0.023
   28  0.007  0.001  0.000  0.008
   29  0.009  0.001  0.000  0.010
   30  0.009  0.001  0.000  0.010
   31  0.009  0.001  0.000  0.010
   32  0.009  0.001  0.000  0.010
   33  0.009  0.001  0.000  0.010
   34  0.009  0.001  0.000  0.010
   35  0.007  0.001  0.000  0.008
   36  0.048  0.000  0.009  0.058
   37  0.011  0.012  0.000  0.023
   38  0.001  0.004  0.000  0.005
   39  0.001  0.000  0.000  0.001
tot    0.571  0.030  0.011  0.612
 
band     4 # energy   -8.07226449 # occ.  2.00000000
 
ion      s      p      d    tot
    1  0.010  0.001  0.000  0.010
    2  0.009  0.001  0.000  0.010
    3  0.009  0.001  0.000  0.010
    4  0.009  0.001  0.000  0.010
    5  0.009  0.001  0.000  0.010
    6  0.009  0.001  0.000  0.010
    7  0.009  0.001  0.000  0.010
    8  0.009  0.001  0.000  0.010
    9  0.010  0.001  0.000  0.010
   10  0.012  0.000  0.000  0.013
   11  0.011  0.001  0.000  0.011
   12  0.012  0.000  0.000  0.013
   13  0.011  0.001  0.000  0.011
   14  0.011  0.001  0.000  0.011
   15  0.013  0.000  0.000  0.014
   16  0.012  0.000  0.000  0.013
   17  0.013  0.000  0.000  0.014
   18  0.013  0.000  0.000  0.014
   19  0.000  0.001  0.000  0.001
   20  0.003  0.004  0.002  0.009
   21  0.003  0.004  0.002  0.009
   22  0.000  0.001  0.000  0.001
   23  0.003  0.004  0.002  0.009
   24  0.000  0.001  0.000  0.001
   25  0.000  0.001  0.000  0.001
   26  0.000  0.001  0.000  0.001
   27  0.000  0.001  0.000  0.001
   28  0.003  0.000  0.000  0.003
   29  0.007  0.000  0.001  0.008
   30  0.007  0.000  0.001  0.008
   31  0.007  0.000  0.001  0.008
   32  0.007  0.000  0.001  0.008
   33  0.007  0.000  0.001  0.008
   34  0.007  0.000  0.001  0.008
   35  0.003  0.000  0.000  0.003
   36  0.136  0.019  0.082  0.237
   37  0.091  0.087  0.000  0.178
   38  0.007  0.027  0.000  0.034
   39  0.008  0.001  0.000  0.008
tot    0.488  0.165  0.096  0.749
 
band     5 # energy   -7.35129114 # occ.  2.00000000
 
ion      s      p      d    tot
    1  0.010  0.000  0.000  0.011
    2  0.010  0.000  0.000  0.011
    3  0.010  0.000  0.000  0.011
    4  0.010  0.000  0.000  0.011
    5  0.011  0.000  0.000  0.012
    6  0.010  0.000  0.000  0.011
    7  0.010  0.000  0.000  0.011
    8  0.010  0.000  0.000  0.011
    9  0.010  0.000  0.001  0.011
   10  0.003  0.002  0.000  0.005
   11  0.004  0.002  0.000  0.006
   12  0.003  0.002  0.000  0.005
   13  0.004  0.002  0.000  0.006
   14  0.004  0.002  0.000  0.006
   15  0.002  0.002  0.000  0.004
   16  0.003  0.002  0.000  0.005
   17  0.002  0.002  0.000  0.004
   18  0.002  0.002  0.000  0.004
   19  0.015  0.001  0.001  0.017
   20  0.003  0.002  0.004  0.008
   21  0.003  0.002  0.004  0.008
   22  0.014  0.001  0.001  0.016
   23  0.003  0.002  0.004  0.008
   24  0.014  0.001  0.001  0.016
   25  0.015  0.001  0.001  0.017
   26  0.015  0.001  0.001  0.017
   27  0.014  0.001  0.001  0.016
   28  0.017  0.001  0.000  0.018
   29  0.010  0.002  0.001  0.012
   30  0.010  0.002  0.001  0.012
   31  0.010  0.002  0.001  0.012
   32  0.010  0.002  0.001  0.012
   33  0.010  0.002  0.001  0.012
   34  0.010  0.002  0.001  0.012
   35  0.017  0.001  0.000  0.018
   36  0.018  0.028  0.122  0.168
   37  0.079  0.067  0.000  0.147
   38  0.005  0.018  0.000  0.023
   39  0.005  0.000  0.000  0.006
tot    0.416  0.156  0.147  0.719
 
band     6 # energy   -6.98529613 # occ.  2.00000000
 
ion      s      p      d    tot
    1  0.000  0.000  0.000  0.000
    2  0.000  0.000  0.000  0.000
    3  0.000  0.000  0.000  0.000
    4  0.000  0.000  0.000  0.000
    5  0.000  0.000  0.000  0.000
    6  0.000  0.000  0.000  0.000
    7  0.000  0.000  0.000  0.000
    8  0.000  0.000  0.000  0.000
    9  0.000  0.000  0.000  0.000
   10  0.000  0.000  0.000  0.000
   11  0.000  0.000  0.000  0.000
   12  0.000  0.000  0.000  0.000
   13  0.000  0.000  0.000  0.000
   14  0.000  0.000  0.000  0.000
   15  0.000  0.000  0.000  0.000
   16  0.000  0.000  0.000  0.000
   17  0.000  0.000  0.000  0.000
   18  0.000  0.000  0.000  0.000
   19  0.000  0.000  0.000  0.000
   20  0.000  0.000  0.000  0.000
   21  0.000  0.000  0.000  0.000
   22  0.000  0.000  0.000  0.000
   23  0.000  0.000  0.000  0.000
   24  0.000  0.000  0.000  0.000
   25  0.000  0.000  0.000  0.000
   26  0.000  0.000  0.000  0.000
   27  0.000  0.000  0.000  0.000
   28  0.000  0.000  0.000  0.000
   29  0.000  0.000  0.001  0.001
   30  0.000  0.000  0.000  0.000
   31  0.000  0.000  0.001  0.001
   32  0.000  0.000  0.001  0.001
   33  0.000  0.000  0.000  0.000
   34  0.000  0.000  0.001  0.001
   35  0.000  0.000  0.000  0.000
   36  0.000  0.002  0.018  0.020
   37  0.000  0.111  0.000  0.111
   38  0.000  0.534  0.000  0.534
   39  0.000  0.008  0.000  0.008
tot    0.002  0.656  0.021  0.678
 
band     7 # energy   -6.98517580 # occ.  2.00000000
 
ion      s      p      d    tot
    1  0.000  0.000  0.000  0.000
    2  0.000  0.000  0.000  0.000
    3  0.000  0.000  0.000  0.000
    4  0.000  0.000  0.000  0.000
    5  0.000  0.000  0.000  0.000
    6  0.000  0.000  0.000  0.000
    7  0.000  0.000  0.000  0.000
    8  0.000  0.000  0.000  0.000
    9  0.000  0.000  0.000  0.000
   10  0.000  0.000  0.000  0.000
   11  0.000  0.000  0.000  0.000
   12  0.000  0.000  0.000  0.000
   13  0.000  0.000  0.000  0.000
   14  0.000  0.000  0.000  0.000
   15  0.000  0.000  0.000  0.000
   16  0.000  0.000  0.000  0.000
   17  0.000  0.000  0.000  0.000
   18  0.000  0.000  0.000  0.000
   19  0.000  0.000  0.000  0.000
   20  0.000  0.000  0.000  0.000
   21  0.000  0.000  0.000  0.000
   22  0.000  0.000  0.000  0.000
   23  0.000  0.000  0.000  0.000
   24  0.000  0.000  0.000  0.000
   25  0.000  0.000  0.000  0.000
   26  0.000  0.000  0.000  0.000
   27  0.000  0.000  0.000  0.000
   28  0.000  0.000  0.000  0.000
   29  0.000  0.000  0.000  0.000
   30  0.000  0.000  0.001  0.001
   31  0.000  0.000  0.000  0.000
   32  0.000  0.000  0.000  0.000
   33  0.000  0.000  0.001  0.001
   34  0.000  0.000  0.000  0.000
   35  0.000  0.000  0.000  0.000
   36  0.000  0.002  0.018  0.020
   37  0.000  0.111  0.000  0.111
   38  0.000  0.534  0.000  0.534
   39  0.000  0.008  0.000  0.008
tot    0.002  0.656  0.021  0.678
 
band     8 # energy   -6.09002522 # occ.  2.00000000
 
ion      s      p      d    tot
    1  0.015  0.000  0.005  0.020
    2  0.014  0.000  0.005  0.019
    3  0.014  0.000  0.005  0.019
    4  0.014  0.000  0.005  0.019
    5  0.008  0.000  0.005  0.014
    6  0.014  0.000  0.005  0.019
    7  0.014  0.000  0.005  0.019
    8  0.014  0.000  0.005  0.019
    9  0.022  0.000  0.004  0.026
   10  0.003  0.004  0.002  0.008
   11  0.008  0.005  0.001  0.013
   12  0.003  0.004  0.002  0.008
   13  0.008  0.005  0.001  0.013
   14  0.008  0.005  0.001  0.013
   15  0.000  0.003  0.003  0.005
   16  0.003  0.004  0.002  0.008
   17  0.000  0.003  0.003  0.005
   18  0.000  0.003  0.003  0.005
   19  0.003  0.003  0.005  0.010
   20  0.018  0.004  0.006  0.028
   21  0.018  0.004  0.006  0.028
   22  0.001  0.003  0.004  0.008
   23  0.018  0.004  0.006  0.028
   24  0.001  0.003  0.004  0.008
   25  0.003  0.003  0.005  0.010
   26  0.003  0.003  0.005  0.010
   27  0.001  0.003  0.004  0.008
   28  0.018  0.000  0.006  0.024
   29  0.018  0.000  0.008  0.026
   30  0.018  0.000  0.008  0.026
   31  0.018  0.000  0.008  0.026
   32  0.018  0.000  0.008  0.026
   33  0.018  0.000  0.008  0.026
   34  0.018  0.000  0.008  0.026
   35  0.024  0.000  0.006  0.029
   36  0.007  0.001  0.034  0.042
   37  0.000  0.000  0.000  0.001
   38  0.000  0.000  0.000  0.000
   39  0.000  0.000  0.000  0.000
tot    0.383  0.065  0.194  0.643
 
band     9 # energy   -5.97269522 # occ.  2.00000000
 
ion      s      p      d    tot
    1  0.000  0.002  0.005  0.007
    2  0.008  0.002  0.002  0.012
    3  0.002  0.001  0.002  0.004
    4  0.008  0.002  0.002  0.013
    5  0.000  0.002  0.003  0.005
    6  0.003  0.001  0.002  0.007
    7  0.001  0.001  0.002  0.004
    8  0.003  0.001  0.002  0.006
    9  0.000  0.000  0.002  0.002
   10  0.054  0.005  0.004  0.062
   11  0.006  0.010  0.004  0.020
   12  0.016  0.002  0.011  0.029
   13  0.008  0.009  0.004  0.021
   14  0.026  0.001  0.006  0.033
   15  0.001  0.005  0.007  0.012
   16  0.011  0.002  0.012  0.025
   17  0.001  0.004  0.006  0.012
   18  0.005  0.002  0.003  0.010
   19  0.005  0.011  0.003  0.019
   20  0.070  0.004  0.007  0.081
   21  0.020  0.003  0.016  0.039
   22  0.002  0.004  0.008  0.014
   23  0.015  0.002  0.017  0.034
   24  0.007  0.003  0.003  0.013
   25  0.026  0.000  0.007  0.033
   26  0.007  0.010  0.003  0.021
   27  0.002  0.005  0.008  0.015
   28  0.000  0.003  0.004  0.006
   29  0.011  0.003  0.004  0.018
   30  0.005  0.001  0.003  0.009
   31  0.011  0.003  0.004  0.018
   32  0.002  0.001  0.003  0.007
   33  0.004  0.001  0.003  0.007
   34  0.001  0.001  0.003  0.006
   35  0.000  0.000  0.003  0.003
   36  0.000  0.006  0.018  0.024
   37  0.000  0.000  0.000  0.000
   38  0.000  0.001  0.000  0.001
   39  0.000  0.000  0.000  0.000
tot    0.342  0.114  0.194  0.650
 
band    10 # energy   -5.97248753 # occ.  2.00000000
 
ion      s      p      d    tot
    1  0.000  0.002  0.005  0.007
    2  0.000  0.001  0.002  0.003
    3  0.007  0.002  0.002  0.011
    4  0.000  0.001  0.002  0.002
    5  0.000  0.002  0.003  0.005
    6  0.005  0.002  0.002  0.008
    7  0.007  0.002  0.002  0.011
    8  0.006  0.002  0.002  0.009
    9  0.000  0.000  0.002  0.002
   10  0.000  0.001  0.014  0.015
   11  0.021  0.003  0.006  0.030
   12  0.039  0.004  0.007  0.049
   13  0.019  0.004  0.005  0.028
   14  0.000  0.012  0.004  0.016
   15  0.004  0.003  0.004  0.011
   16  0.043  0.004  0.006  0.053
   17  0.003  0.003  0.004  0.011
   18  0.000  0.005  0.008  0.013
   19  0.020  0.003  0.006  0.029
   20  0.000  0.002  0.019  0.021
   21  0.050  0.003  0.010  0.063
   22  0.005  0.004  0.005  0.014
   23  0.055  0.003  0.009  0.068
   24  0.000  0.005  0.010  0.015
   25  0.000  0.013  0.002  0.015
   26  0.018  0.004  0.005  0.028
   27  0.006  0.003  0.004  0.014
   28  0.000  0.003  0.004  0.006
   29  0.000  0.001  0.003  0.004
   30  0.007  0.002  0.004  0.013
   31  0.000  0.001  0.003  0.004
   32  0.009  0.002  0.003  0.015
   33  0.008  0.002  0.004  0.014
   34  0.010  0.003  0.003  0.016
   35  0.000  0.000  0.003  0.003
   36  0.000  0.006  0.018  0.024
   37  0.000  0.000  0.000  0.000
   38  0.000  0.001  0.000  0.001
   39  0.000  0.000  0.000  0.000
tot    0.342  0.114  0.194  0.650
 
band    11 # energy   -5.90532798 # occ.  2.00000000
 
ion      s      p      d    tot
    1  0.000  0.001  0.002  0.003
    2  0.009  0.002  0.002  0.014
    3  0.002  0.001  0.002  0.005
    4  0.009  0.002  0.002  0.014
    5  0.000  0.001  0.004  0.005
    6  0.004  0.001  0.002  0.008
    7  0.001  0.001  0.002  0.004
    8  0.002  0.001  0.002  0.006
    9  0.000  0.003  0.005  0.008
   10  0.000  0.011  0.002  0.014
   11  0.026  0.004  0.004  0.034
   12  0.002  0.004  0.004  0.010
   13  0.021  0.003  0.006  0.030
   14  0.000  0.000  0.014  0.015
   15  0.043  0.003  0.006  0.052
   16  0.002  0.002  0.005  0.010
   17  0.035  0.004  0.006  0.045
   18  0.000  0.007  0.009  0.016
   19  0.031  0.004  0.005  0.039
   20  0.000  0.013  0.002  0.015
   21  0.001  0.005  0.005  0.011
   22  0.038  0.004  0.006  0.048
   23  0.002  0.003  0.005  0.010
   24  0.000  0.008  0.008  0.017
   25  0.000  0.000  0.017  0.017
   26  0.025  0.003  0.007  0.035
   27  0.046  0.003  0.006  0.055
   28  0.000  0.001  0.005  0.007
   29  0.013  0.003  0.003  0.019
   30  0.004  0.002  0.004  0.010
   31  0.013  0.003  0.003  0.019
   32  0.004  0.001  0.003  0.009
   33  0.002  0.002  0.004  0.007
   34  0.003  0.001  0.003  0.007
   35  0.000  0.004  0.005  0.009
   36  0.000  0.001  0.009  0.011
   37  0.000  0.000  0.000  0.000
   38  0.000  0.000  0.000  0.000
   39  0.000  0.000  0.000  0.000
tot    0.341  0.116  0.180  0.637
 
band    12 # energy   -5.90510122 # occ.  2.00000000
 
ion      s      p      d    tot
    1  0.000  0.001  0.002  0.003
    2  0.000  0.001  0.002  0.003
    3  0.007  0.002  0.002  0.011
    4  0.000  0.001  0.002  0.003
    5  0.000  0.001  0.004  0.005
    6  0.005  0.002  0.002  0.009
    7  0.008  0.002  0.002  0.013
    8  0.007  0.002  0.002  0.011
    9  0.000  0.003  0.005  0.008
   10  0.003  0.001  0.005  0.009
   11  0.006  0.001  0.012  0.019
   12  0.001  0.008  0.003  0.012
   13  0.010  0.002  0.010  0.023
   14  0.031  0.004  0.002  0.038
   15  0.009  0.006  0.008  0.024
   16  0.000  0.009  0.003  0.013
   17  0.017  0.006  0.008  0.030
   18  0.052  0.002  0.005  0.060
   19  0.007  0.001  0.014  0.022
   20  0.002  0.001  0.006  0.009
   21  0.001  0.009  0.003  0.013
   22  0.019  0.006  0.007  0.032
   23  0.000  0.011  0.002  0.014
   24  0.055  0.002  0.005  0.063
   25  0.037  0.005  0.002  0.043
   26  0.012  0.002  0.012  0.026
   27  0.010  0.007  0.008  0.025
   28  0.000  0.001  0.005  0.007
   29  0.000  0.001  0.003  0.004
   30  0.009  0.002  0.003  0.014
   31  0.000  0.001  0.003  0.005
   32  0.009  0.003  0.004  0.015
   33  0.011  0.002  0.003  0.016
   34  0.011  0.003  0.003  0.017
   35  0.000  0.004  0.005  0.009
   36  0.000  0.001  0.009  0.011
   37  0.000  0.000  0.000  0.000
   38  0.000  0.000  0.000  0.000
   39  0.000  0.000  0.000  0.000
tot    0.341  0.116  0.180  0.637
 
band    13 # energy   -5.89672560 # occ.  2.00000000
 
ion      s      p      d    tot
    1  0.022  0.003  0.001  0.027
    2  0.000  0.002  0.004  0.006
    3  0.000  0.002  0.004  0.006
    4  0.000  0.002  0.004  0.006
    5  0.003  0.001  0.001  0.004
    6  0.000  0.002  0.004  0.006
    7  0.000  0.002  0.004  0.006
    8  0.000  0.002  0.004  0.006
    9  0.007  0.001  0.000  0.008
   10  0.030  0.006  0.005  0.042
   11  0.008  0.000  0.011  0.019
   12  0.030  0.007  0.005  0.042
   13  0.008  0.000  0.011  0.019
   14  0.008  0.000  0.012  0.020
   15  0.009  0.007  0.004  0.020
   16  0.030  0.007  0.005  0.042
   17  0.009  0.007  0.004  0.020
   18  0.009  0.007  0.004  0.020
   19  0.024  0.009  0.002  0.035
   20  0.000  0.003  0.011  0.015
   21  0.000  0.003  0.011  0.015
   22  0.021  0.002  0.010  0.032
   23  0.000  0.003  0.011  0.015
   24  0.022  0.001  0.009  0.033
   25  0.024  0.009  0.002  0.035
   26  0.024  0.009  0.002  0.035
   27  0.021  0.002  0.010  0.033
   28  0.020  0.003  0.000  0.023
   29  0.000  0.002  0.004  0.006
   30  0.000  0.002  0.004  0.006
   31  0.000  0.002  0.004  0.006
   32  0.000  0.002  0.004  0.006
   33  0.000  0.002  0.004  0.006
   34  0.000  0.002  0.004  0.006
   35  0.011  0.002  0.001  0.014
   36  0.000  0.000  0.000  0.001
   37  0.000  0.000  0.000  0.000
   38  0.000  0.000  0.000  0.000
   39  0.000  0.000  0.000  0.000
tot    0.342  0.113  0.183  0.639
 
band    14 # energy   -5.81326832 # occ.  2.00000000
 
ion      s      p      d    tot
    1  0.000  0.000  0.000  0.000
    2  0.001  0.002  0.005  0.008
    3  0.001  0.002  0.005  0.008
    4  0.001  0.002  0.005  0.008
    5  0.032  0.003  0.000  0.035
    6  0.001  0.002  0.005  0.008
    7  0.001  0.002  0.005  0.008
    8  0.001  0.002  0.005  0.008
    9  0.008  0.003  0.003  0.013
   10  0.001  0.003  0.010  0.014
   11  0.021  0.010  0.003  0.033
   12  0.001  0.003  0.010  0.014
   13  0.021  0.010  0.003  0.033
   14  0.021  0.010  0.003  0.033
   15  0.029  0.002  0.010  0.041
   16  0.001  0.003  0.010  0.014
   17  0.029  0.002  0.010  0.041
   18  0.029  0.002  0.010  0.041
   19  0.005  0.001  0.009  0.015
   20  0.018  0.003  0.008  0.030
   21  0.018  0.003  0.008  0.030
   22  0.010  0.007  0.003  0.021
   23  0.018  0.003  0.008  0.030
   24  0.010  0.007  0.003  0.021
   25  0.005  0.001  0.009  0.015
   26  0.005  0.001  0.009  0.015
   27  0.010  0.007  0.003  0.021
   28  0.000  0.000  0.002  0.003
   29  0.002  0.001  0.005  0.007
   30  0.002  0.001  0.005  0.007
   31  0.002  0.001  0.005  0.007
   32  0.002  0.001  0.005  0.007
   33  0.002  0.001  0.005  0.007
   34  0.002  0.001  0.005  0.007
   35  0.001  0.001  0.001  0.003
   36  0.009  0.014  0.019  0.041
   37  0.011  0.007  0.000  0.018
   38  0.001  0.002  0.000  0.003
   39  0.001  0.000  0.000  0.001
tot    0.329  0.125  0.217  0.671
 
band    15 # energy   -5.22736131 # occ.  2.00000000
 
ion      s      p      d    tot
    1  0.000  0.002  0.009  0.011
    2  0.017  0.003  0.004  0.025
    3  0.004  0.002  0.004  0.009
    4  0.018  0.003  0.005  0.026
    5  0.000  0.001  0.009  0.009
    6  0.009  0.003  0.005  0.017
    7  0.001  0.001  0.004  0.007
    8  0.006  0.002  0.004  0.012
    9  0.000  0.005  0.008  0.013
   10  0.000  0.005  0.013  0.018
   11  0.008  0.002  0.008  0.018
   12  0.003  0.002  0.009  0.013
   13  0.006  0.002  0.009  0.017
   14  0.000  0.001  0.015  0.016
   15  0.022  0.003  0.006  0.032
   16  0.004  0.001  0.008  0.012
   17  0.017  0.003  0.009  0.029
   18  0.000  0.001  0.019  0.020
   19  0.006  0.004  0.009  0.020
   20  0.000  0.003  0.029  0.032
   21  0.000  0.001  0.017  0.019
   22  0.008  0.003  0.011  0.022
   23  0.000  0.001  0.014  0.015
   24  0.000  0.001  0.026  0.027
   25  0.000  0.000  0.009  0.010
   26  0.005  0.003  0.009  0.017
   27  0.010  0.004  0.007  0.021
   28  0.000  0.003  0.009  0.012
   29  0.023  0.003  0.010  0.036
   30  0.003  0.003  0.011  0.017
   31  0.026  0.003  0.009  0.039
   32  0.017  0.002  0.009  0.028
   33  0.000  0.002  0.011  0.014
   34  0.011  0.002  0.010  0.023
   35  0.000  0.006  0.007  0.013
   36  0.000  0.001  0.040  0.041
   37  0.000  0.000  0.000  0.000
   38  0.000  0.000  0.000  0.000
   39  0.000  0.000  0.000  0.000
tot    0.225  0.089  0.395  0.709
 
band    16 # energy   -5.22725838 # occ.  2.00000000
 
ion      s      p      d    tot
    1  0.000  0.002  0.009  0.011
    2  0.001  0.002  0.004  0.007
    3  0.015  0.003  0.005  0.023
    4  0.000  0.001  0.004  0.006
    5  0.000  0.001  0.009  0.009
    6  0.009  0.002  0.004  0.015
    7  0.017  0.003  0.005  0.025
    8  0.012  0.003  0.004  0.020
    9  0.000  0.005  0.008  0.013
   10  0.004  0.000  0.007  0.011
   11  0.002  0.001  0.014  0.017
   12  0.001  0.003  0.011  0.015
   13  0.003  0.002  0.012  0.017
   14  0.009  0.002  0.006  0.018
   15  0.004  0.001  0.017  0.023
   16  0.001  0.004  0.012  0.017
   17  0.009  0.002  0.014  0.025
   18  0.026  0.004  0.004  0.034
   19  0.001  0.001  0.009  0.011
   20  0.000  0.000  0.011  0.012
   21  0.000  0.002  0.023  0.025
   22  0.004  0.002  0.018  0.024
   23  0.000  0.003  0.026  0.029
   24  0.011  0.005  0.003  0.019
   25  0.008  0.005  0.009  0.022
   26  0.003  0.002  0.009  0.014
   27  0.002  0.002  0.022  0.026
   28  0.000  0.003  0.009  0.012
   29  0.004  0.002  0.010  0.016
   30  0.024  0.002  0.009  0.035
   31  0.001  0.002  0.011  0.014
   32  0.010  0.003  0.011  0.024
   33  0.027  0.003  0.009  0.038
   34  0.016  0.003  0.011  0.029
   35  0.000  0.006  0.007  0.013
   36  0.000  0.001  0.040  0.041
   37  0.000  0.000  0.000  0.000
   38  0.000  0.000  0.000  0.000
   39  0.000  0.000  0.000  0.000
tot    0.225  0.089  0.395  0.709
 
band    17 # energy   -5.22287008 # occ.  2.00000000
 
ion      s      p      d    tot
    1  0.003  0.001  0.011  0.015
    2  0.006  0.001  0.010  0.017
    3  0.006  0.001  0.010  0.017
    4  0.006  0.001  0.010  0.017
    5  0.005  0.001  0.009  0.015
    6  0.006  0.001  0.010  0.017
    7  0.006  0.001  0.010  0.017
    8  0.006  0.001  0.010  0.017
    9  0.013  0.000  0.009  0.022
   10  0.011  0.000  0.025  0.036
   11  0.007  0.000  0.023  0.030
   12  0.011  0.000  0.025  0.036
   13  0.007  0.000  0.023  0.030
   14  0.007  0.000  0.023  0.030
   15  0.005  0.000  0.022  0.027
   16  0.011  0.000  0.025  0.036
   17  0.005  0.000  0.022  0.027
   18  0.005  0.000  0.022  0.027
   19  0.007  0.000  0.018  0.025
   20  0.006  0.000  0.032  0.039
   21  0.006  0.000  0.032  0.038
   22  0.003  0.000  0.016  0.019
   23  0.006  0.000  0.032  0.038
   24  0.003  0.000  0.016  0.019
   25  0.007  0.000  0.018  0.025
   26  0.007  0.000  0.018  0.025
   27  0.003  0.000  0.016  0.019
   28  0.000  0.001  0.006  0.007
   29  0.003  0.000  0.007  0.011
   30  0.003  0.000  0.007  0.010
   31  0.003  0.000  0.007  0.011
   32  0.003  0.000  0.007  0.011
   33  0.003  0.000  0.007  0.010
   34  0.003  0.000  0.007  0.011
   35  0.004  0.000  0.005  0.009
   36  0.005  0.002  0.015  0.021
   37  0.000  0.000  0.000  0.000
   38  0.000  0.000  0.000  0.000
   39  0.000  0.000  0.000  0.000
tot    0.204  0.014  0.564  0.782
 
band    18 # energy   -5.17525277 # occ.  2.00000000
 
ion      s      p      d    tot
    1  0.000  0.004  0.009  0.014
    2  0.022  0.004  0.006  0.031
    3  0.004  0.002  0.005  0.012
    4  0.022  0.004  0.006  0.032
    5  0.000  0.006  0.010  0.016
    6  0.010  0.003  0.006  0.018
    7  0.002  0.002  0.005  0.010
    8  0.007  0.002  0.006  0.015
    9  0.000  0.000  0.012  0.012
   10  0.023  0.005  0.007  0.036
   11  0.003  0.003  0.021  0.027
   12  0.007  0.002  0.018  0.027
   13  0.005  0.003  0.019  0.027
   14  0.017  0.002  0.006  0.025
   15  0.000  0.003  0.014  0.017
   16  0.005  0.001  0.020  0.025
   17  0.000  0.003  0.013  0.016
   18  0.001  0.001  0.009  0.010
   19  0.001  0.002  0.021  0.024
   20  0.018  0.006  0.005  0.030
   21  0.006  0.002  0.023  0.031
   22  0.001  0.002  0.011  0.013
   23  0.004  0.001  0.026  0.031
   24  0.003  0.002  0.010  0.015
   25  0.005  0.001  0.005  0.011
   26  0.001  0.002  0.019  0.022
   27  0.001  0.001  0.011  0.013
   28  0.000  0.003  0.010  0.013
   29  0.017  0.003  0.006  0.027
   30  0.003  0.001  0.005  0.010
   31  0.018  0.004  0.007  0.028
   32  0.008  0.002  0.007  0.018
   33  0.001  0.001  0.005  0.008
   34  0.006  0.002  0.007  0.015
   35  0.000  0.000  0.010  0.010
   36  0.000  0.009  0.015  0.024
   37  0.000  0.000  0.000  0.000
   38  0.000  0.000  0.000  0.000
   39  0.000  0.000  0.000  0.000
tot    0.221  0.096  0.394  0.712
 
band    19 # energy   -5.17515003 # occ.  2.00000000
 
ion      s      p      d    tot
    1  0.000  0.004  0.009  0.014
    2  0.001  0.002  0.005  0.008
    3  0.018  0.004  0.006  0.028
    4  0.000  0.002  0.005  0.007
    5  0.000  0.006  0.010  0.016
    6  0.013  0.003  0.005  0.021
    7  0.020  0.004  0.006  0.030
    8  0.015  0.003  0.005  0.024
    9  0.000  0.000  0.012  0.012
   10  0.000  0.000  0.023  0.023
   11  0.013  0.003  0.009  0.025
   12  0.016  0.004  0.012  0.032
   13  0.012  0.003  0.011  0.026
   14  0.000  0.003  0.025  0.028
   15  0.000  0.001  0.010  0.012
   16  0.019  0.004  0.010  0.033
   17  0.000  0.002  0.011  0.013
   18  0.000  0.004  0.015  0.019
   19  0.004  0.001  0.009  0.014
   20  0.000  0.000  0.031  0.031
   21  0.013  0.005  0.013  0.030
   22  0.002  0.002  0.010  0.014
   23  0.015  0.005  0.010  0.030
   24  0.000  0.001  0.011  0.012
   25  0.000  0.002  0.025  0.027
   26  0.003  0.001  0.011  0.016
   27  0.003  0.002  0.010  0.015
   28  0.000  0.003  0.010  0.013
   29  0.001  0.001  0.006  0.008
   30  0.015  0.003  0.007  0.025
   31  0.000  0.001  0.006  0.007
   32  0.009  0.002  0.006  0.017
   33  0.016  0.003  0.007  0.027
   34  0.012  0.003  0.006  0.020
   35  0.000  0.000  0.010  0.010
   36  0.000  0.009  0.015  0.024
   37  0.000  0.000  0.000  0.000
   38  0.000  0.000  0.000  0.000
   39  0.000  0.000  0.000  0.000
tot    0.221  0.096  0.394  0.712
 
band    20 # energy   -5.15036889 # occ.  2.00000000
 
ion      s      p      d    tot
    1  0.037  0.003  0.000  0.041
    2  0.000  0.003  0.010  0.013
    3  0.000  0.003  0.010  0.013
    4  0.000  0.003  0.010  0.013
    5  0.000  0.000  0.001  0.001
    6  0.000  0.003  0.010  0.013
    7  0.000  0.003  0.010  0.013
    8  0.000  0.003  0.010  0.013
    9  0.024  0.003  0.001  0.029
   10  0.007  0.004  0.011  0.022
   11  0.002  0.000  0.015  0.017
   12  0.007  0.004  0.011  0.022
   13  0.002  0.000  0.015  0.017
   14  0.002  0.000  0.015  0.017
   15  0.007  0.003  0.016  0.027
   16  0.007  0.004  0.011  0.022
   17  0.007  0.003  0.016  0.027
   18  0.007  0.003  0.016  0.027
   19  0.004  0.004  0.017  0.025
   20  0.000  0.000  0.017  0.017
   21  0.000  0.000  0.017  0.017
   22  0.012  0.003  0.010  0.024
   23  0.000  0.000  0.017  0.017
   24  0.012  0.003  0.010  0.024
   25  0.004  0.004  0.017  0.025
   26  0.004  0.004  0.017  0.025
   27  0.012  0.003  0.010  0.024
   28  0.040  0.003  0.000  0.043
   29  0.000  0.003  0.012  0.015
   30  0.000  0.003  0.012  0.015
   31  0.000  0.003  0.012  0.015
   32  0.000  0.003  0.012  0.015
   33  0.000  0.003  0.012  0.015
   34  0.000  0.003  0.012  0.015
   35  0.024  0.003  0.001  0.028
   36  0.000  0.000  0.000  0.001
   37  0.000  0.000  0.000  0.000
   38  0.000  0.000  0.000  0.000
   39  0.000  0.000  0.000  0.000