PROCAR new format
# of k-points:   10         # of bands:  252         # of ions:   38

 k-point     1 :    0.00000000 0.00000000 0.00000000     weight = 0.01562500

band     1 # energy  -19.82145426 # occ.  2.00000000
 
ion      s      p      d    tot
    1  0.000  0.000  0.000  0.000
    2  0.000  0.000  0.000  0.000
    3  0.000  0.000  0.000  0.000
    4  0.000  0.000  0.000  0.000
    5  0.000  0.000  0.000  0.000
    6  0.000  0.000  0.000  0.000
    7  0.000  0.000  0.000  0.000
    8  0.000  0.000  0.000  0.000
    9  0.000  0.000  0.000  0.000
   10  0.000  0.000  0.000  0.000
   11  0.000  0.000  0.000  0.000
   12  0.000  0.000  0.000  0.000
   13  0.000  0.000  0.000  0.000
   14  0.000  0.000  0.000  0.000
   15  0.000  0.000  0.000  0.000
   16  0.000  0.000  0.000  0.000
   17  0.000  0.000  0.000  0.000
   18  0.000  0.000  0.000  0.000
   19  0.000  0.000  0.000  0.000
   20  0.000  0.000  0.000  0.000
   21  0.000  0.000  0.000  0.000
   22  0.000  0.000  0.000  0.000
   23  0.000  0.000  0.000  0.000
   24  0.000  0.000  0.000  0.000
   25  0.000  0.000  0.000  0.000
   26  0.000  0.000  0.000  0.000
   27  0.000  0.000  0.000  0.000
   28  0.000  0.000  0.000  0.000
   29  0.000  0.000  0.000  0.000
   30  0.000  0.000  0.000  0.000
   31  0.000  0.000  0.000  0.000
   32  0.000  0.000  0.000  0.000
   33  0.000  0.000  0.000  0.000
   34  0.000  0.000  0.000  0.000
   35  0.000  0.000  0.000  0.000
   36  0.017  0.028  0.030  0.075
   37  0.744  0.017  0.000  0.761
   38  0.117  0.024  0.000  0.141
tot    0.878  0.069  0.030  0.978
 
band     2 # energy   -8.12969785 # occ.  2.00000000
 
ion      s      p      d    tot
    1  0.000  0.000  0.000  0.000
    2  0.000  0.000  0.000  0.000
    3  0.000  0.000  0.000  0.000
    4  0.000  0.000  0.000  0.000
    5  0.000  0.000  0.000  0.000
    6  0.000  0.000  0.000  0.000
    7  0.000  0.000  0.000  0.000
    8  0.000  0.000  0.000  0.000
    9  0.000  0.000  0.000  0.000
   10  0.000  0.000  0.000  0.000
   11  0.000  0.000  0.000  0.000
   12  0.000  0.000  0.000  0.000
   13  0.000  0.000  0.000  0.000
   14  0.000  0.000  0.000  0.000
   15  0.000  0.000  0.000  0.000
   16  0.000  0.000  0.000  0.000
   17  0.000  0.000  0.000  0.000
   18  0.000  0.000  0.000  0.000
   19  0.000  0.000  0.000  0.000
   20  0.001  0.000  0.001  0.002
   21  0.001  0.000  0.001  0.002
   22  0.000  0.000  0.000  0.000
   23  0.001  0.000  0.001  0.002
   24  0.000  0.000  0.000  0.000
   25  0.000  0.000  0.000  0.000
   26  0.000  0.000  0.000  0.000
   27  0.000  0.000  0.000  0.000
   28  0.000  0.000  0.000  0.000
   29  0.000  0.000  0.000  0.001
   30  0.000  0.000  0.000  0.001
   31  0.000  0.000  0.000  0.001
   32  0.000  0.000  0.000  0.001
   33  0.000  0.000  0.000  0.001
   34  0.000  0.000  0.000  0.001
   35  0.000  0.000  0.000  0.000
   36  0.073  0.068  0.155  0.296
   37  0.030  0.542  0.000  0.573
   38  0.179  0.018  0.000  0.198
tot    0.287  0.630  0.159  1.075
 
band     3 # energy   -6.05183938 # occ.  2.00000000
 
ion      s      p      d    tot
    1  0.006  0.001  0.000  0.007
    2  0.006  0.001  0.000  0.007
    3  0.006  0.001  0.000  0.007
    4  0.006  0.001  0.000  0.007
    5  0.006  0.001  0.000  0.007
    6  0.006  0.001  0.000  0.007
    7  0.006  0.001  0.000  0.007
    8  0.006  0.001  0.000  0.007
    9  0.006  0.001  0.000  0.007
   10  0.024  0.000  0.000  0.024
   11  0.024  0.000  0.000  0.024
   12  0.024  0.000  0.000  0.024
   13  0.024  0.000  0.000  0.024
   14  0.024  0.000  0.000  0.024
   15  0.023  0.000  0.000  0.024
   16  0.024  0.000  0.000  0.024
   17  0.023  0.000  0.000  0.024
   18  0.023  0.000  0.000  0.024
   19  0.022  0.000  0.000  0.023
   20  0.024  0.000  0.000  0.025
   21  0.024  0.000  0.000  0.025
   22  0.023  0.000  0.000  0.023
   23  0.024  0.000  0.000  0.025
   24  0.023  0.000  0.000  0.023
   25  0.022  0.000  0.000  0.023
   26  0.022  0.000  0.000  0.023
   27  0.023  0.000  0.000  0.023
   28  0.005  0.001  0.000  0.006
   29  0.005  0.001  0.000  0.006
   30  0.005  0.001  0.000  0.006
   31  0.005  0.001  0.000  0.006
   32  0.005  0.001  0.000  0.006
   33  0.005  0.001  0.000  0.006
   34  0.005  0.001  0.000  0.006
   35  0.005  0.001  0.000  0.006
   36  0.004  0.003  0.001  0.008
   37  0.000  0.002  0.000  0.002
   38  0.001  0.000  0.000  0.001
tot    0.522  0.017  0.008  0.546
 
band     4 # energy   -5.18461383 # occ.  2.00000000
 
ion      s      p      d    tot
    1  0.008  0.000  0.000  0.008
    2  0.008  0.000  0.000  0.008
    3  0.008  0.000  0.000  0.008
    4  0.008  0.000  0.000  0.008
    5  0.007  0.000  0.000  0.008
    6  0.008  0.000  0.000  0.008
    7  0.008  0.000  0.000  0.008
    8  0.008  0.000  0.000  0.008
    9  0.008  0.000  0.000  0.008
   10  0.011  0.001  0.016  0.028
   11  0.010  0.001  0.015  0.027
   12  0.011  0.001  0.016  0.028
   13  0.010  0.001  0.015  0.027
   14  0.010  0.001  0.015  0.027
   15  0.010  0.001  0.014  0.025
   16  0.011  0.001  0.016  0.028
   17  0.010  0.001  0.014  0.025
   18  0.010  0.001  0.014  0.025
   19  0.012  0.001  0.018  0.031
   20  0.013  0.001  0.023  0.036
   21  0.013  0.001  0.023  0.036
   22  0.012  0.001  0.016  0.029
   23  0.013  0.001  0.023  0.036
   24  0.012  0.001  0.016  0.029
   25  0.012  0.001  0.018  0.031
   26  0.012  0.001  0.018  0.031
   27  0.012  0.001  0.016  0.029
   28  0.007  0.000  0.000  0.007
   29  0.006  0.000  0.000  0.006
   30  0.006  0.000  0.000  0.006
   31  0.006  0.000  0.000  0.006
   32  0.006  0.000  0.000  0.006
   33  0.006  0.000  0.000  0.006
   34  0.006  0.000  0.000  0.006
   35  0.006  0.000  0.000  0.007
   36  0.004  0.002  0.001  0.007
   37  0.000  0.001  0.000  0.001
   38  0.000  0.000  0.000  0.000
tot    0.328  0.026  0.309  0.664
 
band     5 # energy   -4.90107719 # occ.  2.00000000
 
ion      s      p      d    tot
    1  0.015  0.000  0.026  0.041
    2  0.015  0.000  0.023  0.038
    3  0.015  0.000  0.023  0.038
    4  0.015  0.000  0.023  0.038
    5  0.014  0.000  0.022  0.036
    6  0.015  0.000  0.023  0.038
    7  0.015  0.000  0.023  0.038
    8  0.015  0.000  0.023  0.038
    9  0.016  0.000  0.022  0.038
   10  0.000  0.000  0.022  0.022
   11  0.001  0.001  0.019  0.020
   12  0.000  0.000  0.022  0.022
   13  0.001  0.001  0.019  0.020
   14  0.001  0.001  0.019  0.020
   15  0.000  0.001  0.018  0.019
   16  0.000  0.000  0.022  0.022
   17  0.000  0.001  0.018  0.019
   18  0.000  0.001  0.018  0.019
   19  0.000  0.000  0.008  0.008
   20  0.000  0.000  0.014  0.014
   21  0.000  0.000  0.014  0.014
   22  0.000  0.000  0.010  0.010
   23  0.000  0.000  0.014  0.014
   24  0.000  0.000  0.010  0.010
   25  0.000  0.000  0.008  0.008
   26  0.000  0.000  0.008  0.008
   27  0.000  0.000  0.010  0.010
   28  0.007  0.000  0.008  0.015
   29  0.007  0.000  0.008  0.015
   30  0.007  0.000  0.008  0.015
   31  0.007  0.000  0.008  0.015
   32  0.007  0.000  0.008  0.015
   33  0.007  0.000  0.008  0.015
   34  0.007  0.000  0.008  0.015
   35  0.008  0.000  0.009  0.017
   36  0.005  0.000  0.004  0.009
   37  0.000  0.000  0.000  0.000
   38  0.000  0.000  0.000  0.000
tot    0.201  0.007  0.552  0.759
 
band     6 # energy   -4.80843932 # occ.  2.00000000
 
ion      s      p      d    tot
    1  0.004  0.001  0.002  0.007
    2  0.000  0.000  0.004  0.005
    3  0.000  0.000  0.004  0.005
    4  0.000  0.000  0.004  0.005
    5  0.001  0.000  0.000  0.001
    6  0.000  0.000  0.004  0.005
    7  0.000  0.000  0.004  0.005
    8  0.000  0.000  0.004  0.005
    9  0.001  0.000  0.001  0.002
   10  0.005  0.000  0.033  0.038
   11  0.000  0.001  0.021  0.022
   12  0.005  0.000  0.033  0.038
   13  0.000  0.001  0.021  0.022
   14  0.000  0.001  0.021  0.022
   15  0.007  0.001  0.008  0.015
   16  0.005  0.000  0.033  0.038
   17  0.007  0.001  0.008  0.015
   18  0.007  0.001  0.008  0.015
   19  0.001  0.001  0.031  0.034
   20  0.007  0.000  0.099  0.106
   21  0.007  0.000  0.099  0.105
   22  0.015  0.001  0.013  0.029
   23  0.007  0.000  0.099  0.105
   24  0.015  0.001  0.013  0.029
   25  0.001  0.001  0.031  0.034
   26  0.001  0.001  0.031  0.034
   27  0.015  0.001  0.013  0.029
   28  0.000  0.000  0.001  0.001
   29  0.000  0.000  0.005  0.005
   30  0.000  0.000  0.004  0.005
   31  0.000  0.000  0.005  0.005
   32  0.000  0.000  0.004  0.005
   33  0.000  0.000  0.004  0.005
   34  0.000  0.000  0.004  0.005
   35  0.004  0.001  0.003  0.008
   36  0.002  0.005  0.001  0.009
   37  0.000  0.001  0.000  0.001
   38  0.000  0.000  0.000  0.000
tot    0.119  0.020  0.677  0.815
 
band     7 # energy   -4.79020116 # occ.  2.00000000
 
ion      s      p      d    tot
    1  0.000  0.000  0.008  0.008
    2  0.000  0.000  0.002  0.003
    3  0.001  0.000  0.003  0.004
    4  0.000  0.000  0.002  0.003
    5  0.000  0.000  0.002  0.002
    6  0.000  0.000  0.003  0.003
    7  0.001  0.000  0.003  0.004
    8  0.000  0.000  0.003  0.003
    9  0.000  0.000  0.003  0.003
   10  0.000  0.001  0.020  0.021
   11  0.000  0.000  0.025  0.026
   12  0.009  0.001  0.020  0.031
   13  0.000  0.000  0.025  0.026
   14  0.000  0.001  0.027  0.027
   15  0.007  0.001  0.014  0.021
   16  0.010  0.001  0.020  0.031
   17  0.007  0.001  0.014  0.021
   18  0.000  0.000  0.034  0.034
   19  0.019  0.001  0.032  0.051
   20  0.000  0.000  0.142  0.142
   21  0.014  0.000  0.043  0.057
   22  0.000  0.001  0.034  0.035
   23  0.014  0.000  0.041  0.055
   24  0.000  0.001  0.031  0.033
   25  0.000  0.001  0.036  0.037
   26  0.018  0.001  0.032  0.051
   27  0.000  0.000  0.034  0.035
   28  0.000  0.000  0.006  0.006
   29  0.001  0.000  0.007  0.008
   30  0.000  0.000  0.003  0.003
   31  0.001  0.000  0.007  0.008
   32  0.001  0.000  0.005  0.006
   33  0.000  0.000  0.003  0.003
   34  0.001  0.000  0.004  0.006
   35  0.000  0.000  0.000  0.000
   36  0.000  0.000  0.004  0.004
   37  0.000  0.002  0.000  0.002
   38  0.000  0.000  0.000  0.000
tot    0.106  0.016  0.691  0.813
 
band     8 # energy   -4.79018115 # occ.  2.00000000
 
ion      s      p      d    tot
    1  0.000  0.000  0.008  0.008
    2  0.001  0.000  0.003  0.004
    3  0.000  0.000  0.002  0.003
    4  0.001  0.000  0.003  0.004
    5  0.000  0.000  0.002  0.002
    6  0.001  0.000  0.002  0.004
    7  0.000  0.000  0.002  0.003
    8  0.001  0.000  0.002  0.003
    9  0.000  0.000  0.003  0.003
   10  0.013  0.001  0.021  0.034
   11  0.000  0.001  0.026  0.027
   12  0.003  0.001  0.020  0.024
   13  0.000  0.001  0.026  0.027
   14  0.000  0.000  0.025  0.025
   15  0.002  0.000  0.028  0.030
   16  0.003  0.001  0.020  0.024
   17  0.002  0.000  0.027  0.030
   18  0.009  0.001  0.007  0.017
   19  0.006  0.001  0.034  0.041
   20  0.019  0.001  0.008  0.028
   21  0.005  0.000  0.107  0.112
   22  0.000  0.001  0.032  0.034
   23  0.005  0.000  0.110  0.115
   24  0.000  0.000  0.035  0.035
   25  0.025  0.001  0.031  0.056
   26  0.006  0.001  0.034  0.042
   27  0.000  0.001  0.032  0.033
   28  0.000  0.000  0.006  0.006
   29  0.000  0.000  0.003  0.003
   30  0.001  0.001  0.006  0.008
   31  0.000  0.000  0.003  0.003
   32  0.000  0.000  0.005  0.005
   33  0.001  0.001  0.006  0.008
   34  0.000  0.000  0.005  0.005
   35  0.000  0.000  0.000  0.000
   36  0.000  0.000  0.004  0.004
   37  0.000  0.002  0.000  0.002
   38  0.000  0.000  0.000  0.000
tot    0.106  0.016  0.691  0.813
 
band     9 # energy   -4.77681665 # occ.  2.00000000
 
ion      s      p      d    tot
    1  0.000  0.000  0.003  0.003
    2  0.000  0.000  0.002  0.003
    3  0.001  0.000  0.006  0.007
    4  0.000  0.000  0.002  0.003
    5  0.000  0.000  0.010  0.010
    6  0.001  0.001  0.004  0.006
    7  0.001  0.000  0.006  0.007
    8  0.001  0.001  0.004  0.006
    9  0.000  0.000  0.002  0.002
   10  0.005  0.001  0.016  0.021
   11  0.008  0.001  0.058  0.067
   12  0.001  0.000  0.062  0.064
   13  0.008  0.001  0.060  0.068
   14  0.028  0.001  0.013  0.042
   15  0.003  0.001  0.014  0.018
   16  0.002  0.000  0.061  0.063
   17  0.002  0.001  0.014  0.017
   18  0.009  0.000  0.039  0.048
   19  0.000  0.000  0.033  0.034
   20  0.014  0.001  0.035  0.049
   21  0.003  0.001  0.024  0.028
   22  0.005  0.000  0.043  0.048
   23  0.003  0.001  0.024  0.029
   24  0.019  0.001  0.007  0.027
   25  0.001  0.000  0.016  0.017
   26  0.000  0.000  0.034  0.035
   27  0.005  0.000  0.042  0.047
   28  0.000  0.000  0.001  0.001
   29  0.002  0.000  0.004  0.006
   30  0.000  0.000  0.003  0.003
   31  0.002  0.000  0.004  0.006
   32  0.001  0.000  0.002  0.003
   33  0.000  0.000  0.003  0.003
   34  0.001  0.000  0.002  0.003
   35  0.000  0.000  0.007  0.007
   36  0.000  0.000  0.001  0.001
   37  0.000  0.000  0.000  0.000
   38  0.000  0.000  0.000  0.000
tot    0.125  0.017  0.661  0.803
 
band    10 # energy   -4.77681183 # occ.  2.00000000
 
ion      s      p      d    tot
    1  0.000  0.000  0.003  0.003
    2  0.002  0.001  0.006  0.008
    3  0.000  0.000  0.003  0.003
    4  0.002  0.001  0.006  0.008
    5  0.000  0.000  0.010  0.010
    6  0.000  0.000  0.004  0.004
    7  0.000  0.000  0.003  0.004
    8  0.000  0.000  0.004  0.004
    9  0.000  0.000  0.002  0.002
   10  0.000  0.000  0.078  0.078
   11  0.022  0.001  0.028  0.051
   12  0.004  0.000  0.030  0.035
   13  0.023  0.001  0.027  0.050
   14  0.000  0.001  0.076  0.076
   15  0.007  0.001  0.029  0.036
   16  0.004  0.000  0.032  0.036
   17  0.007  0.001  0.029  0.037
   18  0.000  0.002  0.008  0.010
   19  0.001  0.000  0.022  0.023
   20  0.000  0.001  0.021  0.022
   21  0.010  0.001  0.032  0.042
   22  0.014  0.001  0.018  0.033
   23  0.010  0.001  0.031  0.042
   24  0.000  0.000  0.054  0.054
   25  0.000  0.000  0.039  0.039
   26  0.001  0.000  0.022  0.023
   27  0.014  0.001  0.019  0.034
   28  0.000  0.000  0.001  0.001
   29  0.000  0.000  0.002  0.002
   30  0.001  0.000  0.003  0.005
   31  0.000  0.000  0.002  0.002
   32  0.001  0.000  0.004  0.005
   33  0.001  0.000  0.003  0.005
   34  0.001  0.000  0.004  0.005
   35  0.000  0.000  0.007  0.007
   36  0.000  0.000  0.001  0.001
   37  0.000  0.000  0.000  0.000
   38  0.000  0.000  0.000  0.000
tot    0.125  0.017  0.661  0.803
 
band    11 # energy   -4.77634988 # occ.  2.00000000
 
ion      s      p      d    tot
    1  0.000  0.000  0.000  0.001
    2  0.000  0.000  0.006  0.006
    3  0.000  0.000  0.005  0.006
    4  0.000  0.000  0.006  0.006
    5  0.004  0.001  0.004  0.009
    6  0.000  0.000  0.006  0.006
    7  0.000  0.000  0.005  0.006
    8  0.000  0.000  0.006  0.006
    9  0.001  0.000  0.004  0.006
   10  0.008  0.001  0.005  0.014
   11  0.013  0.001  0.041  0.055
   12  0.007  0.001  0.006  0.014
   13  0.013  0.001  0.041  0.055
   14  0.015  0.001  0.039  0.055
   15  0.001  0.000  0.055  0.057
   16  0.007  0.001  0.006  0.014
   17  0.001  0.000  0.055  0.056
   18  0.001  0.000  0.052  0.053
   19  0.011  0.001  0.030  0.042
   20  0.005  0.001  0.016  0.023
   21  0.006  0.001  0.016  0.024
   22  0.000  0.000  0.045  0.045
   23  0.006  0.001  0.016  0.024
   24  0.001  0.000  0.044  0.045
   25  0.012  0.001  0.031  0.043
   26  0.011  0.001  0.030  0.042
   27  0.000  0.000  0.045  0.045
   28  0.003  0.001  0.004  0.008
   29  0.000  0.000  0.004  0.004
   30  0.000  0.000  0.005  0.005
   31  0.000  0.000  0.004  0.004
   32  0.000  0.000  0.004  0.005
   33  0.000  0.000  0.005  0.005
   34  0.000  0.000  0.004  0.005
   35  0.002  0.000  0.003  0.005
   36  0.000  0.000  0.000  0.000
   37  0.000  0.000  0.000  0.000
   38  0.000  0.000  0.000  0.000
tot    0.132  0.018  0.649  0.798
 
band    12 # energy   -4.76104568 # occ.  2.00000000
 
ion      s      p      d    tot
    1  0.001  0.001  0.015  0.016
    2  0.000  0.000  0.007  0.008
    3  0.000  0.000  0.007  0.008
    4  0.000  0.000  0.007  0.008
    5  0.001  0.000  0.003  0.005
    6  0.000  0.000  0.007  0.008
    7  0.000  0.000  0.007  0.008
    8  0.000  0.000  0.007  0.008
    9  0.006  0.001  0.001  0.008
   10  0.004  0.000  0.066  0.070
   11  0.001  0.000  0.055  0.055
   12  0.004  0.000  0.067  0.070
   13  0.001  0.000  0.055  0.055
   14  0.001  0.000  0.055  0.055
   15  0.008  0.000  0.007  0.015
   16  0.004  0.000  0.067  0.070
   17  0.008  0.000  0.007  0.015
   18  0.008  0.000  0.007  0.015
   19  0.002  0.000  0.012  0.014
   20  0.001  0.000  0.045  0.046
   21  0.001  0.000  0.045  0.046
   22  0.001  0.000  0.025  0.027
   23  0.001  0.000  0.045  0.046
   24  0.001  0.000  0.025  0.027
   25  0.002  0.000  0.012  0.014
   26  0.002  0.000  0.012  0.014
   27  0.001  0.000  0.025  0.027
   28  0.007  0.001  0.000  0.008
   29  0.000  0.000  0.011  0.011
   30  0.000  0.000  0.011  0.011
   31  0.000  0.000  0.011  0.011
   32  0.000  0.000  0.011  0.011
   33  0.000  0.000  0.011  0.011
   34  0.000  0.000  0.011  0.011
   35  0.000  0.000  0.007  0.007
   36  0.003  0.001  0.001  0.004
   37  0.000  0.000  0.000  0.000
   38  0.000  0.000  0.000  0.000
tot    0.067  0.008  0.766  0.841
 
band    13 # energy   -4.74099839 # occ.  2.00000000
 
ion      s      p      d    tot
    1  0.000  0.000  0.015  0.015
    2  0.003  0.000  0.005  0.008
    3  0.000  0.000  0.011  0.011
    4  0.002  0.000  0.007  0.008
    5  0.000  0.000  0.008  0.008
    6  0.003  0.001  0.008  0.011
    7  0.000  0.000  0.010  0.011
    8  0.003  0.001  0.006  0.010
    9  0.000  0.001  0.008  0.008
   10  0.000  0.000  0.060  0.060
   11  0.000  0.000  0.034  0.034
   12  0.014  0.000  0.032  0.046
   13  0.000  0.000  0.040  0.040
   14  0.000  0.000  0.019  0.019
   15  0.009  0.000  0.045  0.055
   16  0.010  0.000  0.040  0.050
   17  0.013  0.000  0.020  0.033
   18  0.000  0.000  0.110  0.110
   19  0.000  0.000  0.027  0.027
   20  0.000  0.000  0.039  0.039
   21  0.003  0.000  0.015  0.018
   22  0.003  0.000  0.022  0.025
   23  0.002  0.000  0.022  0.024
   24  0.000  0.000  0.022  0.022
   25  0.000  0.000  0.029  0.029
   26  0.000  0.000  0.026  0.026
   27  0.002  0.000  0.022  0.024
   28  0.000  0.000  0.013  0.013
   29  0.001  0.000  0.005  0.006
   30  0.003  0.000  0.004  0.007
   31  0.001  0.000  0.005  0.007
   32  0.001  0.000  0.005  0.006
   33  0.003  0.000  0.004  0.008
   34  0.000  0.000  0.005  0.006
   35  0.000  0.000  0.006  0.006
   36  0.000  0.001  0.001  0.001
   37  0.000  0.000  0.000  0.000
   38  0.000  0.000  0.000  0.000
tot    0.076  0.010  0.746  0.832
 
band    14 # energy   -4.74099682 # occ.  2.00000000
 
ion      s      p      d    tot
    1  0.000  0.000  0.015  0.015
    2  0.001  0.001  0.010  0.012
    3  0.003  0.001  0.005  0.009
    4  0.002  0.001  0.009  0.012
    5  0.000  0.000  0.008  0.008
    6  0.001  0.000  0.008  0.009
    7  0.003  0.001  0.005  0.009
    8  0.000  0.000  0.009  0.010
    9  0.000  0.001  0.008  0.008
   10  0.016  0.000  0.029  0.045
   11  0.000  0.000  0.028  0.028
   12  0.002  0.000  0.056  0.058
   13  0.000  0.000  0.022  0.022
   14  0.000  0.000  0.043  0.043
   15  0.006  0.000  0.071  0.077
   16  0.006  0.000  0.048  0.054
   17  0.002  0.000  0.097  0.099
   18  0.015  0.000  0.007  0.022
   19  0.000  0.000  0.028  0.028
   20  0.003  0.000  0.012  0.015
   21  0.000  0.000  0.036  0.036
   22  0.000  0.000  0.022  0.022
   23  0.001  0.000  0.029  0.030
   24  0.003  0.000  0.023  0.025
   25  0.000  0.000  0.025  0.026
   26  0.000  0.000  0.029  0.029
   27  0.001  0.000  0.022  0.023
   28  0.000  0.000  0.013  0.013
   29  0.003  0.000  0.004  0.007
   30  0.000  0.000  0.005  0.006
   31  0.002  0.000  0.004  0.007
   32  0.002  0.000  0.005  0.007
   33  0.000  0.000  0.005  0.005
   34  0.003  0.000  0.004  0.007
   35  0.000  0.000  0.006  0.006
   36  0.000  0.001  0.001  0.001
   37  0.000  0.000  0.000  0.000
   38  0.000  0.000  0.000  0.000
tot    0.076  0.010  0.746  0.832
 
band    15 # energy   -4.73899355 # occ.  2.00000000
 
ion      s      p      d    tot
    1  0.001  0.000  0.000  0.002
    2  0.000  0.000  0.010  0.010
    3  0.000  0.000  0.010  0.010
    4  0.000  0.000  0.010  0.010
    5  0.003  0.000  0.000  0.003
    6  0.000  0.000  0.010  0.010
    7  0.000  0.000  0.010  0.010
    8  0.000  0.000  0.010  0.010
    9  0.002  0.000  0.015  0.018
   10  0.001  0.000  0.033  0.034
   11  0.002  0.000  0.004  0.006
   12  0.002  0.000  0.033  0.034
   13  0.002  0.000  0.004  0.006
   14  0.002  0.000  0.004  0.007
   15  0.002  0.000  0.061  0.063
   16  0.002  0.000  0.033  0.034
   17  0.002  0.000  0.061  0.063
   18  0.002  0.000  0.061  0.063
   19  0.002  0.000  0.045  0.047
   20  0.004  0.000  0.019  0.023
   21  0.004  0.000  0.019  0.023
   22  0.000  0.000  0.047  0.047
   23  0.004  0.000  0.019  0.023
   24  0.000  0.000  0.047  0.047
   25  0.002  0.000  0.045  0.047
   26  0.002  0.000  0.045  0.047
   27  0.000  0.000  0.047  0.047
   28  0.001  0.000  0.002  0.004
   29  0.001  0.000  0.010  0.012
   30  0.001  0.000  0.010  0.012
   31  0.001  0.000  0.010  0.012
   32  0.001  0.000  0.010  0.012
   33  0.001  0.000  0.010  0.012
   34  0.001  0.000  0.010  0.012
   35  0.007  0.000  0.011  0.018
   36  0.000  0.002  0.001  0.003
   37  0.000  0.000  0.000  0.000
   38  0.000  0.000  0.000  0.000
tot    0.057  0.008  0.778  0.843
 
band    16 # energy   -4.72473941 # occ.  2.00000000
 
ion      s      p      d    tot
    1  0.000  0.000  0.006  0.006
    2  0.003  0.000  0.007  0.010
    3  0.000  0.000  0.009  0.010
    4  0.003  0.000  0.007  0.010
    5  0.000  0.000  0.009  0.010
    6  0.002  0.000  0.006  0.009
    7  0.000  0.000  0.009  0.010
    8  0.002  0.000  0.006  0.009
    9  0.000  0.000  0.019  0.019
   10  0.003  0.000  0.026  0.029
   11  0.002  0.000  0.051  0.052
   12  0.001  0.000  0.026  0.026
   13  0.002  0.000  0.049  0.051
   14  0.007  0.000  0.008  0.015
   15  0.000  0.000  0.029  0.030
   16  0.001  0.000  0.026  0.026
   17  0.000  0.000  0.030  0.030
   18  0.001  0.000  0.040  0.041
   19  0.002  0.000  0.064  0.065
   20  0.000  0.000  0.051  0.052
   21  0.000  0.000  0.023  0.023
   22  0.003  0.000  0.058  0.061
   23  0.000  0.000  0.022  0.022
   24  0.011  0.000  0.023  0.034
   25  0.007  0.000  0.008  0.015
   26  0.002  0.000  0.062  0.064
   27  0.003  0.000  0.059  0.062
   28  0.000  0.000  0.004  0.004
   29  0.000  0.000  0.008  0.008
   30  0.002  0.000  0.002  0.004
   31  0.000  0.000  0.008  0.008
   32  0.001  0.000  0.008  0.009
   33  0.002  0.000  0.002  0.004
   34  0.001  0.000  0.008  0.009
   35  0.000  0.000  0.010  0.010
   36  0.000  0.000  0.001  0.001
   37  0.000  0.000  0.000  0.000
   38  0.000  0.000  0.000  0.000
tot    0.057  0.007  0.781  0.845
 
band    17 # energy   -4.72470344 # occ.  2.00000000
 
ion      s      p      d    tot
    1  0.000  0.000  0.006  0.006
    2  0.000  0.000  0.008  0.009
    3  0.003  0.000  0.006  0.009
    4  0.000  0.000  0.008  0.009
    5  0.000  0.000  0.009  0.010
    6  0.001  0.000  0.009  0.010
    7  0.003  0.000  0.006  0.009
    8  0.001  0.000  0.008  0.010
    9  0.000  0.000  0.019  0.019
   10  0.000  0.000  0.025  0.025
   11  0.005  0.000  0.021  0.027
   12  0.002  0.000  0.026  0.028
   13  0.005  0.000  0.023  0.028
   14  0.000  0.000  0.064  0.064
   15  0.001  0.000  0.037  0.038
   16  0.002  0.000  0.026  0.028
   17  0.001  0.000  0.036  0.037
   18  0.000  0.000  0.026  0.026
   19  0.005  0.000  0.025  0.031
   20  0.000  0.000  0.013  0.013
   21  0.000  0.000  0.041  0.042
   22  0.008  0.000  0.035  0.043
   23  0.000  0.000  0.042  0.042
   24  0.000  0.000  0.070  0.070
   25  0.000  0.000  0.081  0.081
   26  0.005  0.000  0.027  0.032
   27  0.008  0.000  0.034  0.042
   28  0.000  0.000  0.004  0.004
   29  0.001  0.001  0.004  0.006
   30  0.000  0.000  0.010  0.010
   31  0.002  0.001  0.004  0.006
   32  0.001  0.000  0.004  0.005
   33  0.000  0.000  0.010  0.010
   34  0.001  0.000  0.004  0.005
   35  0.000  0.000  0.010  0.010
   36  0.000  0.000  0.001  0.001
   37  0.000  0.000  0.000  0.000
   38  0.000  0.000  0.000  0.000
tot    0.057  0.007  0.781  0.845
 
band    18 # energy   -4.71985926 # occ.  2.00000000
 
ion      s      p      d    tot
    1  0.008  0.000  0.010  0.018
    2  0.004  0.000  0.013  0.017
    3  0.004  0.000  0.013  0.017
    4  0.004  0.000  0.013  0.017
    5  0.003  0.000  0.017  0.020
    6  0.004  0.000  0.013  0.017
    7  0.004  0.000  0.013  0.017
    8  0.004  0.000  0.013  0.017
    9  0.002  0.000  0.009  0.010
   10  0.000  0.000  0.009  0.010
   11  0.003  0.000  0.012  0.016
   12  0.000  0.000  0.009  0.010
   13  0.003  0.000  0.012  0.016
   14  0.003  0.000  0.012  0.016
   15  0.001  0.000  0.009  0.011
   16  0.000  0.000  0.009  0.010
   17  0.001  0.000  0.009  0.011
   18  0.001  0.000  0.009  0.011
   19  0.003  0.000  0.019  0.022
   20  0.000  0.001  0.017  0.018
   21  0.000  0.001  0.017  0.018
   22  0.001  0.001  0.018  0.019
   23  0.000  0.001  0.017  0.018
   24  0.001  0.001  0.018  0.019
   25  0.003  0.000  0.019  0.022
   26  0.003  0.000  0.019  0.022
   27  0.001  0.001  0.018  0.019
   28  0.012  0.000  0.037  0.049
   29  0.013  0.000  0.027  0.040
   30  0.013  0.000  0.027  0.040
   31  0.013  0.000  0.027  0.040
   32  0.013  0.000  0.027  0.040
   33  0.013  0.000  0.027  0.040
   34  0.013  0.000  0.027  0.040
   35  0.012  0.000  0.023  0.035
   36  0.012  0.001  0.008  0.021
   37  0.000  0.001  0.000  0.001
   38  0.000  0.000  0.000  0.000
tot    0.172  0.009  0.603  0.784
 
band    19 # energy   -4.58933322 # occ.  2.00000000
 
ion      s      p      d    tot
    1  0.001  0.000  0.000  0.001
    2  0.000  0.000  0.006  0.006
    3  0.000  0.000  0.006  0.006
    4  0.000  0.000  0.006  0.006
    5  0.000  0.000  0.014  0.015
    6  0.000  0.000  0.006  0.006
    7  0.000  0.000  0.006  0.006
    8  0.000  0.000  0.006  0.006
    9  0.002  0.001  0.006  0.009
   10  0.000  0.000  0.014  0.014
   11  0.000  0.001  0.069  0.070
   12  0.000  0.000  0.014  0.014
   13  0.000  0.001  0.069  0.070
   14  0.000  0.001  0.069  0.070
   15  0.000  0.001  0.041  0.042
   16  0.000  0.000  0.014  0.014
   17  0.000  0.001  0.041  0.042
   18  0.000  0.001  0.041  0.042
   19  0.000  0.000  0.021  0.021
   20  0.001  0.000  0.069  0.071
   21  0.001  0.000  0.069  0.070
   22  0.002  0.000  0.022  0.024
   23  0.001  0.000  0.069  0.070
   24  0.002  0.000  0.021  0.024
   25  0.000  0.000  0.021  0.021
   26  0.000  0.000  0.021  0.021
   27  0.002  0.000  0.022  0.024
   28  0.005  0.001  0.000  0.006
   29  0.000  0.000  0.011  0.012
   30  0.000  0.000  0.011  0.012
   31  0.000  0.000  0.011  0.012
   32  0.000  0.000  0.011  0.012
   33  0.000  0.000  0.011  0.012
   34  0.000  0.000  0.011  0.012
   35  0.001  0.000  0.001  0.002
   36  0.000  0.002  0.001  0.003
   37  0.000  0.000  0.000  0.000
   38  0.000  0.000  0.000  0.000
tot    0.023  0.016  0.830  0.869
 
band    20 # energy   -4.58162031 # occ.  2.00000000
 
ion      s      p      d    tot
    1  0.000  0.000  0.001  0.001
    2  0.000  0.000  0.006  0.007
    3  0.001  0.001  0.005  0.007
    4  0.000  0.000  0.007  0.007
    5  0.000  0.001  0.014  0.014
    6  0.000  0.000  0.009  0.010
    7  0.001  0.001  0.005  0.007
    8  0.000  0.000  0.009  0.010
    9  0.000  0.000  0.012  0.012
   10  0.000  0.000  0.021  0.021
   11  0.001  0.000  0.050  0.051
   12  0.000  0.001  0.023  0.024
   13  0.001  0.000  0.054  0.055
   14  0.000  0.000  0.089  0.089
   15  0.002  0.000  0.033  0.036
   16  0.000  0.001  0.023  0.025
   17  0.002  0.000  0.032  0.034
   18  0.000  0.000  0.016  0.016
   19  0.001  0.001  0.024  0.026
   20  0.000  0.000  0.093  0.094
   21  0.002  0.000  0.066  0.068
   22  0.000  0.001  0.027  0.027
   23  0.002  0.000  0.063  0.065
   24  0.000  0.000  0.040  0.040
   25  0.000  0.000  0.002  0.002
   26  0.001  0.001  0.022  0.024
   27  0.000  0.001  0.025  0.026
   28  0.000  0.000  0.006  0.006
   29  0.001  0.001  0.008  0.010
   30  0.001  0.001  0.006  0.008
   31  0.001  0.001  0.008  0.010
   32  0.000  0.000  0.007  0.007
   33  0.001  0.001  0.006  0.008
   34  0.000  0.000  0.007  0.007
   35  0.000  0.000  0.001  0.001
   36  0.000  0.001  0.007  0.008
   37  0.000  0.003  0.000  0.003
   38  0.000  0.000  0.000  0.000
tot    0.023  0.018  0.827  0.867
 
band    21 # energy   -4.58161580 # occ.  2.00000000
 
ion      s      p      d    tot
    1  0.000  0.000  0.001  0.001
    2  0.001  0.001  0.007  0.009
    3  0.000  0.000  0.009  0.009
    4  0.001  0.001  0.007  0.009
    5  0.000  0.001  0.014  0.014
    6  0.001  0.000  0.005  0.006
    7  0.000  0.000  0.008  0.009
    8  0.001  0.000  0.005  0.006
    9  0.000  0.000  0.012  0.012
   10  0.000  0.001  0.024  0.026
   11  0.000  0.000  0.079  0.079
   12  0.000  0.000  0.022  0.022
   13  0.000  0.000  0.075  0.075
   14  0.002  0.000  0.039  0.041
   15  0.000  0.000  0.021  0.022
   16  0.000  0.000  0.021  0.022