 vasp.6.2.0 18Jan21 (build Jun 12 2021 23:27:24) complex                        
  
 executed on             LinuxIFC date 2022.05.27  05:19:30
 running on   28 total cores
 distrk:  each k-point on   28 cores,    1 groups
 distr:  one band on NCORE=   1 cores,   28 groups


--------------------------------------------------------------------------------------------------------


 INCAR:
   ISMEAR = -5
   SIGMA = 0.1
   ISPIN = 1
   EDIFF = 1.d-5
   EDIFFG = -0.01
   NSW = 0
   NELM = 150
   ENCUT = 500
   ISIF = 2
   IBRION = 2
   LREAL = Auto
   ALGO = Fast
   ICHARG = 11
   LORBIT = 10
   LCHARG = .F.
   LWAVE = .F.

 POTCAR:    PAW_PBE Au 04Oct2007                  
 POTCAR:    PAW_PBE W 08Apr2002                   
 POTCAR:    PAW_PBE H 15Jun2001                   
 -----------------------------------------------------------------------------
|                                                                             |
|           W    W    AA    RRRRR   N    N  II  N    N   GGGG   !!!           |
|           W    W   A  A   R    R  NN   N  II  NN   N  G    G  !!!           |
|           W    W  A    A  R    R  N N  N  II  N N  N  G       !!!           |
|           W WW W  AAAAAA  RRRRR   N  N N  II  N  N N  G  GGG   !            |
|           WW  WW  A    A  R   R   N   NN  II  N   NN  G    G                |
|           W    W  A    A  R    R  N    N  II  N    N   GGGG   !!!           |
|                                                                             |
|     For optimal performance we recommend to set                             |
|       NCORE = 2 up to number-of-cores-per-socket                            |
|     NCORE specifies how many cores store one orbital (NPAR=cpu/NCORE).      |
|     This setting can greatly improve the performance of VASP for DFT.       |
|     The default, NCORE=1 might be grossly inefficient on modern             |
|     multi-core architectures or massively parallel machines. Do your        |
|     own testing! More info at https://www.vasp.at/wiki/index.php/NCORE      |
|     Unfortunately you need to use the default for GW and RPA                |
|     calculations (for HF NCORE is supported but not extensively tested      |
|     yet).                                                                   |
|                                                                             |
 -----------------------------------------------------------------------------

 POTCAR:    PAW_PBE Au 04Oct2007                  
   VRHFIN =Au: s1d10                                                                                
   LEXCH  = PE                                                                                      
   EATOM  =   926.0867 eV,   68.0654 Ry                                                             
                                                                                                    
   TITEL  = PAW_PBE Au 04Oct2007                                                                    
   LULTRA =        F    use ultrasoft PP ?                                                          
   IUNSCR =        1    unscreen: 0-lin 1-nonlin 2-no                                               
   RPACOR =    2.330    partial core radius                                                         
   POMASS =  196.966; ZVAL   =   11.000    mass and valenz                                          
   RCORE  =    2.500    outmost cutoff radius                                                       
   RWIGS  =    2.840; RWIGS  =    1.503    wigner-seitz radius (au A)                               
   ENMAX  =  229.943; ENMIN  =  172.457 eV                                                          
   ICORE  =        3    local potential                                                             
   LCOR   =        T    correct aug charges                                                         
   LPAW   =        T    paw PP                                                                      
   EAUG   =  356.670                                                                                
   DEXC   =    0.000                                                                                
   RMAX   =    2.562    core radius for proj-oper                                                   
   RAUG   =    1.300    factor for augmentation sphere                                              
   RDEP   =    2.598    radius for radial grids                                                     
   RDEPT  =    2.193    core radius for aug-charge                                                  
                                                                                                    
   Atomic configuration                                                                             
   16 entries                                                                                       
     n  l   j            E        occ.                                                              
     1  0  0.50    -80748.5001   2.0000                                                             
     2  0  0.50    -14244.7466   2.0000                                                             
     2  1  1.50    -12310.9591   6.0000                                                             
     3  0  0.50     -3362.1768   2.0000                                                             
     3  1  1.50     -2801.5463   6.0000                                                             
     3  2  2.50     -2203.8206  10.0000                                                             
     4  0  0.50      -729.8168   2.0000                                                             
     4  1  1.50      -546.0527   6.0000                                                             
     4  2  2.50      -325.7302  10.0000                                                             
     4  3  3.50       -81.1472  14.0000                                                             
     5  0  0.50      -108.3201   2.0000                                                             
     5  1  1.50       -59.7479   6.0000                                                             
     5  2  2.50        -6.8783  10.0000                                                             
     6  0  0.50        -5.7602   1.0000                                                             
     6  1  1.50        -6.8029   0.0000                                                             
     5  3  2.50        -1.3606   0.0000                                                             
   Description                                                                                      
     l       E           TYP  RCUT    TYP  RCUT                                                     
     2     -6.8782861     23  2.500                                                                 
     2     -8.2388687     23  2.500                                                                 
     0     -5.7601759     23  2.500                                                                 
     0     -0.8493231     23  2.500                                                                 
     1     -2.7211652     23  2.500                                                                 
     1     27.2116520     23  2.500                                                                 
     3     -1.3605826     23  2.500                                                                 
  local pseudopotential read in
  partial core-charges read in
  partial kinetic energy density read in
  atomic valenz-charges read in
  non local Contribution for L=           2  read in
    real space projection operators read in
  non local Contribution for L=           2  read in
    real space projection operators read in
  non local Contribution for L=           0  read in
    real space projection operators read in
  non local Contribution for L=           0  read in
    real space projection operators read in
  non local Contribution for L=           1  read in
    real space projection operators read in
  non local Contribution for L=           1  read in
    real space projection operators read in
    PAW grid and wavefunctions read in
 
   number of l-projection  operators is LMAX  =           6
   number of lm-projection operators is LMMAX =          18
 
 POTCAR:    PAW_PBE W 08Apr2002                   
   VRHFIN =W : 6s5d                                                                                 
   LEXCH  = PE                                                                                      
   EATOM  =   204.6103 eV,   15.0384 Ry                                                             
                                                                                                    
   TITEL  = PAW_PBE W 08Apr2002                                                                     
   LULTRA =        F    use ultrasoft PP ?                                                          
   IUNSCR =        1    unscreen: 0-lin 1-nonlin 2-no                                               
   RPACOR =    2.330    partial core radius                                                         
   POMASS =  183.850; ZVAL   =    6.000    mass and valenz                                          
   RCORE  =    2.750    outmost cutoff radius                                                       
   RWIGS  =    2.750; RWIGS  =    1.455    wigner-seitz radius (au A)                               
   ENMAX  =  223.057; ENMIN  =  167.293 eV                                                          
   RCLOC  =    2.147    cutoff for local pot                                                        
   LCOR   =        T    correct aug charges                                                         
   LPAW   =        T    paw PP                                                                      
   EAUG   =  373.438                                                                                
   DEXC   =    0.000                                                                                
   RMAX   =    2.801    core radius for proj-oper                                                   
   RAUG   =    1.300    factor for augmentation sphere                                              
   RDEP   =    2.886    radius for radial grids                                                     
   RDEPT  =    2.230    core radius for aug-charge                                                  
                                                                                                    
   Atomic configuration                                                                             
   16 entries                                                                                       
     n  l   j            E        occ.                                                              
     1  0  0.50    -69465.5836   2.0000                                                             
     2  0  0.50    -11986.2642   2.0000                                                             
     2  1  1.50    -10479.8616   6.0000                                                             
     3  0  0.50     -2759.0758   2.0000                                                             
     3  1  1.50     -2313.1857   6.0000                                                             
     3  2  2.50     -1801.1185  10.0000                                                             
     4  0  0.50      -567.6791   2.0000                                                             
     4  1  1.50      -421.4694   6.0000                                                             
     4  2  2.50      -236.3473  10.0000                                                             
     4  3  3.50       -31.2666  14.0000                                                             
     5  0  0.50       -77.1085   2.0000                                                             
     5  1  1.50       -41.3856   6.0000                                                             
     5  2  2.50        -3.3185   5.0000                                                             
     6  0  0.50        -5.1438   1.0000                                                             
     6  1  0.50        -3.8096   0.0000                                                             
     5  3  2.50        -1.3606   0.0000                                                             
   Description                                                                                      
     l       E           TYP  RCUT    TYP  RCUT                                                     
     2     -3.3185288     23  2.500                                                                 
     2     -1.5965414     23  2.500                                                                 
     0     -5.1438054     23  2.500                                                                 
     0      4.9117504     23  2.500                                                                 
     1      2.7211652     23  2.750                                                                 
     1     27.2116520     23  2.750                                                                 
  local pseudopotential read in
  partial core-charges read in
  partial kinetic energy density read in
  atomic valenz-charges read in
  non local Contribution for L=           2  read in
    real space projection operators read in
  non local Contribution for L=           2  read in
    real space projection operators read in
  non local Contribution for L=           0  read in
    real space projection operators read in
  non local Contribution for L=           0  read in
    real space projection operators read in
  non local Contribution for L=           1  read in
    real space projection operators read in
  non local Contribution for L=           1  read in
    real space projection operators read in
    PAW grid and wavefunctions read in
 
   number of l-projection  operators is LMAX  =           6
   number of lm-projection operators is LMMAX =          18
 
 POTCAR:    PAW_PBE H 15Jun2001                   
   VRHFIN =H: ultrasoft test                                                                        
   LEXCH  = PE                                                                                      
   EATOM  =    12.4884 eV,    0.9179 Ry                                                             
                                                                                                    
   TITEL  = PAW_PBE H 15Jun2001                                                                     
   LULTRA =        F    use ultrasoft PP ?                                                          
   IUNSCR =        0    unscreen: 0-lin 1-nonlin 2-no                                               
   RPACOR =    0.000    partial core radius                                                         
   POMASS =    1.000; ZVAL   =    1.000    mass and valenz                                          
   RCORE  =    1.100    outmost cutoff radius                                                       
   RWIGS  =    0.700; RWIGS  =    0.370    wigner-seitz radius (au A)                               
   ENMAX  =  250.000; ENMIN  =  200.000 eV                                                          
   RCLOC  =    0.701    cutoff for local pot                                                        
   LCOR   =        T    correct aug charges                                                         
   LPAW   =        T    paw PP                                                                      
   EAUG   =  400.000                                                                                
   RMAX   =    1.123    core radius for proj-oper                                                   
   RAUG   =    1.200    factor for augmentation sphere                                              
   RDEP   =    1.112    radius for radial grids                                                     
   RDEPT  =    0.926    core radius for aug-charge                                                  
                                                                                                    
   Atomic configuration                                                                             
    2 entries                                                                                       
     n  l   j            E        occ.                                                              
     1  0  0.50        -6.4927   1.0000                                                             
     2  1  0.50        -3.4015   0.0000                                                             
   Description                                                                                      
     l       E           TYP  RCUT    TYP  RCUT                                                     
     0     -6.4927494     23  1.100                                                                 
     0      6.8029130     23  1.100                                                                 
     1     -4.0817478     23  1.100                                                                 
  local pseudopotential read in
  atomic valenz-charges read in
  non local Contribution for L=           0  read in
    real space projection operators read in
  non local Contribution for L=           0  read in
    real space projection operators read in
  non local Contribution for L=           1  read in
    real space projection operators read in
    PAW grid and wavefunctions read in
 
   number of l-projection  operators is LMAX  =           3
   number of lm-projection operators is LMMAX =           5
 
 Optimization of the real space projectors (new method)

 maximal supplied QI-value         = 15.12
 optimisation between [QCUT,QGAM] = [ 11.34, 22.83] = [ 36.00,145.93] Ry 
 Optimized for a Real-space Cutoff    1.39 Angstroem

   l    n(q)    QCUT    max X(q) W(low)/X(q) W(high)/X(q)  e(spline) 
   2      9    11.338    60.898    0.39E-03    0.42E-03    0.21E-06
   2      9    11.338    58.894    0.40E-03    0.42E-03    0.22E-06
   0      9    11.338   109.617    0.13E-03    0.20E-04    0.13E-06
   0      9    11.338    75.026    0.13E-03    0.20E-04    0.13E-06
   1      9    11.338    16.344    0.33E-04    0.24E-03    0.18E-06
   1      9    11.338    10.160    0.26E-04    0.19E-03    0.15E-06
 Optimization of the real space projectors (new method)

 maximal supplied QI-value         = 13.61
 optimisation between [QCUT,QGAM] = [ 11.43, 22.86] = [ 36.58,146.31] Ry 
 Optimized for a Real-space Cutoff    1.56 Angstroem

   l    n(q)    QCUT    max X(q) W(low)/X(q) W(high)/X(q)  e(spline) 
   2     10    11.429   130.855    0.22E-03    0.64E-03    0.11E-05
   2     10    11.429   114.007    0.22E-03    0.64E-03    0.11E-05
   0     11    11.429    84.709    0.39E-04    0.67E-04    0.23E-06
   0     11    11.429    49.163    0.35E-04    0.62E-04    0.21E-06
   1     10    11.429    15.765    0.84E-04    0.15E-03    0.24E-06
   1     10    11.429    10.638    0.58E-04    0.12E-03    0.19E-06
 Optimization of the real space projectors (new method)

 maximal supplied QI-value         = 34.20
 optimisation between [QCUT,QGAM] = [ 11.29, 22.57] = [ 35.68,142.71] Ry 
 Optimized for a Real-space Cutoff    1.16 Angstroem

   l    n(q)    QCUT    max X(q) W(low)/X(q) W(high)/X(q)  e(spline) 
   0      8    11.287    19.460    0.40E-03    0.73E-03    0.16E-06
   0      8    11.287    12.209    0.38E-03    0.70E-03    0.15E-06
   1      7    11.287     4.655    0.22E-03    0.25E-04    0.22E-06
  PAW_PBE Au 04Oct2007                  :
 energy of atom  1       EATOM= -926.0867
 kinetic energy error for atom=    0.0042 (will be added to EATOM!!)
  PAW_PBE W 08Apr2002                   :
 energy of atom  2       EATOM= -204.6103
 kinetic energy error for atom=    0.0017 (will be added to EATOM!!)
  PAW_PBE H 15Jun2001                   :
 energy of atom  3       EATOM=  -12.4884
 kinetic energy error for atom=    0.0020 (will be added to EATOM!!)
 
 
 POSCAR: Au-W-H2
  positions in direct lattice
  velocities in cartesian coordinates
 exchange correlation table for  LEXCH =        8
   RHO(1)=    0.500       N(1)  =     2000
   RHO(2)=  100.500       N(2)  =     4000

 VTST: version 3.2, (02/03/18)

 CHAIN: initializing optimizer
 
 OPT: Using VASP Conjugate-Gradient optimizer
 CHAIN: Read ICHAIN            0
 
 POSCAR: Au-W-H2
  positions in direct lattice
  velocities in cartesian coordinates
 


--------------------------------------------------------------------------------------------------------


 ion  position               nearest neighbor table
   1  0.000  0.000  0.238-  16 2.94  12 2.94   6 2.94   8 2.94   7 2.94   3 2.94  10 2.94   4 2.94
                             2 2.94
   2  0.333  0.000  0.238-   9 2.94  11 2.94  17 2.94  10 2.94   8 2.94   4 2.94   5 2.94   1 2.94
                             3 2.94
   3  0.667  0.000  0.238-   7 2.94  18 2.94  12 2.94   1 2.94  11 2.94   5 2.94   6 2.94   9 2.94
                             2 2.94
   4  0.000  0.333  0.238-  10 2.94   6 2.94   5 2.94  13 2.94   2 2.94  15 2.94   9 2.94   1 2.94
                             7 2.94
   5  0.333  0.333  0.238-  13 2.94   7 2.94  11 2.94   4 2.94   2 2.94  14 2.94   3 2.94   8 2.94
                             6 2.94
   6  0.667  0.333  0.238-  15 2.94  14 2.94   1 2.94  12 2.94   4 2.94   9 2.94   8 2.94   3 2.94
                             5 2.94
   7  0.000  0.667  0.238-  18 2.94   3 2.94  16 2.94   5 2.94   1 2.94  13 2.94   8 2.94   4 2.94
                             9 2.94
   8  0.333  0.667  0.238-   9 2.94  17 2.94   1 2.94   2 2.94  14 2.94  16 2.94   6 2.94   7 2.94
                             5 2.94
   9  0.667  0.667  0.238-   2 2.94   8 2.94  17 2.94   6 2.94  15 2.94   4 2.94   3 2.94  18 2.94
                             7 2.94
  10  0.111  0.111  0.346-  20 2.90  11 2.94  17 2.94   2 2.94   4 2.94   1 2.94  12 2.94  16 2.94
                            13 2.94  15 2.94  26 2.96  19 2.96
  11  0.444  0.111  0.346-  20 2.91  21 2.91  13 2.94   2 2.94  10 2.94  17 2.94   5 2.94   3 2.94
                            18 2.94  14 2.94  12 2.94  27 2.94
  12  0.778  0.111  0.346-  21 2.90  16 2.94  18 2.94   1 2.94  14 2.94  15 2.94   3 2.94   6 2.94
                            10 2.94  11 2.94  25 2.96  19 2.96
  13  0.111  0.444  0.346-  23 2.91  20 2.91   5 2.94  18 2.94  11 2.94   7 2.94   4 2.94  16 2.94
                            10 2.94  14 2.94  15 2.94  22 2.94
  14  0.444  0.444  0.346-  21 2.91  23 2.91  15 2.94   6 2.94  12 2.94   8 2.94  17 2.94   5 2.94
                            16 2.94  13 2.94  11 2.94  24 2.94
  15  0.778  0.444  0.346-  24 2.92  22 2.92  14 2.94   6 2.94  17 2.94  12 2.94   9 2.94   4 2.94
                            10 2.94  13 2.94  18 2.94  19 2.95
  16  0.111  0.778  0.346-  23 2.90  18 2.94  12 2.94   7 2.94   1 2.94   8 2.94  13 2.94  10 2.94
                            14 2.94  17 2.94  25 2.96  26 2.96
  17  0.444  0.778  0.346-  27 2.92  24 2.92   9 2.94  15 2.94   2 2.94  10 2.94  11 2.94   8 2.94
                            14 2.94  16 2.94  18 2.94  26 2.95
  18  0.778  0.778  0.346-  22 2.92  27 2.92  16 2.94   7 2.94  13 2.94  12 2.94   3 2.94  11 2.94
                             9 2.94  15 2.94  17 2.94  25 2.95
  19  0.888  0.224  0.455-  24 2.93  22 2.93  21 2.93  20 2.93  28 2.94  15 2.95  26 2.96  25 2.96
                            10 2.96  12 2.96  32 3.04  31 3.04
  20  0.222  0.222  0.452-  36 2.74  10 2.90  11 2.91  13 2.91  26 2.93  19 2.93  23 2.95  21 2.95
                            27 2.96  22 2.96  29 2.98  31 2.98
  21  0.557  0.222  0.452-  36 2.74  12 2.90  14 2.91  11 2.91  25 2.93  19 2.93  20 2.95  23 2.95
                            27 2.96  24 2.96  30 2.98  32 2.98
  22  0.886  0.557  0.454-  24 2.90  27 2.90  18 2.92  15 2.92  25 2.93  19 2.93  13 2.94  35 2.95
                            23 2.96  20 2.96  33 3.02  31 3.02
  23  0.222  0.557  0.452-  36 2.74  16 2.90  13 2.91  14 2.91  25 2.93  26 2.93  20 2.95  21 2.95
                            22 2.96  24 2.96  33 2.98  34 2.98
  24  0.557  0.557  0.454-  27 2.90  22 2.90  15 2.92  17 2.92  26 2.93  19 2.93  14 2.94  35 2.95
                            21 2.96  23 2.96  32 3.02  34 3.02
  25  0.888  0.888  0.455-  22 2.93  27 2.93  23 2.93  21 2.93  28 2.94  18 2.95  19 2.96  26 2.96
                            16 2.96  12 2.96  33 3.04  30 3.04
  26  0.224  0.888  0.455-  27 2.93  24 2.93  20 2.93  23 2.93  28 2.94  17 2.95  19 2.96  25 2.96
                            10 2.96  16 2.96  29 3.04  34 3.04
  27  0.557  0.886  0.454-  24 2.90  22 2.90  17 2.92  18 2.92  26 2.93  25 2.93  11 2.94  35 2.95
                            20 2.96  21 2.96  29 3.02  30 3.02
  28  0.000  0.000  0.563-  25 2.94  19 2.94  26 2.94  34 3.00  32 3.00  33 3.00  30 3.00  31 3.00
                            29 3.00
  29  0.334  0.013  0.566-  30 2.82  31 2.82  36 2.84  20 2.98  35 3.00  28 3.00  27 3.02  26 3.04
                            34 3.17
  30  0.653  0.013  0.566-  29 2.82  32 2.82  36 2.84  21 2.98  35 3.00  28 3.00  27 3.02  25 3.04
                            33 3.17
  31  0.013  0.334  0.566-  33 2.82  29 2.82  36 2.84  20 2.98  35 3.00  28 3.00  22 3.02  19 3.04
                            32 3.17
  32  0.653  0.334  0.566-  34 2.82  30 2.82  36 2.84  21 2.98  35 3.00  28 3.00  24 3.02  19 3.04
                            31 3.17
  33  0.013  0.653  0.566-  31 2.82  34 2.82  36 2.84  23 2.98  35 3.00  28 3.00  22 3.02  25 3.04
                            30 3.17
  34  0.334  0.653  0.566-  32 2.82  33 2.82  36 2.84  23 2.98  35 3.00  28 3.00  24 3.02  26 3.04
                            29 3.17
  35  0.667  0.667  0.563-  24 2.95  27 2.95  22 2.95  29 3.00  34 3.00  32 3.00  31 3.00  30 3.00
                            33 3.00
  36  0.333  0.333  0.549-  38 1.82  37 1.82  20 2.74  23 2.74  21 2.74  33 2.84  31 2.84  29 2.84
                            30 2.84  34 2.84  32 2.84
  37  0.282  0.333  0.628-  36 1.82
  38  0.385  0.333  0.628-  36 1.82
 
  LATTYP: Found a hexagonal cell.
 ALAT       =     8.8135128021
 C/A-ratio  =     2.5184286595
  
  Lattice vectors:
  
 A1 = (  -4.4067569092,  -7.6327256898,   0.0000000000)
 A2 = (   8.8135128021,   0.0000000000,   0.0000000000)
 A3 = (   0.0000000000,   0.0000000000,  22.1962032318)


Analysis of symmetry for initial positions (statically):
=====================================================================
 Subroutine PRICEL returns:
 Original cell was already a primitive cell.
 

 Routine SETGRP: Setting up the symmetry group for a 
 hexagonal supercell.


 Subroutine GETGRP returns: Found  2 space group operations
 (whereof  2 operations were pure point group operations)
 out of a pool of 24 trial point group operations.


The static configuration has the point symmetry C_1h.


Analysis of symmetry for dynamics (positions and initial velocities):
=====================================================================
 Subroutine PRICEL returns:
 Original cell was already a primitive cell.
 

 Routine SETGRP: Setting up the symmetry group for a 
 hexagonal supercell.


 Subroutine GETGRP returns: Found  2 space group operations
 (whereof  2 operations were pure point group operations)
 out of a pool of 24 trial point group operations.


The dynamic configuration has the point symmetry C_1h.


Analysis of constrained symmetry for selective dynamics:
=====================================================================
 Subroutine PRICEL returns:
 Original cell was already a primitive cell.
 

 Routine SETGRP: Setting up the symmetry group for a 
 hexagonal supercell.


 Subroutine GETGRP returns: Found  2 space group operations
 (whereof  2 operations were pure point group operations)
 out of a pool of 24 trial point group operations.


The constrained configuration has the point symmetry C_1h.


 Subroutine INISYM returns: Found  2 space group operations
 (whereof  2 operations are pure point group operations),
 and found     1 'primitive' translations


----------------------------------------------------------------------------------------

                                     Primitive cell                                     

  volume of cell :    1493.1636

  direct lattice vectors                    reciprocal lattice vectors
     8.813512802  0.000000000  0.000000000     0.113462137 -0.065507406  0.000000000
     4.406756909  7.632725690  0.000000000     0.000000000  0.131014796  0.000000000
     0.000000000  0.000000000 22.196203232     0.000000000  0.000000000  0.045052750

  length of vectors
     8.813512802  8.813512802 22.196203232     0.131014796  0.131014796  0.045052750

  position of ions in fractional coordinates (direct lattice)
     0.000000000  0.000000000  0.237895638
     0.333333343  0.000000000  0.237895638
     0.666666687  0.000000000  0.237895638
     1.000000000  0.333333343  0.237895638
     0.333333313  0.333333343  0.237895638
     0.666666687  0.333333343  0.237895638
     1.000000000  0.666666687  0.237895638
     0.333333343  0.666666687  0.237895638
     0.666666627  0.666666687  0.237895638
     0.111111119  0.111111112  0.345965207
     0.444444418  0.111111112  0.345965207
     0.777777791  0.111111112  0.345965207
     0.111111127  0.444444448  0.345965207
     0.444444478  0.444444448  0.345965207
     0.777777731  0.444444448  0.345965207
     0.111111090  0.777777791  0.345965207
     0.444444448  0.777777791  0.345965207
     0.777777851  0.777777791  0.345965207
     0.888108940  0.223782136  0.455069452
     0.221743954  0.221743939  0.452335038
     0.556512152  0.221743939  0.452335038
     0.886138604  0.556930728  0.453520865
     0.221743909  0.556512152  0.452335038
     0.556930728  0.556930728  0.453520865
     0.888108940  0.888108940  0.455069452
     0.223782166  0.888108940  0.455069452
     0.556930668  0.886138604  0.453520865
     0.000000000  0.000000000  0.563124211
     0.333684557  0.013163897  0.565613076
     0.653151576  0.013163897  0.565613076
     0.013163897  0.333684557  0.565613076
     0.653151576  0.333684557  0.565613076
     0.013163897  0.653151576  0.565613076
     0.333684557  0.653151576  0.565613076
     0.666666627  0.666666687  0.563100484
     0.333333313  0.333333343  0.548994823
     0.282194663  0.332589328  0.628494207
     0.385215978  0.332589328  0.628494207

  ion indices of the primitive-cell ions
   primitive index   ion index
                 1           1
                 2           2
                 3           3
                 4           4
                 5           5
                 6           6
                 7           7
                 8           8
                 9           9
                10          10
                11          11
                12          12
                13          13
                14          14
                15          15
                16          16
                17          17
                18          18
                19          19
                20          20
                21          21
                22          22
                23          23
                24          24
                25          25
                26          26
                27          27
                28          28
                29          29
                30          30
                31          31
                32          32
                33          33
                34          34
                35          35
                36          36
                37          37
                38          38

----------------------------------------------------------------------------------------

 
 
 KPOINTS: Automatic mesh                          

Automatic generation of k-mesh.
 Grid dimensions read from file:
 generate k-points for:    8    8    1

 Generating k-lattice:

  Cartesian coordinates                     Fractional coordinates (reciprocal lattice)
     0.014182767 -0.008188426  0.000000000     0.125000000 -0.000000000  0.000000000
     0.000000000  0.016376850  0.000000000     0.000000000  0.125000000  0.000000000
     0.000000000  0.000000000  0.045052750     0.000000000  0.000000000  1.000000000

  Length of vectors
     0.016376850  0.016376850  0.045052750

  Shift w.r.t. Gamma in fractional coordinates (k-lattice)
     0.000000000  0.000000000  0.000000000

 TETIRR: Found    100 inequivalent tetrahedra from      384
 
 Subroutine IBZKPT returns following result:
 ===========================================
 
 Found     21 irreducible k-points:
 
 Following reciprocal coordinates:
            Coordinates               Weight
  0.000000  0.000000  0.000000      1.000000
  0.125000 -0.000000  0.000000      4.000000
  0.000000  0.125000  0.000000      2.000000
  0.250000 -0.000000  0.000000      4.000000
  0.000000  0.250000  0.000000      2.000000
  0.375000  0.000000  0.000000      4.000000
  0.000000  0.375000  0.000000      2.000000
  0.500000 -0.000000  0.000000      2.000000
  0.000000  0.500000  0.000000      1.000000
  0.250000  0.125000  0.000000      2.000000
  0.125000  0.250000  0.000000      4.000000
  0.375000  0.125000  0.000000      4.000000
  0.250000  0.375000  0.000000      4.000000
 -0.125000  0.250000  0.000000      4.000000
  0.500000  0.125000  0.000000      4.000000
  0.375000  0.500000  0.000000      4.000000
 -0.125000  0.375000  0.000000      4.000000
  0.500000  0.250000  0.000000      2.000000
  0.250000  0.500000  0.000000      4.000000
 -0.375000  0.250000  0.000000      4.000000
 -0.250000  0.375000  0.000000      2.000000
 
 Following cartesian coordinates:
            Coordinates               Weight
  0.000000  0.000000  0.000000      1.000000
  0.014183 -0.008188  0.000000      4.000000
  0.000000  0.016377  0.000000      2.000000
  0.028366 -0.016377  0.000000      4.000000
  0.000000  0.032754  0.000000      2.000000
  0.042548 -0.024565  0.000000      4.000000
  0.000000  0.049131  0.000000      2.000000
  0.056731 -0.032754  0.000000      2.000000
  0.000000  0.065507  0.000000      1.000000
  0.028366 -0.000000  0.000000      2.000000
  0.014183  0.024565  0.000000      4.000000
  0.042548 -0.008188  0.000000      4.000000
  0.028366  0.032754  0.000000      4.000000
 -0.014183  0.040942  0.000000      4.000000
  0.056731 -0.016377  0.000000      4.000000
  0.042548  0.040942  0.000000      4.000000
 -0.014183  0.057319  0.000000      4.000000
  0.056731 -0.000000  0.000000      2.000000
  0.028366  0.049131  0.000000      4.000000
 -0.042548  0.057319  0.000000      4.000000
 -0.028366  0.065507  0.000000      2.000000
 


--------------------------------------------------------------------------------------------------------




 Dimension of arrays:
   k-points           NKPTS =     21   k-points in BZ     NKDIM =     21   number of bands    NBANDS=    252
   number of dos      NEDOS =    301   number of ions     NIONS =     38
   non local maximal  LDIM  =      6   non local SUM 2l+1 LMDIM =     18
   total plane-waves  NPLWV = 290304
   max r-space proj   IRMAX =   3166   max aug-charges    IRDMAX=  12088
   dimension x,y,z NGX =    48 NGY =   48 NGZ =  126
   dimension x,y,z NGXF=    96 NGYF=   96 NGZF=  252
   support grid    NGXF=    96 NGYF=   96 NGZF=  252
   ions per type =              35   1   2
   NGX,Y,Z   is equivalent  to a cutoff of   9.05,  9.05,  9.44 a.u.
   NGXF,Y,Z  is equivalent  to a cutoff of  18.11, 18.11, 18.87 a.u.

 SYSTEM =  unknown system                          
 POSCAR =  Au-W-H2                                 

 Startparameter for this run:
   NWRITE =      2    write-flag & timer
   PREC   = normal    normal or accurate (medium, high low for compatibility)
   ISTART =      0    job   : 0-new  1-cont  2-samecut
   ICHARG =     11    charge: 1-file 2-atom 10-const
   ISPIN  =      1    spin polarized calculation?
   LNONCOLLINEAR =      F non collinear calculations
   LSORBIT =      F    spin-orbit coupling
   INIWAV =      1    electr: 0-lowe 1-rand  2-diag
   LASPH  =      F    aspherical Exc in radial PAW
   METAGGA=      F    non-selfconsistent MetaGGA calc.

 Electronic Relaxation 1
   ENCUT  =  500.0 eV  36.75 Ry    6.06 a.u.  16.07 16.07 40.47*2*pi/ulx,y,z
   ENINI  =  500.0     initial cutoff
   ENAUG  =  400.0 eV  augmentation charge cutoff
   NELM   =    150;   NELMIN=  2; NELMDL= -5     # of ELM steps 
   EDIFF  = 0.1E-04   stopping-criterion for ELM
   LREAL  =      T    real-space projection
   NLSPLINE    = F    spline interpolate recip. space projectors
   LCOMPAT=      F    compatible to vasp.4.4
   GGA_COMPAT  = T    GGA compatible to vasp.4.4-vasp.4.6
   LMAXPAW     = -100 max onsite density
   LMAXMIX     =    2 max onsite mixed and CHGCAR
   VOSKOWN=      0    Vosko Wilk Nusair interpolation
   ROPT   =   -0.00050  -0.00050  -0.00050
 Ionic relaxation
   EDIFFG = -.1E-01   stopping-criterion for IOM
   NSW    =      0    number of steps for IOM
   NBLOCK =      1;   KBLOCK =      1    inner block; outer block 
   IBRION =     -1    ionic relax: 0-MD 1-quasi-New 2-CG
   NFREE  =      1    steps in history (QN), initial steepest desc. (CG)
   ISIF   =      2    stress and relaxation
   IWAVPR =     10    prediction:  0-non 1-charg 2-wave 3-comb
   ISYM   =      2    0-nonsym 1-usesym 2-fastsym
   LCORR  =      T    Harris-Foulkes like correction to forces

   POTIM  = 0.5000    time-step for ionic-motion
   TEIN   =    0.0    initial temperature
   TEBEG  =    0.0;   TEEND  =   0.0 temperature during run
   SMASS  =  -3.00    Nose mass-parameter (am)
   estimated Nose-frequenzy (Omega)   =  0.10E-29 period in steps = 0.13E+47 mass=  -0.178E-26a.u.
   SCALEE = 1.0000    scale energy and forces
   NPACO  =    256;   APACO  = 16.0  distance and # of slots for P.C.
   PSTRESS=    0.0 pullay stress

  Mass of Ions in am
   POMASS = 196.97183.85  1.00
  Ionic Valenz
   ZVAL   =  11.00  6.00  1.00
  Atomic Wigner-Seitz radii
   RWIGS  =  -1.00 -1.00 -1.00
  virtual crystal weights 
   VCA    =   1.00  1.00  1.00
   NELECT =     393.0000    total number of electrons
   NUPDOWN=      -1.0000    fix difference up-down

 DOS related values:
   EMIN   =  10.00;   EMAX   =-10.00  energy-range for DOS
   EFERMI =   0.00
   ISMEAR =    -5;   SIGMA  =   0.10  broadening in eV -4-tet -1-fermi 0-gaus

 Electronic relaxation 2 (details)
   IALGO  =     68    algorithm
   LDIAG  =      T    sub-space diagonalisation (order eigenvalues)
   LSUBROT=      F    optimize rotation matrix (better conditioning)
   TURBO    =      0    0=normal 1=particle mesh
   IRESTART =      0    0=no restart 2=restart with 2 vectors
   NREBOOT  =      0    no. of reboots
   NMIN     =      0    reboot dimension
   EREF     =   0.00    reference energy to select bands
   IMIX   =      4    mixing-type and parameters
     AMIX     =   0.40;   BMIX     =  1.00
     AMIX_MAG =   1.60;   BMIX_MAG =  1.00
     AMIN     =   0.10
     WC   =   100.;   INIMIX=   1;  MIXPRE=   1;  MAXMIX= -45

 Intra band minimization:
   WEIMIN = 0.0000     energy-eigenvalue tresh-hold
   EBREAK =  0.99E-08  absolut break condition
   DEPER  =   0.30     relativ break condition  

   TIME   =   0.40     timestep for ELM

  volume/ion in A,a.u.               =      39.29       265.17
  Fermi-wavevector in a.u.,A,eV,Ry     =   1.049148  1.982601 14.976075  1.100710
  Thomas-Fermi vector in A             =   2.184098
 
 Write flags
   LWAVE        =      F    write WAVECAR
   LDOWNSAMPLE  =      F    k-point downsampling of WAVECAR
   LCHARG       =      F    write CHGCAR
   LVTOT        =      F    write LOCPOT, total local potential
   LVHAR        =      F    write LOCPOT, Hartree potential only
   LELF         =      F    write electronic localiz. function (ELF)
   LORBIT       =     10    0 simple, 1 ext, 2 COOP (PROOUT), +10 PAW based schemes


 Dipole corrections
   LMONO  =      F    monopole corrections only (constant potential shift)
   LDIPOL =      F    correct potential (dipole corrections)
   IDIPOL =      0    1-x, 2-y, 3-z, 4-all directions 
   EPSILON=  1.0000000 bulk dielectric constant

 Exchange correlation treatment:
   GGA     =    --    GGA type
   LEXCH   =     8    internal setting for exchange type
   VOSKOWN=      0    Vosko Wilk Nusair interpolation
   LHFCALC =     F    Hartree Fock is set to
   LHFONE  =     F    Hartree Fock one center treatment
   AEXX    =    0.0000 exact exchange contribution

 Linear response parameters
   LEPSILON=     F    determine dielectric tensor
   LRPA    =     F    only Hartree local field effects (RPA)
   LNABLA  =     F    use nabla operator in PAW spheres
   LVEL    =     F    velocity operator in full k-point grid
   LINTERFAST=   F  fast interpolation
   KINTER  =     0    interpolate to denser k-point grid
   CSHIFT  =0.1000    complex shift for real part using Kramers Kronig
   OMEGAMAX=  -1.0    maximum frequency
   DEG_THRESHOLD= 0.2000000E-02 threshold for treating states as degnerate
   RTIME   =   -0.100 relaxation time in fs
  (WPLASMAI=    0.000 imaginary part of plasma frequency in eV, 0.658/RTIME)
   DFIELD  = 0.0000000 0.0000000 0.0000000 field for delta impulse in time
 
 Orbital magnetization related:
   ORBITALMAG=     F  switch on orbital magnetization
   LCHIMAG   =     F  perturbation theory with respect to B field
   DQ        =  0.001000  dq finite difference perturbation B field
   LLRAUG    =     F  two centre corrections for induced B field



--------------------------------------------------------------------------------------------------------


 Static calculation
 charge density and potential remain constant during run
 non-spin polarized calculation
 RMM-DIIS sequential band-by-band and
  variant of blocked Davidson during initial phase
 perform sub-space diagonalisation
    before iterative eigenvector-optimisation
 no mixing
 using additional bands           55
 real space projection scheme for non local part
 use partial core corrections
 calculate Harris-corrections to forces 
   (improved forces if not selfconsistent)
 use gradient corrections 
 WARNING: stress and forces are not correct
  (second derivative of E(xc) not defined)
 use of overlap-Matrix (Vanderbilt PP)
 Fermi weights with tetrahedron method with Bloechl corrections


--------------------------------------------------------------------------------------------------------


  energy-cutoff  :      500.00
  volume of cell :     1493.16
      direct lattice vectors                 reciprocal lattice vectors
     8.813512802  0.000000000  0.000000000     0.113462137 -0.065507406  0.000000000
     4.406756909  7.632725690  0.000000000     0.000000000  0.131014796  0.000000000
     0.000000000  0.000000000 22.196203232     0.000000000  0.000000000  0.045052750

  length of vectors
     8.813512802  8.813512802 22.196203232     0.131014796  0.131014796  0.045052750


 
 k-points in units of 2pi/SCALE and weight: Automatic mesh                          
   0.00000000  0.00000000  0.00000000       0.016
   0.01418277 -0.00818843  0.00000000       0.062
   0.00000000  0.01637685  0.00000000       0.031
   0.02836553 -0.01637685  0.00000000       0.062
   0.00000000  0.03275370  0.00000000       0.031
   0.04254830 -0.02456528  0.00000000       0.062
   0.00000000  0.04913055  0.00000000       0.031
   0.05673107 -0.03275370  0.00000000       0.031
   0.00000000  0.06550740  0.00000000       0.016
   0.02836553 -0.00000000  0.00000000       0.031
   0.01418277  0.02456527  0.00000000       0.062
   0.04254830 -0.00818843  0.00000000       0.062
   0.02836553  0.03275370  0.00000000       0.062
  -0.01418277  0.04094212  0.00000000       0.062
   0.05673107 -0.01637685  0.00000000       0.062
   0.04254830  0.04094212  0.00000000       0.062
  -0.01418277  0.05731897  0.00000000       0.062
   0.05673107 -0.00000000  0.00000000       0.031
   0.02836553  0.04913055  0.00000000       0.062
  -0.04254830  0.05731898  0.00000000       0.062
  -0.02836553  0.06550740  0.00000000       0.031
 
 k-points in reciprocal lattice and weights: Automatic mesh                          
   0.00000000  0.00000000  0.00000000       0.016
   0.12500000 -0.00000000  0.00000000       0.062
   0.00000000  0.12500000  0.00000000       0.031
   0.25000000 -0.00000000  0.00000000       0.062
   0.00000000  0.25000000  0.00000000       0.031
   0.37500000  0.00000000  0.00000000       0.062
   0.00000000  0.37500000  0.00000000       0.031
   0.50000000 -0.00000000  0.00000000       0.031
   0.00000000  0.50000000  0.00000000       0.016
   0.25000000  0.12500000  0.00000000       0.031
   0.12500000  0.25000000  0.00000000       0.062
   0.37500000  0.12500000  0.00000000       0.062
   0.25000000  0.37500000  0.00000000       0.062
  -0.12500000  0.25000000  0.00000000       0.062
   0.50000000  0.12500000  0.00000000       0.062
   0.37500000  0.50000000  0.00000000       0.062
  -0.12500000  0.37500000  0.00000000       0.062
   0.50000000  0.25000000  0.00000000       0.031
   0.25000000  0.50000000  0.00000000       0.062
  -0.37500000  0.25000000  0.00000000       0.062
  -0.25000000  0.37500000  0.00000000       0.031
 
 position of ions in fractional coordinates (direct lattice) 
   0.00000000  0.00000000  0.23789564
   0.33333334  0.00000000  0.23789564
   0.66666669  0.00000000  0.23789564
   0.00000000  0.33333334  0.23789564
   0.33333331  0.33333334  0.23789564
   0.66666669  0.33333334  0.23789564
   0.00000000  0.66666669  0.23789564
   0.33333334  0.66666669  0.23789564
   0.66666663  0.66666669  0.23789564
   0.11111112  0.11111111  0.34596521
   0.44444442  0.11111111  0.34596521
   0.77777779  0.11111111  0.34596521
   0.11111113  0.44444445  0.34596521
   0.44444448  0.44444445  0.34596521
   0.77777773  0.44444445  0.34596521
   0.11111109  0.77777779  0.34596521
   0.44444445  0.77777779  0.34596521
   0.77777785  0.77777779  0.34596521
   0.88810894  0.22378214  0.45506945
   0.22174395  0.22174394  0.45233504
   0.55651215  0.22174394  0.45233504
   0.88613860  0.55693073  0.45352087
   0.22174391  0.55651215  0.45233504
   0.55693073  0.55693073  0.45352087
   0.88810894  0.88810894  0.45506945
   0.22378217  0.88810894  0.45506945
   0.55693067  0.88613860  0.45352087
   0.00000000  0.00000000  0.56312421
   0.33368456  0.01316390  0.56561308
   0.65315158  0.01316390  0.56561308
   0.01316390  0.33368456  0.56561308
   0.65315158  0.33368456  0.56561308
   0.01316390  0.65315158  0.56561308
   0.33368456  0.65315158  0.56561308
   0.66666663  0.66666669  0.56310048
   0.33333331  0.33333334  0.54899482
   0.28219466  0.33258933  0.62849421
   0.38521598  0.33258933  0.62849421
 
 position of ions in cartesian coordinates  (Angst):
   0.00000000  0.00000000  5.28037993
   2.93783769  0.00000000  5.28037993
   5.87567538  0.00000000  5.28037993
   1.46891901  2.54424197  5.28037993
   4.40675643  2.54424197  5.28037993
   7.34459439  2.54424197  5.28037993
   2.93783803  5.08848395  5.28037993
   5.87567571  5.08848395  5.28037993
   8.81351288  5.08848395  5.28037993
   1.46891893  0.84808064  7.67911405
   4.40675623  0.84808064  7.67911405
   7.34459418  0.84808064  7.67911405
   2.93783798  3.39232256  7.67911405
   5.87567574  3.39232256  7.67911405
   8.81351263  3.39232256  7.67911405
   4.40675667  5.93656453  7.67911405
   7.34459449  5.93656453  7.67911405
  10.28243270  5.93656453  7.67911405
   8.81351299  1.70806766 10.10081404
   2.93151481  1.69251066 10.04012044
   5.88199861  1.69251066 10.04012044
  10.26425226  4.25089948 10.06644130
   4.40675655  4.24770460 10.04012044
   7.36277444  4.25089948 10.06644130
  11.74103972  6.77869192 10.10081404
   5.88598719  6.77869192 10.10081404
   8.81351299  6.76365289 10.06644130
   0.00000000  0.00000000 12.49921944
   2.99894321  0.10047641 12.55446278
   5.81456987  0.10047641 12.55446278
   1.58648690  2.54692269 12.55446278
   7.22702651  2.54692269 12.55446278
   2.99430039  4.98532682 12.55446278
   5.81921334  4.98532682 12.55446278
   8.81351288  5.08848395 12.49869278
   4.40675643  2.54424197 12.18560065
   3.95276660  2.53856311 13.95018515
   4.86074627  2.53856311 13.95018515
 


--------------------------------------------------------------------------------------------------------


 k-point   1 :   0.0000 0.0000 0.0000  plane waves:   37827
 k-point   2 :   0.1250-0.0000 0.0000  plane waves:   37876
 k-point   3 :   0.0000 0.1250 0.0000  plane waves:   37876
 k-point   4 :   0.2500-0.0000 0.0000  plane waves:   37924
 k-point   5 :   0.0000 0.2500 0.0000  plane waves:   37924
 k-point   6 :   0.3750 0.0000 0.0000  plane waves:   37904
 k-point   7 :   0.0000 0.3750 0.0000  plane waves:   37904
 k-point   8 :   0.5000-0.0000 0.0000  plane waves:   37912
 k-point   9 :   0.0000 0.5000 0.0000  plane waves:   37912
 k-point  10 :   0.2500 0.1250 0.0000  plane waves:   37858
 k-point  11 :   0.1250 0.2500 0.0000  plane waves:   37858
 k-point  12 :   0.3750 0.1250 0.0000  plane waves:   37928
 k-point  13 :   0.2500 0.3750 0.0000  plane waves:   37928
 k-point  14 :  -0.1250 0.2500 0.0000  plane waves:   37928
 k-point  15 :   0.5000 0.1250 0.0000  plane waves:   37924
 k-point  16 :   0.3750 0.5000 0.0000  plane waves:   37924
 k-point  17 :  -0.1250 0.3750 0.0000  plane waves:   37924
 k-point  18 :   0.5000 0.2500 0.0000  plane waves:   37926
 k-point  19 :   0.2500 0.5000 0.0000  plane waves:   37926
 k-point  20 :  -0.3750 0.2500 0.0000  plane waves:   37916
 k-point  21 :  -0.2500 0.3750 0.0000  plane waves:   37916

 maximum and minimum number of plane-waves per node :     37928    37827

 maximum number of plane-waves:     37928
 maximum index in each direction: 
   IXMAX=   16   IYMAX=   16   IZMAX=   40
   IXMIN=  -16   IYMIN=  -16   IZMIN=  -40


 serial   3D FFT for wavefunctions
 parallel 3D FFT for charge:
    minimum data exchange during FFTs selected (reduces bandwidth)


 total amount of memory used by VASP MPI-rank0   183889. kBytes
=======================================================================

   base      :      30000. kBytes
   nonlr-proj:      14328. kBytes
   fftplans  :       4330. kBytes
   grid      :      17879. kBytes
   one-center:        590. kBytes
   wavefun   :     116762. kBytes
 
     INWAV:  cpu time    0.0000: real time    0.0001
 initial charge density was supplied:
 number of electron     393.0000000 magnetization 
 keeping initial charge density in first step


--------------------------------------------------------------------------------------------------------


 Maximum index for non-local projection operator         3035
 Maximum index for augmentation-charges          850 (set IRDMAX)


--------------------------------------------------------------------------------------------------------


 First call to EWALD:  gamma=   0.155
 Maximum number of real-space cells 4x 4x 2
 Maximum number of reciprocal cells 2x 2x 5

    FEWALD:  cpu time    0.0013: real time    0.0013


--------------------------------------- Iteration      1(   1)  ---------------------------------------


    POTLOK:  cpu time    0.0431: real time    0.0435
    SETDIJ:  cpu time    0.0049: real time    0.0050
     EDDAV:  cpu time   15.0048: real time   15.0064
 BZINTS: Fermi energy:   11.162943;  393.000000 electrons
         Band energy: 0.150603E+04;  BLOECHL correction:   -0.021521
       DOS:  cpu time    0.0313: real time    0.0314
    --------------------------------------------
      LOOP:  cpu time   15.0841: real time   15.0862

 eigenvalue-minimisations  : 10584
 total energy-change (2. order) : 0.2551672E+04  (-0.1773333E+05)
 number of electron     393.0000000 magnetization 
 augmentation part      393.0000000 magnetization 

 Free energy of the ion-electron system (eV)
  ---------------------------------------------------
  alpha Z        PSCENC =      1008.71593122
  Ewald energy   TEWEN  =     94814.27564606
  -Hartree energ DENC   =   -128680.00302266
  -exchange      EXHF   =         0.00000000
  -V(xc)+E(xc)   XCENC  =       475.20766344
  PAW double counting   =     35774.92952624   -34989.95217454
  entropy T*S    EENTRO =         0.00000000
  eigenvalues    EBANDS =      1506.03025790
  atomic energy  EATOM  =     32642.46769412
  Solvation  Ediel_sol  =         0.00000000
  ---------------------------------------------------
  free energy    TOTEN  =      2551.67152176 eV

  energy without entropy =     2551.67152176  energy(sigma->0) =     2551.67152176


--------------------------------------------------------------------------------------------------------




--------------------------------------- Iteration      1(   2)  ---------------------------------------


     EDDAV:  cpu time   16.3303: real time   16.3306
 BZINTS: Fermi energy:    1.477200;  393.000000 electrons
         Band energy:-0.104763E+04;  BLOECHL correction:   -0.029863
       DOS:  cpu time    0.0286: real time    0.0286
    --------------------------------------------
      LOOP:  cpu time   16.3589: real time   16.3592

 eigenvalue-minimisations  : 11760
 total energy-change (2. order) :-0.2553656E+04  (-0.2343272E+04)
 number of electron     393.0000000 magnetization 
 augmentation part      393.0000000 magnetization 

 Free energy of the ion-electron system (eV)
  ---------------------------------------------------
  alpha Z        PSCENC =      1008.71593122
  Ewald energy   TEWEN  =     94814.27564606
  -Hartree energ DENC   =   -128680.00302266
  -exchange      EXHF   =         0.00000000
  -V(xc)+E(xc)   XCENC  =       475.20766344
  PAW double counting   =     35774.92952624   -34989.95217454
  entropy T*S    EENTRO =         0.00000000
  eigenvalues    EBANDS =     -1047.62557396
  atomic energy  EATOM  =     32642.46769412
  Solvation  Ediel_sol  =         0.00000000
  ---------------------------------------------------
  free energy    TOTEN  =        -1.98431009 eV

  energy without entropy =       -1.98431009  energy(sigma->0) =       -1.98431009


--------------------------------------------------------------------------------------------------------




--------------------------------------- Iteration      1(   3)  ---------------------------------------


     EDDAV:  cpu time   17.0391: real time   17.0392
 BZINTS: Fermi energy:    0.803467;  393.000000 electrons
         Band energy:-0.116776E+04;  BLOECHL correction:   -0.037695
       DOS:  cpu time    0.0297: real time    0.0297
    --------------------------------------------
      LOOP:  cpu time   17.0688: real time   17.0689

 eigenvalue-minimisations  : 12348
 total energy-change (2. order) :-0.1201388E+03  (-0.1158476E+03)
 number of electron     393.0000000 magnetization 
 augmentation part      393.0000000 magnetization 

 Free energy of the ion-electron system (eV)
  ---------------------------------------------------
  alpha Z        PSCENC =      1008.71593122
  Ewald energy   TEWEN  =     94814.27564606
  -Hartree energ DENC   =   -128680.00302266
  -exchange      EXHF   =         0.00000000
  -V(xc)+E(xc)   XCENC  =       475.20766344
  PAW double counting   =     35774.92952624   -34989.95217454
  entropy T*S    EENTRO =         0.00000000
  eigenvalues    EBANDS =     -1167.76438213
  atomic energy  EATOM  =     32642.46769412
  Solvation  Ediel_sol  =         0.00000000
  ---------------------------------------------------
  free energy    TOTEN  =      -122.12311827 eV

  energy without entropy =     -122.12311827  energy(sigma->0) =     -122.12311827


--------------------------------------------------------------------------------------------------------




--------------------------------------- Iteration      1(   4)  ---------------------------------------


     EDDAV:  cpu time   16.8547: real time   16.8547
 BZINTS: Fermi energy:    0.787374;  393.000000 electrons
         Band energy:-0.117013E+04;  BLOECHL correction:   -0.037684
       DOS:  cpu time    0.0297: real time    0.0297
    --------------------------------------------
      LOOP:  cpu time   16.8844: real time   16.8845

 eigenvalue-minimisations  : 12208
 total energy-change (2. order) :-0.2368552E+01  (-0.2363902E+01)
 number of electron     393.0000000 magnetization 
 augmentation part      393.0000000 magnetization 

 Free energy of the ion-electron system (eV)
  ---------------------------------------------------
  alpha Z        PSCENC =      1008.71593122
  Ewald energy   TEWEN  =     94814.27564606
  -Hartree energ DENC   =   -128680.00302266
  -exchange      EXHF   =         0.00000000
  -V(xc)+E(xc)   XCENC  =       475.20766344
  PAW double counting   =     35774.92952624   -34989.95217454
  entropy T*S    EENTRO =         0.00000000
  eigenvalues    EBANDS =     -1170.13293380
  atomic energy  EATOM  =     32642.46769412
  Solvation  Ediel_sol  =         0.00000000
  ---------------------------------------------------
  free energy    TOTEN  =      -124.49166994 eV

  energy without entropy =     -124.49166994  energy(sigma->0) =     -124.49166994


--------------------------------------------------------------------------------------------------------




--------------------------------------- Iteration      1(   5)  ---------------------------------------


     EDDAV:  cpu time   17.7269: real time   17.7271
 BZINTS: Fermi energy:    0.786996;  393.000000 electrons
         Band energy:-0.117019E+04;  BLOECHL correction:   -0.037684
       DOS:  cpu time    0.0297: real time    0.0297
    --------------------------------------------
      LOOP:  cpu time   17.7566: real time   17.7568

 eigenvalue-minimisations  : 12964
 total energy-change (2. order) :-0.5381888E-01  (-0.5380655E-01)
 number of electron     393.0000000 magnetization 
 augmentation part      393.0000000 magnetization 

 Free energy of the ion-electron system (eV)
  ---------------------------------------------------
  alpha Z        PSCENC =      1008.71593122
  Ewald energy   TEWEN  =     94814.27564606
  -Hartree energ DENC   =   -128680.00302266
  -exchange      EXHF   =         0.00000000
  -V(xc)+E(xc)   XCENC  =       475.20766344
  PAW double counting   =     35774.92952624   -34989.95217454
  entropy T*S    EENTRO =         0.00000000
  eigenvalues    EBANDS =     -1170.18675268
  atomic energy  EATOM  =     32642.46769412
  Solvation  Ediel_sol  =         0.00000000
  ---------------------------------------------------
  free energy    TOTEN  =      -124.54548882 eV

  energy without entropy =     -124.54548882  energy(sigma->0) =     -124.54548882


--------------------------------------------------------------------------------------------------------




--------------------------------------- Iteration      1(   6)  ---------------------------------------


    EDDIAG:  cpu time    2.9397: real time    2.9398
  RMM-DIIS:  cpu time    8.1503: real time    8.1504
    ORTHCH:  cpu time    0.5480: real time    0.5480
 BZINTS: Fermi energy:    0.786989;  393.000000 electrons
         Band energy:-0.117019E+04;  BLOECHL correction:   -0.037684
       DOS:  cpu time    0.0297: real time    0.0297
    --------------------------------------------
      LOOP:  cpu time   11.6678: real time   11.6680

 eigenvalue-minimisations  : 10601
 total energy-change (2. order) :-0.1608433E-02  (-0.1608915E-02)
 number of electron     393.0000000 magnetization 
 augmentation part      393.0000000 magnetization 

 Free energy of the ion-electron system (eV)
  ---------------------------------------------------
  alpha Z        PSCENC =      1008.71593122
  Ewald energy   TEWEN  =     94814.27564606
  -Hartree energ DENC   =   -128680.00302266
  -exchange      EXHF   =         0.00000000
  -V(xc)+E(xc)   XCENC  =       475.20766344
  PAW double counting   =     35774.92952624   -34989.95217454
  entropy T*S    EENTRO =         0.00000000
  eigenvalues    EBANDS =     -1170.18836111
  atomic energy  EATOM  =     32642.46769412
  Solvation  Ediel_sol  =         0.00000000
  ---------------------------------------------------
  free energy    TOTEN  =      -124.54709725 eV

  energy without entropy =     -124.54709725  energy(sigma->0) =     -124.54709725


--------------------------------------------------------------------------------------------------------




--------------------------------------- Iteration      1(   7)  ---------------------------------------


    EDDIAG:  cpu time    2.9410: real time    2.9410
  RMM-DIIS:  cpu time   10.7112: real time   10.7113
    ORTHCH:  cpu time    0.5474: real time    0.5474
 BZINTS: Fermi energy:    0.786987;  393.000000 electrons
         Band energy:-0.117019E+04;  BLOECHL correction:   -0.037684
       DOS:  cpu time    0.0297: real time    0.0297
    --------------------------------------------
      LOOP:  cpu time   14.2293: real time   14.2294

 eigenvalue-minimisations  : 13943
 total energy-change (2. order) :-0.4793979E-03  (-0.4782789E-03)
 number of electron     393.0000000 magnetization 
 augmentation part      393.0000000 magnetization 

 Free energy of the ion-electron system (eV)
  ---------------------------------------------------
  alpha Z        PSCENC =      1008.71593122
  Ewald energy   TEWEN  =     94814.27564606
  -Hartree energ DENC   =   -128680.00302266
  -exchange      EXHF   =         0.00000000
  -V(xc)+E(xc)   XCENC  =       475.20766344
  PAW double counting   =     35774.92952624   -34989.95217454
  entropy T*S    EENTRO =         0.00000000
  eigenvalues    EBANDS =     -1170.18884051
  atomic energy  EATOM  =     32642.46769412
  Solvation  Ediel_sol  =         0.00000000
  ---------------------------------------------------
  free energy    TOTEN  =      -124.54757665 eV

  energy without entropy =     -124.54757665  energy(sigma->0) =     -124.54757665


--------------------------------------------------------------------------------------------------------




--------------------------------------- Iteration      1(   8)  ---------------------------------------


    EDDIAG:  cpu time    2.9411: real time    2.9413
  RMM-DIIS:  cpu time    9.6437: real time    9.6437
    ORTHCH:  cpu time    0.5475: real time    0.5475
 BZINTS: Fermi energy:    0.786987;  393.000000 electrons
         Band energy:-0.117019E+04;  BLOECHL correction:   -0.037684
       DOS:  cpu time    0.0290: real time    0.0290
    --------------------------------------------
      LOOP:  cpu time   13.1614: real time   13.1616

 eigenvalue-minimisations  : 12538
 total energy-change (2. order) :-0.4447624E-04  (-0.4411557E-04)
 number of electron     393.0000000 magnetization 
 augmentation part      393.0000000 magnetization 

 Free energy of the ion-electron system (eV)
  ---------------------------------------------------
  alpha Z        PSCENC =      1008.71593122
  Ewald energy   TEWEN  =     94814.27564606
  -Hartree energ DENC   =   -128680.00302266
  -exchange      EXHF   =         0.00000000
  -V(xc)+E(xc)   XCENC  =       475.20766344
  PAW double counting   =     35774.92952624   -34989.95217454
  entropy T*S    EENTRO =         0.00000000
  eigenvalues    EBANDS =     -1170.18888499
  atomic energy  EATOM  =     32642.46769412
  Solvation  Ediel_sol  =         0.00000000
  ---------------------------------------------------
  free energy    TOTEN  =      -124.54762112 eV

  energy without entropy =     -124.54762112  energy(sigma->0) =     -124.54762112


--------------------------------------------------------------------------------------------------------




--------------------------------------- Iteration      1(   9)  ---------------------------------------


    EDDIAG:  cpu time    2.9411: real time    2.9413
  RMM-DIIS:  cpu time    6.4717: real time    6.4717
    ORTHCH:  cpu time    0.5481: real time    0.5481
 BZINTS: Fermi energy:    0.786987;  393.000000 electrons
         Band energy:-0.117019E+04;  BLOECHL correction:   -0.037684
       DOS:  cpu time    0.0291: real time    0.0291
    --------------------------------------------
      LOOP:  cpu time    9.9900: real time    9.9902

 eigenvalue-minimisations  :  7127
 total energy-change (2. order) :-0.3815381E-05  (-0.3739486E-05)
 number of electron     393.0000000 magnetization 
 augmentation part      393.0000000 magnetization 

 Free energy of the ion-electron system (eV)
  ---------------------------------------------------
  alpha Z        PSCENC =      1008.71593122
  Ewald energy   TEWEN  =     94814.27564606
  -Hartree energ DENC   =   -128680.00302266
  -exchange      EXHF   =         0.00000000
  -V(xc)+E(xc)   XCENC  =       475.20766344
  PAW double counting   =     35774.92952624   -34989.95217454
  entropy T*S    EENTRO =         0.00000000
  eigenvalues    EBANDS =     -1170.18888880
  atomic energy  EATOM  =     32642.46769412
  Solvation  Ediel_sol  =         0.00000000
  ---------------------------------------------------
  free energy    TOTEN  =      -124.54762494 eV

  energy without entropy =     -124.54762494  energy(sigma->0) =     -124.54762494


--------------------------------------------------------------------------------------------------------




 average (electrostatic) potential at core
  the test charge radii are     1.2098  1.1823  0.5201
  (the norm of the test charge is              1.0000)
       1 -72.2702       2 -72.2415       3 -72.2415       4 -72.2363       5 -72.2382
       6 -72.2360       7 -72.2394       8 -72.2392       9 -72.2462      10 -72.6008
      11 -72.5398      12 -72.6006      13 -72.5385      14 -72.5382      15 -72.5753
      16 -72.6036      17 -72.5659      18 -72.5660      19 -72.5300      20 -72.8550
      21 -72.8548      22 -72.5396      23 -72.8500      24 -72.5392      25 -72.5203
      26 -72.5201      27 -72.5243      28 -72.2259      29 -72.3774      30 -72.3775
      31 -72.4022      32 -72.4021      33 -72.3878      34 -72.3876      35 -72.2230
      36 -45.5103      37 -37.3930      38 -37.3929
 
 
 
 E-fermi :   0.7870     XC(G=0):  -6.1529     alpha+bet : -5.7581

 Fermi energy:         0.7869868463

 k-point     1 :       0.0000    0.0000    0.0000
  band No.  band energies     occupation 
      1      -8.1483      2.00000
      2      -7.5491      2.00000
      3      -6.7288      2.00000
      4      -5.9371      2.00000
      5      -5.9259      2.00000
      6      -5.9258      2.00000
      7      -5.8889      2.00000
      8      -5.8561      2.00000
      9      -5.8263      2.00000
     10      -5.8260      2.00000
     11      -5.8217      2.00000
     12      -5.4376      2.00000
     13      -5.4370      2.00000
     14      -5.4254      2.00000
     15      -5.3650      2.00000
     16      -5.3496      2.00000
     17      -5.3475      2.00000
     18      -5.0734      2.00000
     19      -5.0698      2.00000
     20      -5.0695      2.00000
     21      -5.0130      2.00000
     22      -4.9962      2.00000
     23      -4.9950      2.00000
     24      -4.8616      2.00000
     25      -4.8600      2.00000
     26      -4.8544      2.00000
     27      -4.8520      2.00000
     28      -4.8484      2.00000
     29      -4.8211      2.00000
     30      -4.7205      2.00000
     31      -4.7204      2.00000
     32      -4.7071      2.00000
     33      -4.6838      2.00000
     34      -4.6702      2.00000
     35      -4.6699      2.00000
     36      -4.6646      2.00000
     37      -4.6607      2.00000
     38      -4.6281      2.00000
     39      -4.6173      2.00000
     40      -4.6164      2.00000
     41      -4.6159      2.00000
     42      -4.2004      2.00000
     43      -4.1927      2.00000
     44      -4.1629      2.00000
     45      -4.1628      2.00000
     46      -4.1554      2.00000
     47      -4.1048      2.00000
     48      -4.1036      2.00000
     49      -4.1004      2.00000
     50      -4.0714      2.00000
     51      -4.0706      2.00000
     52      -3.9935      2.00000
     53      -3.9892      2.00000
     54      -3.9676      2.00000
     55      -3.8959      2.00000
     56      -3.6498      2.00000
     57      -3.6283      2.00000
     58      -3.6271      2.00000
     59      -3.6171      2.00000
     60      -3.6056      2.00000
     61      -3.6033      2.00000
     62      -3.5869      2.00000
     63      -3.5196      2.00000
     64      -3.5184      2.00000
     65      -3.4767      2.00000
     66      -3.4689      2.00000
     67      -3.4486      2.00000
     68      -3.4325      2.00000
     69      -3.4253      2.00000
     70      -3.4073      2.00000
     71      -3.4047      2.00000
     72      -3.3907      2.00000
     73      -3.3347      2.00000
     74      -3.3344      2.00000
     75      -3.3303      2.00000
     76      -3.3172      2.00000
     77      -3.3162      2.00000
     78      -3.3122      2.00000
     79      -3.3080      2.00000
     80      -3.3072      2.00000
     81      -3.2727      2.00000
     82      -3.2593      2.00000
     83      -3.2372      2.00000
     84      -3.2318      2.00000
     85      -3.2311      2.00000
     86      -3.2038      2.00000
     87      -3.1955      2.00000
     88      -3.1512      2.00000
     89      -3.1484      2.00000
     90      -3.1302      2.00000
     91      -3.1173      2.00000
     92      -3.1172      2.00000
     93      -3.1076      2.00000
     94      -3.0659      2.00000
     95      -3.0657      2.00000
     96      -2.8867      2.00000
     97      -2.8865      2.00000
     98      -2.8824      2.00000
     99      -2.8824      2.00000
    100      -2.7543      2.00000
    101      -2.7470      2.00000
    102      -2.7381      2.00000
    103      -2.7168      2.00000
    104      -2.7124      2.00000
    105      -2.7067      2.00000
    106      -2.6141      2.00000
    107      -2.6115      2.00000
    108      -2.5502      2.00000
    109      -2.5227      2.00000
    110      -2.5187      2.00000
    111      -2.4929      2.00000
    112      -2.4828      2.00000
    113      -2.4794      2.00000
    114      -2.4268      2.00000
    115      -2.4026      2.00000
    116      -2.3848      2.00000
    117      -2.3150      2.00000
    118      -2.2958      2.00000
    119      -2.2600      2.00000
    120      -2.2174      2.00000
    121      -2.2156      2.00000
    122      -2.1922      2.00000
    123      -2.1902      2.00000
    124      -2.1872      2.00000
    125      -2.1459      2.00000
    126      -2.1454      2.00000
    127      -2.1163      2.00000
    128      -2.1157      2.00000
    129      -2.0364      2.00000
    130      -2.0223      2.00000
    131      -1.9994      2.00000
    132      -1.9676      2.00000
    133      -1.9663      2.00000
    134      -1.9654      2.00000
    135      -1.9469      2.00000
    136      -1.9463      2.00000
    137      -1.9460      2.00000
    138      -1.9406      2.00000
    139      -1.9389      2.00000
    140      -1.8249      2.00000
    141      -1.8231      2.00000
    142      -1.8094      2.00000
    143      -1.7696      2.00000
    144      -1.7631      2.00000
    145      -1.7418      2.00000
    146      -1.7413      2.00000
    147      -1.7392      2.00000
    148      -1.7319      2.00000
    149      -1.6898      2.00000
    150      -1.6888      2.00000
    151      -1.6681      2.00000
    152      -1.6643      2.00000
    153      -1.6127      2.00000
    154      -1.6125      2.00000
    155      -1.5967      2.00000
    156      -1.5902      2.00000
    157      -1.5874      2.00000
    158      -1.5540      2.00000
    159      -1.5393      2.00000
    160      -1.5365      2.00000
    161      -1.5261      2.00000
    162      -1.4825      2.00000
    163      -1.4791      2.00000
    164      -1.4649      2.00000
    165      -1.4589      2.00000
    166      -1.4565      2.00000
    167      -1.4543      2.00000
    168      -1.4515      2.00000
    169      -1.4478      2.00000
    170      -1.4280      2.00000
    171      -1.3907      2.00000
    172      -1.3905      2.00000
    173      -1.3718      2.00000
    174      -1.3655      2.00000
    175      -1.3571      2.00000
    176      -1.3567      2.00000
    177      -1.3504      2.00000
    178      -1.3235      2.00000
    179      -1.3230      2.00000
    180      -1.3081      2.00000
    181      -1.2802      2.00000
    182      -1.2758      2.00000
    183      -1.2751      2.00000
    184      -1.2237      2.00000
    185      -1.2202      2.00000
    186      -1.1192      2.00000
    187      -1.1170      2.00000
    188      -1.1117      2.00000
    189      -1.0777      2.00000
    190      -1.0774      2.00000
    191      -1.0659      2.00000
    192      -0.2813      2.00000
    193      -0.2696      2.00000
    194      -0.1036      2.00000
    195      -0.0565      2.00000
    196       0.1417      2.00000
    197       0.1445      2.00000
    198       0.1969      2.00000
    199       0.6929      2.00000
    200       0.8314      0.00000
    201       1.1165      0.00000
    202       1.1296      0.00000
    203       1.1359      0.00000
    204       1.8532      0.00000
    205       2.2669      0.00000
    206       2.3258      0.00000
    207       2.3290      0.00000
    208       2.7397      0.00000
    209       2.7744      0.00000
    210       3.5448      0.00000
    211       3.5702      0.00000
    212       3.5960      0.00000
    213       3.6217      0.00000
    214       3.6907      0.00000
    215       3.7545      0.00000
    216       4.1263      0.00000
    217       4.1308      0.00000
    218       4.7580      0.00000
    219       5.1015      0.00000
    220       5.2066      0.00000
    221       5.3425      0.00000
    222       5.3935      0.00000
    223       5.4418      0.00000
    224       5.4484      0.00000
    225       5.4507      0.00000
    226       5.5176      0.00000
    227       5.6068      0.00000
    228       5.7452      0.00000
    229       5.7476      0.00000
    230       5.8804      0.00000
    231       6.1766      0.00000
    232       6.4989      0.00000
    233       6.6584      0.00000
    234       6.9121      0.00000
    235       6.9683      0.00000
    236       6.9915      0.00000
    237       7.0316      0.00000
    238       7.0504      0.00000
    239       7.1374      0.00000
    240       7.1575      0.00000
    241       7.1861      0.00000
    242       7.2556      0.00000
    243       7.2601      0.00000
    244       7.2869      0.00000
    245       7.3747      0.00000
    246       7.4082      0.00000
    247       7.5096      0.00000
    248       7.5508      0.00000
    249       7.5638      0.00000
    250       7.5686      0.00000
    251       7.8925      0.00000
    252       7.9343      0.00000

 k-point     2 :       0.1250   -0.0000    0.0000
  band No.  band energies     occupation 
      1      -8.1047      2.00000
      2      -7.5330      2.00000
      3      -6.6899      2.00000
      4      -6.1285      2.00000
      5      -5.9640      2.00000
      6      -5.9485      2.00000
      7      -5.8525      2.00000
      8      -5.8359      2.00000
      9      -5.7666      2.00000
     10      -5.7494      2.00000
     11      -5.7174      2.00000
     12      -5.4633      2.00000
     13      -5.4150      2.00000
     14      -5.4144      2.00000
     15      -5.3803      2.00000
     16      -5.3351      2.00000
     17      -5.3239      2.00000
     18      -5.0946      2.00000
     19      -5.0550      2.00000
     20      -5.0526      2.00000
     21      -5.0060      2.00000
     22      -4.9760      2.00000
     23      -4.9715      2.00000
     24      -4.9524      2.00000
     25      -4.8897      2.00000
     26      -4.8821      2.00000
     27      -4.8036      2.00000
     28      -4.7948      2.00000
     29      -4.7754      2.00000
     30      -4.7500      2.00000
     31      -4.7438      2.00000
     32      -4.7277      2.00000
     33      -4.7112      2.00000
     34      -4.7069      2.00000
     35      -4.6842      2.00000
     36      -4.6720      2.00000
     37      -4.6141      2.00000
     38      -4.5988      2.00000
     39      -4.5752      2.00000
     40      -4.5217      2.00000
     41      -4.5143      2.00000
     42      -4.2511      2.00000
     43      -4.2294      2.00000
     44      -4.2124      2.00000
     45      -4.2044      2.00000
     46      -4.1884      2.00000
     47      -4.1597      2.00000
     48      -4.1237      2.00000
     49      -4.0720      2.00000
     50      -4.0597      2.00000
     51      -4.0242      2.00000
     52      -3.9750      2.00000
     53      -3.9623      2.00000
     54      -3.9471      2.00000
     55      -3.8980      2.00000
     56      -3.6892      2.00000
     57      -3.6595      2.00000
     58      -3.6447      2.00000
     59      -3.6395      2.00000
     60      -3.6130      2.00000
     61      -3.6049      2.00000
     62      -3.5974      2.00000
     63      -3.5739      2.00000
     64      -3.5443      2.00000
     65      -3.5277      2.00000
     66      -3.5203      2.00000
     67      -3.5009      2.00000
     68      -3.4913      2.00000
     69      -3.4808      2.00000
     70      -3.4606      2.00000
     71      -3.4411      2.00000
     72      -3.4338      2.00000
     73      -3.4008      2.00000
     74      -3.3948      2.00000
     75      -3.3850      2.00000
     76      -3.3772      2.00000
     77      -3.3524      2.00000
     78      -3.3061      2.00000
     79      -3.2943      2.00000
     80      -3.2640      2.00000
     81      -3.2613      2.00000
     82      -3.2305      2.00000
     83      -3.2264      2.00000
     84      -3.2060      2.00000
     85      -3.1918      2.00000
     86      -3.1772      2.00000
     87      -3.1540      2.00000
     88      -3.1228      2.00000
     89      -3.1197      2.00000
     90      -3.1054      2.00000
[...]
  0.000   0.000   0.000   0.000   0.000   0.000   0.000   0.000   0.000   0.000   0.000   0.000   0.000   0.000   0.000   0.000
  0.000   0.000   0.000   0.000   0.000   0.000   0.000   0.000   0.000   0.000   0.000   0.000   0.000   0.000   0.000   0.000
  0.000   0.000   0.000   0.000   0.000   0.000   0.000   0.000   0.000   0.000   1.000   0.000   0.000   0.000   0.000   0.000
  0.000   0.000   0.000   0.000   0.000   0.000   0.000   0.000   0.000   0.000   0.000   0.000   0.000   0.000   0.000   0.000
  0.000   0.000   0.000   0.000   0.000   0.000   0.000   0.000   0.000   0.000   0.000   0.000   0.000   0.000   0.000   0.000
  0.000   0.000   0.000   0.000   0.000   0.000   0.000   0.000   0.000   0.000   0.000   0.000   0.000   0.000   0.000   0.000
  0.000   0.000   0.000   0.000   0.000   0.000   0.000   0.000   0.000   0.000   0.000   0.000   0.000   0.000   0.000   0.000
  0.000   0.000   0.000   0.000   0.000   0.000   0.000   0.000   0.000   0.000   0.000   0.000   0.000   0.000   0.000   0.000
  0.000   0.000   0.000   0.000   0.000   0.000   0.000   0.000   0.000   0.000   0.000   0.000   0.000   0.000   0.000   0.000
  0.000   0.000   0.000   0.000   0.000   0.000   0.000   0.000   0.000   0.000   0.000   0.000   0.000   0.000   0.000   0.000


------------------------ aborting loop because EDIFF is reached ----------------------------------------





 total charge

# of ion       s       p       d       tot
------------------------------------------
    1        0.546   0.237   8.769   9.552
    2        0.542   0.241   8.764   9.548
    3        0.542   0.241   8.764   9.548
    4        0.544   0.240   8.765   9.550
    5        0.547   0.240   8.760   9.547
    6        0.544   0.240   8.765   9.550
    7        0.542   0.241   8.766   9.548
    8        0.542   0.241   8.766   9.548
    9        0.542   0.239   8.769   9.550
   10        0.526   0.307   8.765   9.599
   11        0.524   0.306   8.780   9.610
   12        0.526   0.307   8.765   9.599
   13        0.525   0.306   8.779   9.610
   14        0.525   0.306   8.779   9.610
   15        0.514   0.308   8.774   9.597
   16        0.529   0.307   8.763   9.598
   17        0.515   0.308   8.775   9.598
   18        0.515   0.308   8.775   9.598
   19        0.516   0.295   8.771   9.581
   20        0.571   0.346   8.729   9.646
   21        0.571   0.346   8.729   9.646
   22        0.505   0.306   8.779   9.590
   23        0.578   0.345   8.727   9.649
   24        0.505   0.306   8.779   9.590
   25        0.517   0.294   8.771   9.582
   26        0.517   0.294   8.771   9.582
   27        0.506   0.305   8.780   9.591
   28        0.538   0.224   8.759   9.521
   29        0.580   0.255   8.734   9.569
   30        0.580   0.255   8.734   9.569
   31        0.574   0.258   8.734   9.566
   32        0.574   0.258   8.734   9.566
   33        0.581   0.254   8.734   9.569
   34        0.581   0.254   8.734   9.569
   35        0.537   0.224   8.759   9.519
   36        0.561   0.534   3.965   5.059
   37        0.537   0.031   0.000   0.567
   38        0.537   0.031   0.000   0.567
--------------------------------------------------
tot         20.556  10.337 310.564 341.457
 
    CHARGE:  cpu time    0.6219: real time    0.6220
    FORLOC:  cpu time    0.0103: real time    0.0103
    FORNL :  cpu time    2.9906: real time    2.9908
    STRESS:  cpu time    8.9689: real time    8.9692
    FORCOR:  cpu time    0.0508: real time    0.0509
    FORHAR:  cpu time    0.0167: real time    0.0168
    OFIELD:  cpu time    0.0002: real time    0.0002

  FORCE on cell =-STRESS in cart. coord.  units (eV):
  Direction    XX          YY          ZZ          XY          YZ          ZX
  --------------------------------------------------------------------------------------
  Alpha Z  1008.71593  1008.71593  1008.71593
  Ewald  117237.23479117219.54092************    -0.00032     0.04542    -0.00016
  Hartree125759.87613125757.32126************     0.00000     0.17555    -0.00004
  E(xc)   -1759.02269 -1759.03430 -1767.77003     0.00001     0.03851     0.00000
  Local  ************************255378.13572     0.00179    -0.05282     0.00012
  n-local   -63.97324   -62.60754   -35.73959     4.88166     0.09718     0.14885
  augment  2367.40036  2367.06318  2389.72415    -0.00129    -0.02603     0.00007
  Kinetic  5430.78792  5433.48944  5499.27761     1.59658    -0.31931     0.13508
  Fock        0.00000     0.00000     0.00000     0.00000     0.00000     0.00000
  -------------------------------------------------------------------------------------
  Total     -22.25230   -22.33411     3.65620    -0.00000    -0.04150    -0.00000
  in kB     -23.87691   -23.96469     3.92313    -0.00000    -0.04453    -0.00000
  external pressure =      -14.64 kB  Pullay stress =        0.00 kB


 VOLUME and BASIS-vectors are now :
 -----------------------------------------------------------------------------
  energy-cutoff  :      500.00
  volume of cell :     1493.16
      direct lattice vectors                 reciprocal lattice vectors
     8.813512802  0.000000000  0.000000000     0.113462137 -0.065507406  0.000000000
     4.406756909  7.632725690  0.000000000     0.000000000  0.131014796  0.000000000
     0.000000000  0.000000000 22.196203232     0.000000000  0.000000000  0.045052750

  length of vectors
     8.813512802  8.813512802 22.196203232     0.131014796  0.131014796  0.045052750


 FORCES acting on ions
    electron-ion (+dipol)            ewald-force                    non-local-force                 convergence-correction
 -----------------------------------------------------------------------------------------------
   -.199E-04 0.295E-02 0.246E+04   0.520E-04 -.227E-02 -.246E+04   0.158E-08 0.238E-01 -.962E+00   -.201E-03 -.295E-01 -.190E+00
   0.529E+00 -.110E+00 0.246E+04   -.713E+00 -.984E-01 -.246E+04   0.111E+00 0.152E+00 -.239E+00   0.642E-01 0.521E-01 -.221E+00
   -.529E+00 -.110E+00 0.246E+04   0.712E+00 -.984E-01 -.246E+04   -.111E+00 0.152E+00 -.239E+00   -.639E-01 0.541E-01 -.221E+00
   0.223E+00 0.575E+00 0.246E+04   -.440E+00 -.569E+00 -.246E+04   0.130E+00 -.141E-01 -.223E+00   0.909E-01 0.763E-02 -.193E+00
   0.743E-05 -.449E-01 0.246E+04   0.951E-04 0.335E-03 -.246E+04   0.120E-08 0.180E-01 0.915E-01   0.430E-02 0.227E-01 -.176E+00
   -.223E+00 0.575E+00 0.246E+04   0.439E+00 -.569E+00 -.246E+04   -.130E+00 -.141E-01 -.223E+00   -.925E-01 0.860E-02 -.192E+00
   -.461E+00 -.444E+00 0.246E+04   0.273E+00 0.667E+00 -.246E+04   0.114E+00 -.146E+00 -.255E+00   0.608E-01 -.686E-01 -.239E+00
   0.461E+00 -.444E+00 0.246E+04   -.273E+00 0.667E+00 -.246E+04   -.114E+00 -.146E+00 -.255E+00   -.589E-01 -.697E-01 -.238E+00
   0.197E-04 -.145E-01 0.246E+04   0.166E-03 0.197E-02 -.246E+04   -.813E-09 -.122E-01 -.586E+00   -.464E-02 0.259E-01 -.180E+00
   0.707E+01 0.414E+01 0.795E+03   -.666E+01 -.386E+01 -.794E+03   -.453E+00 -.262E+00 -.737E+00   0.267E-01 -.190E-01 -.736E-02
   0.145E-04 0.219E+01 0.800E+03   0.148E-03 -.226E+01 -.800E+03   0.371E-08 0.557E-01 -.590E-01   0.379E-02 -.386E-01 0.180E-01
   -.707E+01 0.414E+01 0.795E+03   0.666E+01 -.386E+01 -.794E+03   0.453E+00 -.262E+00 -.737E+00   -.280E-01 -.175E-01 -.772E-02
   0.181E+01 -.109E+01 0.800E+03   -.194E+01 0.114E+01 -.800E+03   0.808E-01 -.310E-01 -.162E+00   0.247E-02 0.178E-01 -.616E-02
   -.181E+01 -.109E+01 0.800E+03   0.194E+01 0.114E+01 -.800E+03   -.808E-01 -.310E-01 -.162E+00   0.535E-02 0.174E-01 -.627E-02
   0.316E-04 0.572E+01 0.800E+03   0.235E-03 -.587E+01 -.800E+03   0.183E-08 0.275E-01 -.533E+00   -.239E-02 0.356E-01 0.489E-01
   -.213E-04 -.824E+01 0.795E+03   0.163E-03 0.769E+01 -.794E+03   0.378E-07 0.568E+00 -.717E+00   0.296E-03 -.284E-02 -.241E-01
   0.496E+01 -.290E+01 0.800E+03   -.509E+01 0.294E+01 -.800E+03   0.378E-01 -.220E-01 -.551E+00   0.200E-01 0.792E-02 0.250E-01
   -.496E+01 -.290E+01 0.800E+03   0.509E+01 0.294E+01 -.800E+03   -.378E-01 -.220E-01 -.551E+00   -.200E-01 0.983E-02 0.247E-01
   -.440E-04 0.231E+01 -.896E+03   0.557E-04 -.242E+01 0.895E+03   0.823E-09 0.124E-01 0.592E+00   -.226E-03 0.811E-01 0.283E+00
   -.361E+01 -.214E+01 -.862E+03   0.474E+01 0.263E+01 0.863E+03   -.124E+01 -.581E+00 -.150E+01   0.591E-01 0.368E-01 0.377E+00
   0.361E+01 -.214E+01 -.862E+03   -.474E+01 0.263E+01 0.863E+03   0.124E+01 -.581E+00 -.150E+01   -.584E-01 0.388E-01 0.377E+00
   -.127E+02 0.724E+01 -.874E+03   0.122E+02 -.692E+01 0.873E+03   0.539E+00 -.329E+00 0.625E+00   0.787E-02 -.932E-02 0.258E+00
   -.995E-05 0.393E+01 -.862E+03   0.138E-03 -.532E+01 0.863E+03   0.103E-06 0.155E+01 -.165E+01   0.177E-02 -.771E-01 0.388E+00
   0.127E+02 0.724E+01 -.874E+03   -.122E+02 -.692E+01 0.873E+03   -.539E+00 -.329E+00 0.625E+00   -.147E-01 -.892E-02 0.258E+00
   -.193E+01 -.107E+01 -.896E+03   0.205E+01 0.112E+01 0.895E+03   -.173E-01 -.435E-02 0.543E+00   -.892E-01 -.387E-01 0.270E+00
   0.193E+01 -.107E+01 -.896E+03   -.205E+01 0.112E+01 0.895E+03   0.173E-01 -.435E-02 0.543E+00   0.911E-01 -.397E-01 0.271E+00
   0.113E-04 -.147E+02 -.874E+03   0.198E-03 0.141E+02 0.874E+03   0.435E-07 0.653E+00 0.589E+00   -.429E-02 0.194E-01 0.239E+00
   -.117E-04 0.414E+00 -.245E+04   0.289E-04 -.418E+00 0.245E+04   -.204E-08 -.307E-01 0.577E+00   0.136E-02 0.196E-01 0.304E+00
   0.108E+02 0.160E+02 -.246E+04   -.960E+01 -.143E+02 0.246E+04   -.136E+01 -.195E+01 -.256E+00   0.943E-01 0.148E+00 0.206E+00
   -.108E+02 0.160E+02 -.246E+04   0.960E+01 -.143E+02 0.246E+04   0.136E+01 -.195E+01 -.256E+00   -.100E+00 0.150E+00 0.207E+00
   0.203E+02 0.186E+01 -.246E+04   -.184E+02 -.179E+01 0.246E+04   -.222E+01 -.801E-01 0.156E-01   0.162E+00 0.228E-01 0.232E+00
   -.203E+02 0.186E+01 -.246E+04   0.184E+02 -.179E+01 0.246E+04   0.222E+01 -.801E-01 0.156E-01   -.169E+00 0.239E-01 0.231E+00
   0.729E+01 -.178E+02 -.246E+04   -.629E+01 0.161E+02 0.246E+04   -.113E+01 0.203E+01 -.237E+00   0.574E-01 -.173E+00 0.223E+00
   -.729E+01 -.178E+02 -.246E+04   0.629E+01 0.161E+02 0.246E+04   0.113E+01 0.203E+01 -.237E+00   -.616E-01 -.173E+00 0.222E+00
   0.346E-04 -.402E+00 -.245E+04   0.141E-03 0.371E+00 0.245E+04   0.487E-08 0.732E-01 0.642E+00   -.352E-02 -.300E-01 0.266E+00
   -.215E-04 -.197E+00 -.122E+04   0.638E-04 0.155E+00 0.122E+04   0.293E-08 0.440E-01 0.106E+00   0.115E-02 -.229E-02 0.157E+00
   0.122E+02 -.374E-01 -.266E+03   -.152E+02 0.249E-01 0.267E+03   0.297E+01 0.766E-02 -.146E+01   -.736E-03 -.812E-03 -.232E-01
   -.122E+02 -.374E-01 -.266E+03   0.152E+02 0.249E-01 0.267E+03   -.297E+01 0.766E-02 -.146E+01   0.928E-03 -.799E-03 -.233E-01
 -----------------------------------------------------------------------------------------------
   -.807E-03 -.530E+00 0.822E+01   -.249E-13 -.408E-13 0.114E-11   0.354E-07 0.531E+00 -.108E+02   -.169E-01 0.658E-03 0.294E+01
 
 
 POSITION                                       TOTAL-FORCE (eV/Angst)
 -----------------------------------------------------------------------------------
      0.00000      0.00000      5.28038        -0.000000     -0.005029     -0.174798
      2.93784      0.00000      5.28038        -0.009104     -0.003467     -0.070297
      5.87568      0.00000      5.28038         0.009104     -0.003467     -0.070297
      1.46892      2.54424      5.28038         0.005223     -0.000148     -0.083932
      4.40676      2.54424      5.28038        -0.000000     -0.003906     -0.125414
      7.34459      2.54424      5.28038        -0.005223     -0.000148     -0.083932
      2.93784      5.08848      5.28038        -0.013335      0.008591     -0.065672
      5.87568      5.08848      5.28038         0.013335      0.008591     -0.065672
      8.81351      5.08848      5.28038         0.000000      0.001093     -0.094671
      1.46892      0.84808      7.67911        -0.014089     -0.001207      0.156697
      4.40676      0.84808      7.67911        -0.000000     -0.057427      0.009058
      7.34459      0.84808      7.67911         0.014089     -0.001207      0.156697
      2.93784      3.39232      7.67911        -0.051308      0.032842      0.007401
      5.87568      3.39232      7.67911         0.051308      0.032842      0.007401
      8.81351      3.39232      7.67911        -0.000000     -0.084909      0.103944
      4.40676      5.93656      7.67911         0.000000      0.015792      0.151867
      7.34459      5.93656      7.67911        -0.067911      0.033886      0.102632
     10.28243      5.93656      7.67911         0.067911      0.033886      0.102632
      8.81351      1.70807     10.10081        -0.000000     -0.018192      0.056031
      2.93151      1.69251     10.04012        -0.050117     -0.049737     -0.175925
      5.88200      1.69251     10.04012         0.050117     -0.049737     -0.175925
     10.26425      4.25090     10.06644         0.024466     -0.012462      0.021798
      4.40676      4.24770     10.04012         0.000000      0.083634     -0.125333
      7.36277      4.25090     10.06644        -0.024466     -0.012462      0.021798
     11.74104      6.77869     10.10081         0.015436      0.010227      0.033008
      5.88599      6.77869     10.10081        -0.015436      0.010227      0.033008
      8.81351      6.76365     10.06644         0.000000      0.035421      0.018223
      0.00000      0.00000     12.49922        -0.000000     -0.015001     -0.070478
      2.99894      0.10048     12.55446        -0.053792     -0.130302     -0.063242
      5.81457      0.10048     12.55446         0.053792     -0.130302     -0.063242
      1.58649      2.54692     12.55446        -0.132807      0.009089     -0.036732
      7.22703      2.54692     12.55446         0.132807      0.009089     -0.036732
      2.99430      4.98533     12.55446        -0.067693      0.127110     -0.067341
      5.81921      4.98533     12.55446         0.067693      0.127110     -0.067341
      8.81351      5.08848     12.49869         0.000000      0.011436     -0.014171
      4.40676      2.54424     12.18560        -0.000000     -0.000434      0.746610
      3.95277      2.53856     13.95019         0.012879     -0.005662      0.001169
      4.86075      2.53856     13.95019        -0.012879     -0.005662      0.001169
 -----------------------------------------------------------------------------------
    total drift:                               -0.017736      0.001971      0.374210


--------------------------------------------------------------------------------------------------------



  FREE ENERGIE OF THE ION-ELECTRON SYSTEM (eV)
  ---------------------------------------------------
  free  energy   TOTEN  =      -124.54762494 eV

  energy  without entropy=     -124.54762494  energy(sigma->0) =     -124.54762494
 


--------------------------------------------------------------------------------------------------------


    POTLOK:  cpu time    0.0450: real time    0.0450


--------------------------------------------------------------------------------------------------------


 stress matrix after NEB project (eV)
    -22.25230     -0.00000     -0.00000
     -0.00000    -22.33411     -0.04150
     -0.00000     -0.04150      3.65620
  FORCES: max atom, RMS     0.014117    0.003239
  FORCE total and by dimension    0.019964    0.012879
  Stress total and by dimension   31.738757   22.334111
     LOOP+:  cpu time  144.9883: real time  144.9994
 -----------------------------------------------------------------------------
|                                                                             |
|           W    W    AA    RRRRR   N    N  II  N    N   GGGG   !!!           |
|           W    W   A  A   R    R  NN   N  II  NN   N  G    G  !!!           |
|           W    W  A    A  R    R  N N  N  II  N N  N  G       !!!           |
|           W WW W  AAAAAA  RRRRR   N  N N  II  N  N N  G  GGG   !            |
|           WW  WW  A    A  R   R   N   NN  II  N   NN  G    G                |
|           W    W  A    A  R    R  N    N  II  N    N   GGGG   !!!           |
|                                                                             |
|     Tetrahedron method does not include variations of the Fermi             |
|     occupations, so forces and stress will be inaccurate. We suggest        |
|     using a different smearing scheme ISMEAR = 1 or 2 for metals in         |
|     relaxations.                                                            |
|                                                                             |
 -----------------------------------------------------------------------------

    4ORBIT:  cpu time    0.0000: real time    0.0000



 total charge

# of ion       s       p       d       tot
------------------------------------------
    1        0.546   0.237   8.769   9.552
    2        0.542   0.241   8.764   9.548
    3        0.542   0.241   8.764   9.548
    4        0.544   0.240   8.765   9.550
    5        0.547   0.240   8.760   9.547
    6        0.544   0.240   8.765   9.550
    7        0.542   0.241   8.766   9.548
    8        0.542   0.241   8.766   9.548
    9        0.542   0.239   8.769   9.550
   10        0.526   0.307   8.765   9.599
   11        0.524   0.306   8.780   9.610
   12        0.526   0.307   8.765   9.599
   13        0.525   0.306   8.779   9.610
   14        0.525   0.306   8.779   9.610
   15        0.514   0.308   8.774   9.597
   16        0.529   0.307   8.763   9.598
   17        0.515   0.308   8.775   9.598
   18        0.515   0.308   8.775   9.598
   19        0.516   0.295   8.771   9.581
   20        0.571   0.346   8.729   9.646
   21        0.571   0.346   8.729   9.646
   22        0.505   0.306   8.779   9.590
   23        0.578   0.345   8.727   9.649
   24        0.505   0.306   8.779   9.590
   25        0.517   0.294   8.771   9.582
   26        0.517   0.294   8.771   9.582
   27        0.506   0.305   8.780   9.591
   28        0.538   0.224   8.759   9.521
   29        0.580   0.255   8.734   9.569
   30        0.580   0.255   8.734   9.569
   31        0.574   0.258   8.734   9.566
   32        0.574   0.258   8.734   9.566
   33        0.581   0.254   8.734   9.569
   34        0.581   0.254   8.734   9.569
   35        0.537   0.224   8.759   9.519
   36        0.561   0.534   3.965   5.059
   37        0.537   0.031   0.000   0.567
   38        0.537   0.031   0.000   0.567
--------------------------------------------------
tot         20.556  10.337 310.564 341.457
 
 BZINTS: Fermi energy:    0.786987;  393.000000 electrons
         Band energy:-0.117019E+04;  BLOECHL correction:   -0.037684

 total amount of memory used by VASP MPI-rank0   183889. kBytes
=======================================================================

   base      :      30000. kBytes
   nonlr-proj:      14328. kBytes
   fftplans  :       4330. kBytes
   grid      :      17879. kBytes
   one-center:        590. kBytes
   wavefun   :     116762. kBytes
 
  
  
 General timing and accounting informations for this job:
 ========================================================
  
                  Total CPU time used (sec):      158.626
                            User time (sec):      152.937
                          System time (sec):        5.689
                         Elapsed time (sec):      159.044
  
                   Maximum memory used (kb):      456908.
                   Average memory used (kb):          N/A
  
                          Minor page faults:        95039
                          Major page faults:            0
                 Voluntary context switches:         5521
