PROCAR new format
# of k-points:   10         # of bands:  252         # of ions:   37

 k-point     1 :    0.00000000 0.00000000 0.00000000     weight = 0.01562500

band     1 # energy   -6.39713246 # occ.  2.00000000
 
ion      s      p      d    tot
    1  0.006  0.001  0.000  0.007
    2  0.006  0.001  0.000  0.007
    3  0.006  0.001  0.000  0.007
    4  0.006  0.001  0.000  0.007
    5  0.006  0.001  0.000  0.007
    6  0.006  0.001  0.000  0.007
    7  0.006  0.001  0.000  0.007
    8  0.006  0.001  0.000  0.007
    9  0.006  0.001  0.000  0.007
   10  0.023  0.000  0.000  0.024
   11  0.024  0.000  0.000  0.024
   12  0.023  0.000  0.000  0.024
   13  0.024  0.000  0.000  0.024
   14  0.024  0.000  0.000  0.024
   15  0.023  0.000  0.000  0.024
   16  0.023  0.000  0.000  0.024
   17  0.023  0.000  0.000  0.024
   18  0.023  0.000  0.000  0.024
   19  0.022  0.000  0.000  0.023
   20  0.025  0.000  0.000  0.025
   21  0.025  0.000  0.000  0.025
   22  0.023  0.000  0.000  0.023
   23  0.025  0.000  0.000  0.025
   24  0.023  0.000  0.000  0.023
   25  0.022  0.000  0.000  0.023
   26  0.022  0.000  0.000  0.023
   27  0.023  0.000  0.000  0.023
   28  0.005  0.001  0.000  0.006
   29  0.005  0.001  0.000  0.006
   30  0.005  0.001  0.000  0.006
   31  0.005  0.001  0.000  0.006
   32  0.005  0.001  0.000  0.006
   33  0.005  0.001  0.000  0.006
   34  0.005  0.001  0.000  0.006
   35  0.005  0.001  0.000  0.006
   36  0.006  0.000  0.000  0.006
   37  0.001  0.000  0.000  0.001
tot    0.523  0.012  0.006  0.542
 
band     2 # energy   -5.52922989 # occ.  2.00000000
 
ion      s      p      d    tot
    1  0.008  0.000  0.000  0.009
    2  0.008  0.000  0.000  0.009
    3  0.008  0.000  0.000  0.009
    4  0.008  0.000  0.000  0.009
    5  0.008  0.000  0.000  0.009
    6  0.008  0.000  0.000  0.009
    7  0.008  0.000  0.000  0.009
    8  0.008  0.000  0.000  0.009
    9  0.008  0.000  0.000  0.009
   10  0.011  0.001  0.015  0.027
   11  0.011  0.001  0.014  0.026
   12  0.011  0.001  0.015  0.027
   13  0.011  0.001  0.014  0.026
   14  0.011  0.001  0.014  0.026
   15  0.011  0.001  0.014  0.026
   16  0.011  0.001  0.015  0.027
   17  0.011  0.001  0.014  0.026
   18  0.011  0.001  0.014  0.026
   19  0.012  0.001  0.016  0.028
   20  0.014  0.001  0.018  0.033
   21  0.014  0.001  0.018  0.033
   22  0.011  0.001  0.015  0.027
   23  0.014  0.001  0.018  0.033
   24  0.011  0.001  0.015  0.027
   25  0.012  0.001  0.016  0.028
   26  0.012  0.001  0.016  0.028
   27  0.011  0.001  0.015  0.027
   28  0.007  0.000  0.000  0.007
   29  0.007  0.000  0.000  0.007
   30  0.007  0.000  0.000  0.007
   31  0.007  0.000  0.000  0.007
   32  0.007  0.000  0.000  0.007
   33  0.007  0.000  0.000  0.007
   34  0.007  0.000  0.000  0.007
   35  0.006  0.000  0.000  0.007
   36  0.008  0.000  0.000  0.008
   37  0.001  0.000  0.000  0.001
tot    0.343  0.025  0.282  0.649
 
band     3 # energy   -5.23726410 # occ.  2.00000000
 
ion      s      p      d    tot
    1  0.012  0.000  0.027  0.039
    2  0.015  0.000  0.024  0.039
    3  0.015  0.000  0.024  0.039
    4  0.015  0.000  0.024  0.039
    5  0.015  0.000  0.023  0.038
    6  0.015  0.000  0.024  0.039
    7  0.015  0.000  0.024  0.039
    8  0.015  0.000  0.024  0.039
    9  0.017  0.000  0.023  0.039
   10  0.001  0.000  0.020  0.021
   11  0.001  0.000  0.025  0.026
   12  0.001  0.000  0.020  0.021
   13  0.001  0.000  0.025  0.026
   14  0.001  0.000  0.025  0.026
   15  0.000  0.000  0.023  0.024
   16  0.001  0.000  0.020  0.021
   17  0.000  0.000  0.023  0.024
   18  0.000  0.000  0.023  0.024
   19  0.000  0.000  0.009  0.009
   20  0.000  0.000  0.014  0.015
   21  0.000  0.000  0.014  0.015
   22  0.000  0.000  0.011  0.011
   23  0.000  0.000  0.014  0.015
   24  0.000  0.000  0.011  0.011
   25  0.000  0.000  0.009  0.009
   26  0.000  0.000  0.009  0.009
   27  0.000  0.000  0.011  0.011
   28  0.004  0.000  0.008  0.012
   29  0.005  0.000  0.006  0.011
   30  0.005  0.000  0.006  0.011
   31  0.005  0.000  0.006  0.011
   32  0.005  0.000  0.006  0.011
   33  0.005  0.000  0.006  0.011
   34  0.005  0.000  0.006  0.011
   35  0.004  0.000  0.008  0.012
   36  0.007  0.000  0.000  0.007
   37  0.001  0.000  0.000  0.001
tot    0.187  0.006  0.573  0.766
 
band     4 # energy   -5.14070954 # occ.  2.00000000
 
ion      s      p      d    tot
    1  0.011  0.001  0.000  0.012
    2  0.001  0.000  0.007  0.008
    3  0.001  0.000  0.007  0.008
    4  0.001  0.000  0.007  0.008
    5  0.000  0.000  0.006  0.006
    6  0.001  0.000  0.007  0.008
    7  0.001  0.000  0.007  0.008
    8  0.001  0.000  0.007  0.008
    9  0.000  0.000  0.006  0.007
   10  0.005  0.000  0.048  0.052
   11  0.000  0.001  0.024  0.024
   12  0.005  0.000  0.048  0.052
   13  0.000  0.001  0.024  0.024
   14  0.000  0.001  0.024  0.024
   15  0.011  0.001  0.004  0.016
   16  0.005  0.000  0.048  0.052
   17  0.011  0.001  0.004  0.016
   18  0.011  0.001  0.004  0.016
   19  0.000  0.001  0.030  0.030
   20  0.006  0.000  0.071  0.076
   21  0.006  0.000  0.071  0.076
   22  0.015  0.001  0.006  0.022
   23  0.006  0.000  0.071  0.076
   24  0.015  0.001  0.006  0.022
   25  0.000  0.001  0.030  0.030
   26  0.000  0.001  0.030  0.030
   27  0.015  0.001  0.006  0.022
   28  0.000  0.000  0.004  0.004
   29  0.000  0.000  0.005  0.006
   30  0.000  0.000  0.005  0.006
   31  0.000  0.000  0.005  0.006
   32  0.000  0.000  0.005  0.006
   33  0.000  0.000  0.005  0.006
   34  0.000  0.000  0.005  0.006
   35  0.002  0.001  0.004  0.007
   36  0.009  0.001  0.002  0.012
   37  0.002  0.000  0.000  0.002
tot    0.142  0.015  0.641  0.798
 
band     5 # energy   -5.11280500 # occ.  2.00000000
 
ion      s      p      d    tot
    1  0.000  0.000  0.000  0.001
    2  0.000  0.000  0.005  0.006
    3  0.000  0.000  0.005  0.006
    4  0.000  0.000  0.005  0.006
    5  0.004  0.001  0.004  0.010
    6  0.000  0.000  0.005  0.006
    7  0.000  0.000  0.005  0.006
    8  0.000  0.000  0.005  0.006
    9  0.001  0.000  0.004  0.006
   10  0.007  0.001  0.005  0.014
   11  0.014  0.001  0.041  0.055
   12  0.007  0.001  0.005  0.014
   13  0.014  0.001  0.041  0.055
   14  0.013  0.001  0.041  0.055
   15  0.001  0.000  0.056  0.057
   16  0.007  0.001  0.005  0.014
   17  0.001  0.000  0.056  0.057
   18  0.001  0.000  0.056  0.058
   19  0.011  0.001  0.032  0.043
   20  0.006  0.001  0.013  0.021
   21  0.006  0.001  0.013  0.021
   22  0.000  0.000  0.047  0.047
   23  0.006  0.001  0.013  0.021
   24  0.000  0.000  0.047  0.048
   25  0.011  0.001  0.032  0.043
   26  0.011  0.001  0.032  0.043
   27  0.000  0.000  0.047  0.047
   28  0.003  0.001  0.004  0.009
   29  0.000  0.000  0.004  0.004
   30  0.000  0.000  0.003  0.004
   31  0.000  0.000  0.004  0.004
   32  0.000  0.000  0.004  0.004
   33  0.000  0.000  0.003  0.004
   34  0.000  0.000  0.004  0.004
   35  0.002  0.000  0.004  0.006
   36  0.000  0.000  0.000  0.000
   37  0.000  0.000  0.000  0.000
tot    0.130  0.017  0.653  0.800
 
band     6 # energy   -5.10957383 # occ.  2.00000000
 
ion      s      p      d    tot
    1  0.000  0.000  0.000  0.000
    2  0.000  0.000  0.004  0.004
    3  0.001  0.001  0.006  0.008
    4  0.000  0.000  0.004  0.004
    5  0.000  0.000  0.008  0.008
    6  0.001  0.000  0.003  0.004
    7  0.001  0.001  0.006  0.008
    8  0.000  0.000  0.003  0.004
    9  0.000  0.000  0.006  0.006
   10  0.000  0.000  0.030  0.031
   11  0.005  0.000  0.079  0.085
   12  0.000  0.001  0.040  0.041
   13  0.005  0.000  0.080  0.085
   14  0.022  0.001  0.004  0.027
   15  0.006  0.001  0.025  0.032
   16  0.000  0.001  0.040  0.041
   17  0.005  0.001  0.025  0.032
   18  0.022  0.000  0.031  0.053
   19  0.002  0.000  0.043  0.045
   20  0.002  0.000  0.032  0.034
   21  0.001  0.001  0.026  0.027
   22  0.005  0.001  0.027  0.033
   23  0.001  0.001  0.026  0.028
   24  0.019  0.001  0.017  0.037
   25  0.009  0.001  0.008  0.018
   26  0.002  0.000  0.043  0.046
   27  0.005  0.001  0.027  0.033
   28  0.000  0.000  0.003  0.004
   29  0.001  0.000  0.003  0.004
   30  0.000  0.000  0.002  0.002
   31  0.001  0.000  0.003  0.004
   32  0.001  0.000  0.003  0.004
   33  0.000  0.000  0.002  0.002
   34  0.001  0.000  0.003  0.004
   35  0.000  0.000  0.007  0.007
   36  0.000  0.000  0.000  0.000
   37  0.000  0.000  0.000  0.000
tot    0.119  0.016  0.670  0.805
 
band     7 # energy   -5.10956482 # occ.  2.00000000
 
ion      s      p      d    tot
    1  0.000  0.000  0.000  0.000
    2  0.001  0.001  0.005  0.007
    3  0.000  0.000  0.002  0.003
    4  0.001  0.001  0.005  0.007
    5  0.000  0.000  0.008  0.008
    6  0.001  0.000  0.005  0.007
    7  0.000  0.000  0.002  0.003
    8  0.001  0.000  0.005  0.007
    9  0.000  0.000  0.006  0.006
   10  0.000  0.001  0.044  0.045
   11  0.016  0.001  0.030  0.047
   12  0.000  0.000  0.034  0.034
   13  0.016  0.001  0.029  0.046
   14  0.000  0.000  0.104  0.104
   15  0.016  0.001  0.029  0.046
   16  0.000  0.000  0.034  0.034
   17  0.016  0.001  0.029  0.046
   18  0.000  0.001  0.023  0.024
   19  0.006  0.000  0.020  0.027
   20  0.000  0.001  0.024  0.025
   21  0.002  0.000  0.030  0.032
   22  0.015  0.001  0.020  0.036
   23  0.002  0.000  0.030  0.032
   24  0.000  0.001  0.031  0.032
   25  0.000  0.000  0.055  0.055
   26  0.007  0.000  0.020  0.027
   27  0.014  0.001  0.020  0.036
   28  0.000  0.000  0.003  0.004
   29  0.000  0.000  0.002  0.003
   30  0.001  0.000  0.003  0.005
   31  0.000  0.000  0.002  0.003
   32  0.000  0.000  0.002  0.003
   33  0.001  0.000  0.003  0.005
   34  0.000  0.000  0.002  0.003
   35  0.000  0.000  0.007  0.007
   36  0.000  0.000  0.000  0.000
   37  0.000  0.000  0.000  0.000
tot    0.119  0.016  0.670  0.805
 
band     8 # energy   -5.10492041 # occ.  2.00000000
 
ion      s      p      d    tot
    1  0.000  0.000  0.009  0.010
    2  0.001  0.000  0.003  0.004
    3  0.002  0.001  0.005  0.007
    4  0.001  0.000  0.004  0.004
    5  0.000  0.000  0.004  0.004
    6  0.000  0.000  0.003  0.003
    7  0.002  0.001  0.005  0.007
    8  0.000  0.000  0.003  0.003
    9  0.000  0.000  0.002  0.002
   10  0.000  0.000  0.056  0.056
   11  0.006  0.001  0.030  0.037
   12  0.019  0.001  0.022  0.041
   13  0.007  0.001  0.031  0.038
   14  0.000  0.002  0.012  0.013
   15  0.003  0.000  0.027  0.030
   16  0.018  0.001  0.023  0.042
   17  0.003  0.000  0.025  0.029
   18  0.000  0.000  0.066  0.066
   19  0.010  0.001  0.027  0.037
   20  0.000  0.000  0.082  0.083
   21  0.018  0.001  0.024  0.043
   22  0.001  0.000  0.029  0.030
   23  0.017  0.001  0.027  0.045
   24  0.000  0.001  0.054  0.055
   25  0.000  0.002  0.014  0.015
   26  0.010  0.001  0.027  0.038
   27  0.001  0.000  0.030  0.031
   28  0.000  0.000  0.003  0.003
   29  0.001  0.000  0.004  0.004
   30  0.000  0.000  0.002  0.002
   31  0.001  0.000  0.003  0.004
   32  0.001  0.000  0.004  0.006
   33  0.000  0.000  0.002  0.002
   34  0.001  0.000  0.004  0.006
   35  0.000  0.000  0.001  0.001
   36  0.000  0.000  0.001  0.001
   37  0.000  0.000  0.000  0.000
tot    0.122  0.017  0.666  0.804
 
band     9 # energy   -5.10491794 # occ.  2.00000000
 
ion      s      p      d    tot
    1  0.000  0.000  0.009  0.010
    2  0.001  0.000  0.004  0.006
    3  0.000  0.000  0.003  0.003
    4  0.001  0.000  0.004  0.005
    5  0.000  0.000  0.004  0.004
    6  0.001  0.000  0.005  0.006
    7  0.000  0.000  0.003  0.003
    8  0.001  0.000  0.005  0.006
    9  0.000  0.000  0.002  0.002
   10  0.025  0.001  0.011  0.037
   11  0.002  0.001  0.018  0.022
   12  0.006  0.001  0.045  0.052
   13  0.002  0.001  0.018  0.021
   14  0.009  0.000  0.036  0.046
   15  0.001  0.000  0.051  0.053
   16  0.007  0.001  0.044  0.051
   17  0.001  0.000  0.053  0.054
   18  0.005  0.000  0.012  0.017
   19  0.003  0.001  0.018  0.023
   20  0.023  0.001  0.007  0.031
   21  0.005  0.000  0.065  0.070
   22  0.000  0.001  0.047  0.048
   23  0.006  0.001  0.062  0.069
   24  0.001  0.000  0.021  0.023
   25  0.013  0.000  0.031  0.045
   26  0.003  0.001  0.018  0.022
   27  0.000  0.001  0.046  0.047
   28  0.000  0.000  0.003  0.003
   29  0.001  0.000  0.003  0.003
   30  0.001  0.000  0.005  0.006
   31  0.001  0.000  0.003  0.004
   32  0.000  0.000  0.002  0.002
   33  0.001  0.000  0.005  0.006
   34  0.000  0.000  0.002  0.002
   35  0.000  0.000  0.001  0.001
   36  0.000  0.000  0.001  0.001
   37  0.000  0.000  0.000  0.000
tot    0.122  0.017  0.666  0.804
 
band    10 # energy   -5.08636349 # occ.  2.00000000
 
ion      s      p      d    tot
    1  0.000  0.001  0.010  0.011
    2  0.000  0.000  0.009  0.010
    3  0.000  0.000  0.009  0.010
    4  0.000  0.000  0.009  0.010
    5  0.001  0.000  0.004  0.005
    6  0.000  0.000  0.009  0.010
    7  0.000  0.000  0.009  0.010
    8  0.000  0.000  0.009  0.010
    9  0.007  0.001  0.000  0.008
   10  0.003  0.000  0.034  0.037
   11  0.000  0.000  0.057  0.057
   12  0.003  0.000  0.034  0.037
   13  0.000  0.000  0.057  0.057
   14  0.000  0.000  0.058  0.058
   15  0.003  0.000  0.013  0.017
   16  0.003  0.000  0.034  0.037
   17  0.003  0.000  0.013  0.017
   18  0.003  0.000  0.013  0.017
   19  0.004  0.000  0.006  0.011
   20  0.001  0.000  0.053  0.054
   21  0.001  0.000  0.053  0.054
   22  0.003  0.000  0.049  0.052
   23  0.001  0.000  0.053  0.054
   24  0.003  0.000  0.050  0.052
   25  0.004  0.000  0.007  0.010
   26  0.004  0.000  0.006  0.011
   27  0.003  0.000  0.049  0.052
   28  0.006  0.001  0.000  0.007
   29  0.000  0.000  0.009  0.009
   30  0.000  0.000  0.009  0.009
   31  0.000  0.000  0.009  0.009
   32  0.000  0.000  0.009  0.009
   33  0.000  0.000  0.009  0.009
   34  0.000  0.000  0.009  0.009
   35  0.000  0.000  0.013  0.014
   36  0.001  0.000  0.000  0.002
   37  0.000  0.000  0.000  0.000
tot    0.059  0.007  0.775  0.842
 
band    11 # energy   -5.07472977 # occ.  2.00000000
 
ion      s      p      d    tot
    1  0.005  0.000  0.009  0.014
    2  0.000  0.000  0.009  0.010
    3  0.000  0.000  0.009  0.010
    4  0.000  0.000  0.009  0.010
    5  0.001  0.000  0.003  0.004
    6  0.000  0.000  0.009  0.010
    7  0.000  0.000  0.009  0.010
    8  0.000  0.000  0.009  0.010
    9  0.000  0.000  0.004  0.004
   10  0.000  0.000  0.058  0.058
   11  0.005  0.000  0.006  0.012
   12  0.000  0.000  0.058  0.059
   13  0.005  0.000  0.006  0.012
   14  0.005  0.000  0.006  0.012
   15  0.002  0.000  0.053  0.056
   16  0.000  0.000  0.058  0.059
   17  0.002  0.000  0.053  0.056
   18  0.002  0.000  0.053  0.056
   19  0.002  0.000  0.055  0.057
   20  0.001  0.001  0.010  0.011
   21  0.001  0.001  0.010  0.011
   22  0.000  0.000  0.037  0.037
   23  0.001  0.001  0.010  0.011
   24  0.000  0.000  0.037  0.037
   25  0.002  0.000  0.055  0.057
   26  0.002  0.000  0.055  0.057
   27  0.000  0.000  0.037  0.037
   28  0.001  0.000  0.016  0.017
   29  0.001  0.000  0.007  0.008
   30  0.001  0.000  0.007  0.008
   31  0.001  0.000  0.007  0.008
   32  0.001  0.000  0.007  0.008
   33  0.001  0.000  0.007  0.008
   34  0.001  0.000  0.007  0.008
   35  0.000  0.000  0.000  0.000
   36  0.004  0.000  0.000  0.004
   37  0.001  0.000  0.000  0.001
tot    0.051  0.007  0.786  0.845
 
band    12 # energy   -5.06803380 # occ.  2.00000000
 
ion      s      p      d    tot
    1  0.000  0.000  0.018  0.018
    2  0.003  0.000  0.006  0.009
    3  0.000  0.000  0.010  0.011
    4  0.003  0.000  0.006  0.009
    5  0.000  0.000  0.008  0.008
    6  0.001  0.001  0.007  0.009
    7  0.000  0.000  0.010  0.011
    8  0.001  0.001  0.007  0.009
    9  0.000  0.000  0.007  0.007
   10  0.000  0.000  0.047  0.048
   11  0.000  0.000  0.034  0.035
   12  0.004  0.000  0.037  0.041
   13  0.000  0.000  0.034  0.035
   14  0.000  0.000  0.018  0.018
   15  0.007  0.000  0.025  0.032
   16  0.004  0.000  0.037  0.041
   17  0.007  0.000  0.025  0.032
   18  0.000  0.000  0.081  0.081
   19  0.004  0.000  0.033  0.037
   20  0.000  0.000  0.077  0.077
   21  0.006  0.000  0.025  0.030
   22  0.000  0.000  0.030  0.030
   23  0.006  0.000  0.025  0.030
   24  0.000  0.000  0.017  0.017
   25  0.000  0.000  0.043  0.043
   26  0.004  0.000  0.033  0.037
   27  0.000  0.000  0.030  0.030
   28  0.000  0.000  0.012  0.012
   29  0.000  0.000  0.007  0.007
   30  0.002  0.000  0.004  0.006
   31  0.000  0.000  0.007  0.007
   32  0.001  0.000  0.005  0.007
   33  0.002  0.000  0.004  0.006
   34  0.001  0.000  0.005  0.007
   35  0.000  0.000  0.005  0.005
   36  0.000  0.000  0.001  0.001
   37  0.000  0.000  0.000  0.000
tot    0.058  0.008  0.778  0.843
 
band    13 # energy   -5.06800247 # occ.  2.00000000
 
ion      s      p      d    tot
    1  0.000  0.000  0.018  0.018
    2  0.000  0.000  0.010  0.010
    3  0.003  0.001  0.006  0.009
    4  0.000  0.000  0.010  0.010
    5  0.000  0.000  0.008  0.008
    6  0.002  0.000  0.008  0.010
    7  0.003  0.001  0.006  0.009
    8  0.002  0.000  0.008  0.010
    9  0.000  0.000  0.007  0.007
   10  0.006  0.000  0.033  0.039
   11  0.000  0.000  0.023  0.024
   12  0.001  0.000  0.044  0.045
   13  0.000  0.000  0.023  0.024
   14  0.000  0.000  0.040  0.040
   15  0.002  0.000  0.062  0.065
   16  0.001  0.000  0.044  0.045
   17  0.002  0.000  0.062  0.065
   18  0.009  0.000  0.006  0.015
   19  0.001  0.000  0.040  0.041
   20  0.007  0.000  0.007  0.015
   21  0.002  0.000  0.060  0.062
   22  0.000  0.000  0.021  0.021
   23  0.002  0.000  0.060  0.062
   24  0.000  0.000  0.034  0.034
   25  0.005  0.000  0.030  0.035
   26  0.001  0.000  0.040  0.041
   27  0.000  0.000  0.021  0.021
   28  0.000  0.000  0.012  0.012
   29  0.002  0.000  0.004  0.006
   30  0.000  0.000  0.006  0.007
   31  0.002  0.000  0.004  0.006
   32  0.001  0.000  0.005  0.007
   33  0.000  0.000  0.006  0.007
   34  0.001  0.000  0.005  0.007
   35  0.000  0.000  0.005  0.005
   36  0.000  0.000  0.001  0.001
   37  0.000  0.000  0.000  0.000
tot    0.058  0.007  0.778  0.843
 
band    14 # energy   -5.05495466 # occ.  2.00000000
 
ion      s      p      d    tot
    1  0.000  0.000  0.005  0.005
    2  0.004  0.000  0.006  0.011
    3  0.001  0.000  0.010  0.011
    4  0.004  0.000  0.006  0.011
    5  0.000  0.000  0.014  0.014
    6  0.001  0.000  0.008  0.010
    7  0.001  0.000  0.010  0.011
    8  0.001  0.000  0.008  0.010
    9  0.000  0.000  0.019  0.019
   10  0.006  0.000  0.016  0.022
   11  0.001  0.000  0.047  0.048
   12  0.002  0.000  0.037  0.038
   13  0.002  0.000  0.046  0.048
   14  0.006  0.000  0.015  0.021
   15  0.000  0.000  0.025  0.025
   16  0.001  0.000  0.037  0.039
   17  0.000  0.000  0.026  0.026
   18  0.000  0.000  0.044  0.044
   19  0.001  0.000  0.056  0.058
   20  0.001  0.000  0.046  0.047
   21  0.000  0.000  0.020  0.021
   22  0.003  0.000  0.062  0.065
   23  0.000  0.000  0.020  0.020
   24  0.013  0.000  0.015  0.028
   25  0.006  0.000  0.012  0.018
   26  0.002  0.000  0.055  0.057
   27  0.003  0.000  0.063  0.066
   28  0.000  0.000  0.004  0.004
   29  0.000  0.000  0.007  0.007
   30  0.001  0.000  0.002  0.003
   31  0.000  0.000  0.007  0.007
   32  0.001  0.001  0.006  0.008
   33  0.001  0.000  0.002  0.003
   34  0.001  0.001  0.006  0.008
   35  0.000  0.000  0.008  0.008
   36  0.000  0.000  0.001  0.001
   37  0.000  0.000  0.000  0.000
tot    0.065  0.008  0.768  0.841
 
band    15 # energy   -5.05492826 # occ.  2.00000000
 
ion      s      p      d    tot
    1  0.000  0.000  0.005  0.005
    2  0.000  0.000  0.010  0.010
    3  0.003  0.001  0.006  0.010
    4  0.000  0.000  0.010  0.010
    5  0.000  0.000  0.014  0.014
    6  0.003  0.000  0.008  0.011
    7  0.003  0.001  0.006  0.010
    8  0.003  0.000  0.008  0.011
    9  0.000  0.000  0.019  0.019
   10  0.000  0.000  0.044  0.044
   11  0.005  0.000  0.025  0.030
   12  0.004  0.000  0.023  0.028
   13  0.005  0.000  0.026  0.031
   14  0.000  0.000  0.057  0.057
   15  0.000  0.000  0.038  0.038
   16  0.005  0.000  0.023  0.027
   17  0.000  0.000  0.038  0.038
   18  0.000  0.000  0.019  0.019
   19  0.005  0.000  0.026  0.031
   20  0.000  0.000  0.011  0.012
   21  0.001  0.000  0.037  0.038
   22  0.010  0.000  0.031  0.041
   23  0.001  0.000  0.037  0.038
   24  0.000  0.000  0.078  0.078
   25  0.000  0.000  0.070  0.070
   26  0.005  0.000  0.027  0.032
   27  0.010  0.000  0.030  0.040
   28  0.000  0.000  0.004  0.004
   29  0.002  0.001  0.003  0.005
   30  0.000  0.000  0.008  0.009
   31  0.002  0.001  0.003  0.005
   32  0.000  0.000  0.003  0.004
   33  0.000  0.000  0.008  0.009
   34  0.000  0.000  0.004  0.004
   35  0.000  0.000  0.008  0.008
   36  0.000  0.000  0.001  0.001
   37  0.000  0.000  0.000  0.000
tot    0.065  0.008  0.768  0.841
 
band    16 # energy   -5.02905505 # occ.  2.00000000
 
ion      s      p      d    tot
    1  0.001  0.000  0.005  0.006
    2  0.002  0.000  0.011  0.013
    3  0.002  0.000  0.011  0.013
    4  0.002  0.000  0.011  0.013
    5  0.006  0.000  0.006  0.012
    6  0.002  0.000  0.011  0.013
    7  0.002  0.000  0.011  0.013
    8  0.002  0.000  0.011  0.013
    9  0.002  0.000  0.017  0.019
   10  0.002  0.000  0.003  0.006
   11  0.001  0.000  0.009  0.010
   12  0.002  0.000  0.004  0.006
   13  0.001  0.000  0.009  0.010
   14  0.001  0.000  0.009  0.010
   15  0.001  0.000  0.016  0.017
   16  0.002  0.000  0.004  0.006
   17  0.001  0.000  0.016  0.017
   18  0.001  0.000  0.016  0.017
   19  0.002  0.001  0.017  0.019
   20  0.004  0.001  0.030  0.034
   21  0.004  0.001  0.030  0.034
   22  0.000  0.001  0.022  0.023
   23  0.004  0.001  0.030  0.034
   24  0.000  0.001  0.022  0.023
   25  0.002  0.001  0.017  0.019
   26  0.002  0.001  0.017  0.019
   27  0.000  0.001  0.022  0.023
   28  0.009  0.000  0.019  0.028
   29  0.013  0.000  0.028  0.040
   30  0.013  0.000  0.028  0.040
   31  0.013  0.000  0.028  0.040
   32  0.013  0.000  0.028  0.040
   33  0.013  0.000  0.028  0.040
   34  0.013  0.000  0.028  0.040
   35  0.023  0.000  0.026  0.050
   36  0.007  0.000  0.001  0.009
   37  0.002  0.000  0.000  0.002
tot    0.170  0.009  0.594  0.773
 
band    17 # energy   -4.90923849 # occ.  2.00000000
 
ion      s      p      d    tot
    1  0.001  0.000  0.000  0.001
    2  0.000  0.000  0.008  0.008
    3  0.000  0.000  0.008  0.008
    4  0.000  0.000  0.008  0.008
    5  0.000  0.000  0.017  0.018
    6  0.000  0.000  0.008  0.008
    7  0.000  0.000  0.008  0.008
    8  0.000  0.000  0.008  0.008
    9  0.002  0.001  0.005  0.008
   10  0.000  0.000  0.014  0.015
   11  0.000  0.000  0.067  0.068
   12  0.000  0.000  0.014  0.015
   13  0.000  0.000  0.067  0.068
   14  0.000  0.000  0.067  0.067
   15  0.001  0.001  0.041  0.042
   16  0.000  0.000  0.014  0.015
   17  0.001  0.001  0.041  0.042
   18  0.001  0.001  0.041  0.042
   19  0.000  0.001  0.026  0.026
   20  0.001  0.000  0.067  0.068
   21  0.001  0.000  0.066  0.068
   22  0.002  0.000  0.016  0.018
   23  0.001  0.000  0.066  0.068
   24  0.002  0.000  0.016  0.018
   25  0.000  0.000  0.026  0.026
   26  0.000  0.001  0.026  0.026
   27  0.002  0.000  0.016  0.018
   28  0.008  0.001  0.000  0.010
   29  0.001  0.000  0.010  0.011
   30  0.001  0.000  0.010  0.011
   31  0.001  0.000  0.010  0.011
   32  0.001  0.000  0.010  0.011
   33  0.001  0.000  0.010  0.011
   34  0.001  0.000  0.010  0.011
   35  0.000  0.000  0.000  0.000
   36  0.000  0.000  0.002  0.003
   37  0.000  0.000  0.000  0.000
tot    0.029  0.013  0.822  0.864
 
band    18 # energy   -4.89936965 # occ.  2.00000000
 
ion      s      p      d    tot
    1  0.001  0.000  0.008  0.009
    2  0.000  0.000  0.011  0.012
    3  0.000  0.000  0.011  0.011
    4  0.000  0.000  0.011  0.012
    5  0.004  0.001  0.001  0.006
    6  0.000  0.000  0.011  0.011
    7  0.000  0.000  0.011  0.011
    8  0.000  0.000  0.011  0.011
    9  0.001  0.000  0.004  0.005
   10  0.001  0.001  0.060  0.063
   11  0.000  0.000  0.024  0.025
   12  0.001  0.001  0.059  0.061
   13  0.000  0.000  0.024  0.025
   14  0.000  0.000  0.023  0.024
   15  0.002  0.000  0.029  0.031
   16  0.001  0.001  0.059  0.061
   17  0.002  0.000  0.029  0.031
   18  0.002  0.000  0.029  0.031
   19  0.002  0.001  0.051  0.053
   20  0.001  0.000  0.016  0.017
   21  0.001  0.000  0.015  0.016
   22  0.000  0.001  0.044  0.045
   23  0.001  0.000  0.015  0.016
   24  0.000  0.001  0.043  0.044
   25  0.002  0.001  0.050  0.053
   26  0.002  0.001  0.051  0.053
   27  0.000  0.001  0.044  0.045
   28  0.000  0.000  0.010  0.011
   29  0.000  0.000  0.009  0.009
   30  0.000  0.000  0.009  0.009
   31  0.000  0.000  0.009  0.009
   32  0.000  0.000  0.009  0.009
   33  0.000  0.000  0.009  0.009
   34  0.000  0.000  0.009  0.009
   35  0.003  0.001  0.004  0.008
   36  0.002  0.000  0.000  0.002
   37  0.000  0.000  0.000  0.000
tot    0.030  0.016  0.810  0.856
 
band    19 # energy   -4.89694808 # occ.  2.00000000
 
ion      s      p      d    tot
    1  0.000  0.000  0.002  0.002
    2  0.002  0.001  0.006  0.008
    3  0.000  0.000  0.011  0.011
    4  0.001  0.001  0.007  0.009
    5  0.000  0.001  0.017  0.018
    6  0.000  0.000  0.007  0.008
    7  0.000  0.000  0.011  0.012
    8  0.001  0.000  0.006  0.007
    9  0.000  0.000  0.010  0.011
   10  0.000  0.001  0.022  0.023
   11  0.001  0.000  0.072  0.073
   12  0.000  0.000  0.044  0.044
   13  0.000  0.000  0.085  0.085
   14  0.002  0.000  0.046  0.048
   15  0.001  0.000  0.020  0.021
   16  0.000  0.001  0.037  0.038
   17  0.000  0.000  0.010  0.011
   18  0.002  0.001  0.041  0.044
   19  0.001  0.000  0.023  0.025
   20  0.002  0.000  0.037  0.040
   21  0.000  0.000  0.078  0.079
   22  0.000  0.000  0.025  0.025
   23  0.001  0.000  0.065  0.067
   24  0.000  0.001  0.020  0.021
   25  0.003  0.001  0.038  0.042
   26  0.000  0.000  0.016  0.016
   27  0.000  0.001  0.023  0.023
   28  0.000  0.000  0.011  0.012
   29  0.001  0.000  0.004  0.006
   30  0.000  0.000  0.007  0.007
   31  0.001  0.000  0.004  0.005
   32  0.001  0.001  0.006  0.008
   33  0.000  0.000  0.006  0.006
   34  0.002  0.001  0.005  0.007
   35  0.000  0.000  0.000  0.000
   36  0.000  0.001  0.001  0.002
   37  0.000  0.000  0.000  0.000
tot    0.025  0.015  0.823  0.863
 
band    20 # energy   -4.89694589 # occ.  2.00000000
 
ion      s      p      d    tot
    1  0.000  0.000  0.002  0.002
    2  0.000  0.000  0.010  0.010
    3  0.002  0.001  0.005  0.007
    4  0.000  0.000  0.008  0.009
    5  0.000  0.001  0.017  0.018
    6  0.001  0.001  0.009  0.010
    7  0.001  0.000  0.005  0.007
    8  0.001  0.001  0.010  0.011
    9  0.000  0.000  0.010  0.010
   10  0.000  0.000  0.046  0.047
   11  0.001  0.000  0.063  0.064
   12  0.000  0.001  0.026  0.026
   13  0.002  0.000  0.050  0.051
   14  0.000  0.000  0.089  0.090
   15  0.001  0.001  0.027  0.029
   16  0.000  0.001  0.032  0.033
   17  0.002  0.001  0.037  0.040
   18  0.000  0.000  0.006  0.006
   19  0.002  0.001  0.028  0.031
   20  0.000  0.000  0.083  0.083
   21  0.002  0.000  0.042  0.045
   22  0.000  0.001  0.020  0.021
   23  0.001  0.000  0.055  0.057
   24  0.000  0.000  0.025  0.025
   25  0.000  0.000  0.014  0.014
   26  0.003  0.001  0.035  0.039
   27  0.000  0.001  0.022  0.023
   28  0.000  0.000  0.011  0.012
   29  0.001  0.000  0.007  0.008
   30  0.002  0.001  0.004  0.006
   31  0.001  0.001  0.006  0.008
   32  0.000  0.000  0.005  0.006
   33  0.002  0.001  0.004  0.007
   34  0.000  0.000  0.006  0.006
   35  0.000  0.000  0.000  0.000
   36  0.000  0.001  0.001  0.002
   37  0.000  0.000  0.000  0.000
tot    0.025  0.015  0.823  0.863
 
band    21 # energy   -4.89025889 # occ.  2.00000000
 
ion      s      p      d    tot
    1  0.000  0.001  0.017  0.018
    2  0.002  0.001  0.006  0.009
    3  0.000  0.000  0.011  0.012
    4  0.002  0.001  0.007  0.009
    5  0.000  0.000  0.001  0.001
    6  0.001  0.000  0.006  0.007
    7  0.000  0.000  0.011  0.012
    8  0.001  0.000  0.006  0.007
    9  0.000  0.000  0.010  0.010
   10  0.000  0.000  0.044  0.044
   11  0.000  0.001  0.023  0.025
   12  0.002  0.000  0.051  0.053
   13  0.000  0.001  0.026  0.027
   14  0.000  0.000  0.007  0.007
   15  0.001  0.000  0.045  0.046
   16  0.002  0.000  0.050  0.052
   17  0.001  0.000  0.040  0.041
   18  0.000  0.000  0.089  0.090
   19  0.000  0.000  0.034  0.035
   20  0.000  0.000  0.001  0.001
   21  0.001  0.001  0.025  0.026
   22  0.003  0.000  0.046  0.049
   23  0.001  0.001  0.022  0.024
   24  0.000  0.000  0.053  0.053
   25  0.000  0.000  0.064  0.064
   26  0.000  0.000  0.030  0.031
   27  0.002  0.000  0.047  0.050
   28  0.000  0.000  0.005  0.005
   29  0.001  0.000  0.004  0.005
   30  0.000  0.000  0.008  0.008
   31  0.001  0.000  0.004  0.005
   32  0.001  0.001  0.005  0.007
   33  0.000  0.000  0.007  0.008
   34  0.001  0.001  0.005  0.007
   35  0.000  0.001  0.017  0.017
   36  0.000  0.000  0.000  0.001