PROCAR new format
# of k-points:   10         # of bands:  252         # of ions:   37

 k-point     1 :    0.00000000 0.00000000 0.00000000     weight = 0.01562500

band     1 # energy   -6.40853502 # occ.  2.00000000
 
ion      s      p      d    tot
    1  0.006  0.001  0.000  0.006
    2  0.005  0.001  0.000  0.006
    3  0.005  0.001  0.000  0.006
    4  0.005  0.001  0.000  0.006
    5  0.005  0.001  0.000  0.006
    6  0.005  0.001  0.000  0.006
    7  0.005  0.001  0.000  0.006
    8  0.005  0.001  0.000  0.006
    9  0.005  0.001  0.000  0.006
   10  0.022  0.000  0.000  0.023
   11  0.022  0.000  0.000  0.023
   12  0.022  0.000  0.000  0.023
   13  0.022  0.000  0.000  0.023
   14  0.022  0.000  0.000  0.023
   15  0.021  0.000  0.000  0.022
   16  0.022  0.000  0.000  0.023
   17  0.021  0.000  0.000  0.022
   18  0.021  0.000  0.000  0.022
   19  0.022  0.000  0.000  0.022
   20  0.027  0.000  0.001  0.028
   21  0.027  0.000  0.001  0.028
   22  0.022  0.000  0.000  0.022
   23  0.027  0.000  0.001  0.028
   24  0.022  0.000  0.000  0.022
   25  0.022  0.000  0.000  0.022
   26  0.022  0.000  0.000  0.022
   27  0.022  0.000  0.000  0.022
   28  0.005  0.001  0.000  0.006
   29  0.006  0.001  0.000  0.007
   30  0.006  0.001  0.000  0.007
   31  0.006  0.001  0.000  0.007
   32  0.006  0.001  0.000  0.007
   33  0.006  0.001  0.000  0.007
   34  0.006  0.001  0.000  0.007
   35  0.005  0.001  0.000  0.006
   36  0.020  0.001  0.001  0.022
   37  0.002  0.000  0.000  0.002
tot    0.529  0.012  0.008  0.550
 
band     2 # energy   -5.56417251 # occ.  2.00000000
 
ion      s      p      d    tot
    1  0.008  0.000  0.001  0.009
    2  0.009  0.000  0.001  0.010
    3  0.009  0.000  0.001  0.010
    4  0.009  0.000  0.001  0.010
    5  0.010  0.000  0.000  0.011
    6  0.009  0.000  0.001  0.010
    7  0.009  0.000  0.001  0.010
    8  0.009  0.000  0.001  0.010
    9  0.010  0.001  0.000  0.011
   10  0.011  0.001  0.014  0.025
   11  0.012  0.001  0.010  0.023
   12  0.011  0.001  0.014  0.025
   13  0.012  0.001  0.010  0.023
   14  0.012  0.001  0.010  0.023
   15  0.014  0.001  0.010  0.024
   16  0.011  0.001  0.014  0.025
   17  0.014  0.001  0.010  0.024
   18  0.014  0.001  0.010  0.025
   19  0.007  0.001  0.011  0.018
   20  0.014  0.002  0.013  0.029
   21  0.014  0.002  0.013  0.029
   22  0.006  0.001  0.010  0.016
   23  0.014  0.002  0.013  0.029
   24  0.006  0.001  0.010  0.016
   25  0.007  0.001  0.010  0.018
   26  0.007  0.001  0.011  0.018
   27  0.006  0.001  0.010  0.016
   28  0.006  0.000  0.001  0.007
   29  0.009  0.000  0.002  0.011
   30  0.009  0.000  0.002  0.011
   31  0.009  0.000  0.002  0.011
   32  0.009  0.000  0.002  0.011
   33  0.009  0.000  0.002  0.011
   34  0.009  0.000  0.002  0.011
   35  0.005  0.000  0.001  0.006
   36  0.046  0.000  0.002  0.048
   37  0.007  0.000  0.000  0.007
tot    0.390  0.028  0.221  0.639
 
band     3 # energy   -5.27311848 # occ.  2.00000000
 
ion      s      p      d    tot
    1  0.001  0.000  0.015  0.016
    2  0.004  0.000  0.008  0.013
    3  0.004  0.000  0.008  0.013
    4  0.004  0.000  0.008  0.013
    5  0.005  0.000  0.006  0.011
    6  0.004  0.000  0.008  0.013
    7  0.004  0.000  0.008  0.013
    8  0.004  0.000  0.008  0.013
    9  0.007  0.000  0.007  0.014
   10  0.003  0.000  0.019  0.023
   11  0.001  0.000  0.024  0.025
   12  0.003  0.000  0.019  0.023
   13  0.001  0.000  0.024  0.025
   14  0.001  0.000  0.024  0.025
   15  0.000  0.000  0.021  0.021
   16  0.003  0.000  0.019  0.023
   17  0.000  0.000  0.021  0.021
   18  0.000  0.000  0.021  0.021
   19  0.004  0.000  0.024  0.028
   20  0.000  0.001  0.049  0.050
   21  0.000  0.001  0.049  0.050
   22  0.007  0.000  0.018  0.026
   23  0.000  0.001  0.049  0.050
   24  0.007  0.000  0.018  0.026
   25  0.004  0.000  0.024  0.028
   26  0.004  0.000  0.024  0.028
   27  0.007  0.000  0.018  0.026
   28  0.001  0.000  0.013  0.014
   29  0.004  0.000  0.012  0.017
   30  0.004  0.000  0.012  0.017
   31  0.004  0.000  0.012  0.017
   32  0.004  0.000  0.012  0.017
   33  0.004  0.000  0.012  0.017
   34  0.004  0.000  0.012  0.017
   35  0.000  0.000  0.009  0.010
   36  0.045  0.000  0.000  0.046
   37  0.005  0.000  0.000  0.006
tot    0.161  0.007  0.643  0.810
 
band     4 # energy   -5.17057289 # occ.  2.00000000
 
ion      s      p      d    tot
    1  0.025  0.001  0.009  0.034
    2  0.010  0.000  0.020  0.031
    3  0.010  0.000  0.020  0.031
    4  0.010  0.000  0.020  0.031
    5  0.007  0.000  0.023  0.030
    6  0.010  0.000  0.020  0.031
    7  0.010  0.000  0.020  0.031
    8  0.010  0.000  0.020  0.031
    9  0.005  0.000  0.022  0.027
   10  0.001  0.000  0.037  0.039
   11  0.000  0.000  0.016  0.017
   12  0.001  0.000  0.037  0.039
   13  0.000  0.000  0.016  0.017
   14  0.000  0.000  0.016  0.017
   15  0.006  0.001  0.005  0.012
   16  0.001  0.000  0.037  0.039
   17  0.006  0.001  0.005  0.012
   18  0.006  0.001  0.005  0.012
   19  0.002  0.000  0.021  0.023
   20  0.002  0.000  0.039  0.042
   21  0.002  0.000  0.039  0.041
   22  0.011  0.000  0.000  0.011
   23  0.002  0.000  0.039  0.041
   24  0.011  0.000  0.000  0.011
   25  0.002  0.000  0.021  0.023
   26  0.002  0.000  0.021  0.023
   27  0.011  0.000  0.000  0.011
   28  0.003  0.000  0.001  0.004
   29  0.000  0.000  0.004  0.005
   30  0.000  0.000  0.004  0.005
   31  0.000  0.000  0.004  0.005
   32  0.000  0.000  0.004  0.005
   33  0.000  0.000  0.004  0.005
   34  0.000  0.000  0.004  0.005
   35  0.005  0.001  0.000  0.006
   36  0.015  0.001  0.007  0.023
   37  0.004  0.000  0.000  0.004
tot    0.195  0.014  0.564  0.772
 
band     5 # energy   -5.09421257 # occ.  2.00000000
 
ion      s      p      d    tot
    1  0.000  0.000  0.003  0.003
    2  0.002  0.001  0.006  0.008
    3  0.001  0.000  0.003  0.004
    4  0.002  0.001  0.006  0.009
    5  0.000  0.000  0.009  0.010
    6  0.000  0.000  0.005  0.005
    7  0.000  0.000  0.003  0.003
    8  0.000  0.000  0.004  0.004
    9  0.000  0.000  0.002  0.002
   10  0.000  0.000  0.085  0.086
   11  0.025  0.001  0.026  0.052
   12  0.004  0.001  0.038  0.043
   13  0.021  0.001  0.036  0.057
   14  0.000  0.001  0.086  0.087
   15  0.008  0.000  0.033  0.042
   16  0.004  0.001  0.030  0.035
   17  0.007  0.001  0.029  0.037
   18  0.000  0.002  0.008  0.009
   19  0.001  0.000  0.020  0.021
   20  0.000  0.001  0.018  0.020
   21  0.008  0.001  0.026  0.035
   22  0.012  0.001  0.019  0.032
   23  0.009  0.001  0.028  0.037
   24  0.000  0.000  0.044  0.044
   25  0.000  0.000  0.037  0.037
   26  0.001  0.000  0.022  0.023
   27  0.014  0.001  0.015  0.029
   28  0.000  0.000  0.001  0.001
   29  0.000  0.000  0.002  0.002
   30  0.001  0.000  0.003  0.004
   31  0.000  0.000  0.002  0.002
   32  0.001  0.000  0.003  0.004
   33  0.001  0.000  0.003  0.004
   34  0.001  0.000  0.003  0.004
   35  0.000  0.000  0.007  0.007
   36  0.000  0.000  0.002  0.002
   37  0.000  0.000  0.000  0.000
tot    0.122  0.017  0.666  0.805
 
band     6 # energy   -5.09421083 # occ.  2.00000000
 
ion      s      p      d    tot
    1  0.000  0.000  0.003  0.003
    2  0.000  0.000  0.003  0.003
    3  0.001  0.000  0.006  0.007
    4  0.000  0.000  0.003  0.003
    5  0.000  0.000  0.009  0.010
    6  0.001  0.001  0.004  0.006
    7  0.001  0.000  0.006  0.008
    8  0.001  0.001  0.005  0.007
    9  0.000  0.000  0.002  0.002
   10  0.005  0.001  0.017  0.023
   11  0.006  0.001  0.073  0.079
   12  0.002  0.000  0.064  0.066
   13  0.010  0.001  0.063  0.074
   14  0.030  0.001  0.012  0.044
   15  0.002  0.001  0.013  0.016
   16  0.001  0.000  0.072  0.074
   17  0.003  0.001  0.017  0.022
   18  0.010  0.000  0.040  0.050
   19  0.000  0.000  0.033  0.033
   20  0.011  0.001  0.030  0.042
   21  0.003  0.001  0.022  0.026
   22  0.005  0.001  0.033  0.039
   23  0.002  0.001  0.020  0.024
   24  0.017  0.001  0.008  0.026
   25  0.001  0.000  0.016  0.017
   26  0.000  0.000  0.030  0.031
   27  0.003  0.000  0.037  0.041
   28  0.000  0.000  0.001  0.001
   29  0.001  0.000  0.003  0.005
   30  0.000  0.000  0.002  0.003
   31  0.001  0.000  0.003  0.005
   32  0.000  0.000  0.002  0.003
   33  0.000  0.000  0.002  0.002
   34  0.000  0.000  0.002  0.002
   35  0.000  0.000  0.007  0.007
   36  0.000  0.000  0.002  0.002
   37  0.000  0.000  0.000  0.000
tot    0.122  0.017  0.666  0.805
 
band     7 # energy   -5.09057443 # occ.  2.00000000
 
ion      s      p      d    tot
    1  0.001  0.000  0.000  0.001
    2  0.000  0.000  0.006  0.006
    3  0.000  0.000  0.006  0.006
    4  0.000  0.000  0.006  0.006
    5  0.005  0.001  0.005  0.011
    6  0.000  0.000  0.006  0.006
    7  0.000  0.000  0.006  0.006
    8  0.000  0.000  0.006  0.006
    9  0.001  0.000  0.004  0.006
   10  0.008  0.001  0.004  0.013
   11  0.014  0.001  0.042  0.056
   12  0.008  0.001  0.004  0.013
   13  0.014  0.001  0.042  0.056
   14  0.014  0.001  0.041  0.056
   15  0.001  0.000  0.057  0.059
   16  0.008  0.001  0.004  0.013
   17  0.001  0.000  0.057  0.059
   18  0.001  0.000  0.056  0.058
   19  0.010  0.001  0.027  0.038
   20  0.005  0.001  0.014  0.020
   21  0.005  0.001  0.014  0.020
   22  0.001  0.000  0.051  0.052
   23  0.005  0.001  0.014  0.020
   24  0.001  0.000  0.051  0.052
   25  0.010  0.001  0.028  0.039
   26  0.010  0.001  0.027  0.038
   27  0.001  0.000  0.051  0.052
   28  0.004  0.001  0.004  0.009
   29  0.000  0.000  0.003  0.003
   30  0.000  0.000  0.003  0.003
   31  0.000  0.000  0.003  0.003
   32  0.000  0.000  0.003  0.003
   33  0.000  0.000  0.003  0.003
   34  0.000  0.000  0.003  0.003
   35  0.002  0.001  0.005  0.008
   36  0.000  0.000  0.000  0.000
   37  0.000  0.000  0.000  0.000
tot    0.130  0.017  0.654  0.801
 
band     8 # energy   -5.08801804 # occ.  2.00000000
 
ion      s      p      d    tot
    1  0.000  0.000  0.008  0.008
    2  0.001  0.000  0.005  0.007
    3  0.000  0.000  0.003  0.003
    4  0.001  0.000  0.005  0.007
    5  0.000  0.000  0.001  0.001
    6  0.000  0.000  0.003  0.004
    7  0.000  0.000  0.003  0.003
    8  0.000  0.000  0.003  0.004
    9  0.000  0.000  0.007  0.007
   10  0.022  0.001  0.027  0.049
   11  0.000  0.001  0.036  0.037
   12  0.006  0.001  0.024  0.031
   13  0.000  0.001  0.036  0.037
   14  0.000  0.000  0.030  0.031
   15  0.004  0.000  0.066  0.070
   16  0.005  0.001  0.024  0.030
   17  0.004  0.000  0.065  0.069
   18  0.017  0.001  0.006  0.023
   19  0.005  0.001  0.026  0.032
   20  0.015  0.001  0.009  0.024
   21  0.004  0.000  0.059  0.063
   22  0.000  0.001  0.032  0.033
   23  0.004  0.000  0.060  0.064
   24  0.001  0.000  0.028  0.029
   25  0.019  0.001  0.023  0.043
   26  0.005  0.001  0.026  0.032
   27  0.000  0.001  0.033  0.034
   28  0.000  0.000  0.005  0.005
   29  0.000  0.000  0.002  0.002
   30  0.001  0.000  0.003  0.005
   31  0.000  0.000  0.002  0.002
   32  0.000  0.000  0.003  0.003
   33  0.001  0.000  0.003  0.005
   34  0.000  0.000  0.003  0.003
   35  0.000  0.000  0.001  0.001
   36  0.000  0.000  0.003  0.003
   37  0.000  0.000  0.000  0.000
tot    0.115  0.016  0.675  0.806
 
band     9 # energy   -5.08799757 # occ.  2.00000000
 
ion      s      p      d    tot
    1  0.000  0.000  0.008  0.008
    2  0.000  0.000  0.003  0.003
    3  0.001  0.000  0.005  0.006
    4  0.000  0.000  0.003  0.003
    5  0.000  0.000  0.001  0.001
    6  0.001  0.000  0.004  0.005
    7  0.001  0.000  0.005  0.006
    8  0.001  0.000  0.004  0.005
    9  0.000  0.000  0.007  0.007
   10  0.000  0.001  0.023  0.024
   11  0.000  0.000  0.032  0.033
   12  0.016  0.001  0.026  0.043
   13  0.000  0.000  0.032  0.033
   14  0.000  0.001  0.037  0.039
   15  0.013  0.001  0.025  0.038
   16  0.016  0.001  0.026  0.043
   17  0.012  0.001  0.026  0.039
   18  0.000  0.000  0.085  0.085
   19  0.014  0.001  0.024  0.039
   20  0.000  0.000  0.077  0.077
   21  0.011  0.001  0.026  0.038
   22  0.000  0.000  0.030  0.031
   23  0.011  0.001  0.025  0.037
   24  0.000  0.001  0.033  0.035
   25  0.000  0.001  0.027  0.029
   26  0.014  0.001  0.024  0.039
   27  0.000  0.000  0.030  0.031
   28  0.000  0.000  0.005  0.005
   29  0.001  0.000  0.003  0.004
   30  0.000  0.000  0.002  0.002
   31  0.001  0.000  0.003  0.004
   32  0.000  0.000  0.003  0.003
   33  0.000  0.000  0.002  0.002
   34  0.000  0.000  0.003  0.003
   35  0.000  0.000  0.001  0.001
   36  0.000  0.000  0.003  0.003
   37  0.000  0.000  0.000  0.000
tot    0.115  0.016  0.675  0.806
 
band    10 # energy   -5.07416871 # occ.  2.00000000
 
ion      s      p      d    tot
    1  0.001  0.000  0.003  0.004
    2  0.001  0.000  0.008  0.009
    3  0.001  0.000  0.008  0.009
    4  0.001  0.000  0.008  0.009
    5  0.003  0.000  0.009  0.012
    6  0.001  0.000  0.008  0.009
    7  0.001  0.000  0.008  0.009
    8  0.001  0.000  0.008  0.009
    9  0.000  0.000  0.000  0.000
   10  0.000  0.001  0.011  0.012
   11  0.003  0.000  0.030  0.033
   12  0.000  0.001  0.011  0.012
   13  0.003  0.000  0.030  0.033
   14  0.003  0.000  0.030  0.033
   15  0.001  0.000  0.039  0.040
   16  0.000  0.001  0.011  0.012
   17  0.001  0.000  0.039  0.040
   18  0.001  0.000  0.039  0.040
   19  0.008  0.001  0.012  0.021
   20  0.001  0.001  0.060  0.061
   21  0.001  0.001  0.059  0.061
   22  0.004  0.000  0.056  0.061
   23  0.001  0.001  0.059  0.061
   24  0.004  0.000  0.056  0.061
   25  0.008  0.001  0.012  0.021
   26  0.008  0.001  0.012  0.021
   27  0.004  0.000  0.056  0.061
   28  0.000  0.000  0.006  0.007
   29  0.001  0.000  0.008  0.009
   30  0.001  0.000  0.008  0.009
   31  0.001  0.000  0.008  0.009
   32  0.001  0.000  0.008  0.009
   33  0.001  0.000  0.008  0.009
   34  0.001  0.000  0.008  0.009
   35  0.002  0.000  0.002  0.004
   36  0.006  0.000  0.005  0.011
   37  0.000  0.000  0.000  0.000
tot    0.075  0.010  0.744  0.829
 
band    11 # energy   -5.06211542 # occ.  2.00000000
 
ion      s      p      d    tot
    1  0.000  0.000  0.019  0.019
    2  0.000  0.000  0.009  0.010
    3  0.000  0.000  0.009  0.010
    4  0.000  0.000  0.009  0.010
    5  0.002  0.000  0.001  0.003
    6  0.000  0.000  0.009  0.010
    7  0.000  0.000  0.009  0.010
    8  0.000  0.000  0.009  0.010
    9  0.004  0.001  0.003  0.008
   10  0.002  0.000  0.091  0.093
   11  0.003  0.000  0.037  0.040
   12  0.002  0.000  0.091  0.093
   13  0.003  0.000  0.037  0.040
   14  0.003  0.000  0.037  0.040
   15  0.008  0.001  0.016  0.025
   16  0.002  0.000  0.091  0.093
   17  0.008  0.001  0.016  0.025
   18  0.008  0.001  0.016  0.025
   19  0.000  0.000  0.030  0.030
   20  0.000  0.000  0.030  0.031
   21  0.000  0.000  0.030  0.031
   22  0.001  0.000  0.017  0.018
   23  0.000  0.000  0.030  0.031
   24  0.001  0.000  0.017  0.018
   25  0.000  0.000  0.030  0.030
   26  0.000  0.000  0.030  0.030
   27  0.001  0.000  0.017  0.018
   28  0.004  0.000  0.004  0.008
   29  0.000  0.000  0.006  0.006
   30  0.000  0.000  0.006  0.006
   31  0.000  0.000  0.006  0.006
   32  0.000  0.000  0.006  0.006
   33  0.000  0.000  0.006  0.006
   34  0.000  0.000  0.006  0.006
   35  0.000  0.000  0.004  0.005
   36  0.000  0.000  0.002  0.003
   37  0.000  0.000  0.000  0.000
tot    0.056  0.007  0.782  0.846
 
band    12 # energy   -5.04702981 # occ.  2.00000000
 
ion      s      p      d    tot
    1  0.000  0.000  0.019  0.019
    2  0.003  0.000  0.006  0.010
    3  0.000  0.000  0.010  0.011
    4  0.003  0.000  0.006  0.010
    5  0.000  0.000  0.010  0.010
    6  0.002  0.001  0.008  0.010
    7  0.000  0.000  0.010  0.011
    8  0.002  0.001  0.008  0.010
    9  0.000  0.000  0.006  0.006
   10  0.000  0.000  0.047  0.047
   11  0.001  0.000  0.035  0.035
   12  0.003  0.000  0.036  0.040
   13  0.001  0.000  0.034  0.035
   14  0.000  0.000  0.022  0.022
   15  0.007  0.000  0.024  0.031
   16  0.003  0.000  0.036  0.040
   17  0.007  0.000  0.024  0.031
   18  0.000  0.000  0.075  0.075
   19  0.004  0.000  0.033  0.036
   20  0.000  0.000  0.081  0.081
   21  0.007  0.000  0.024  0.031
   22  0.001  0.000  0.029  0.030
   23  0.007  0.000  0.024  0.031
   24  0.000  0.000  0.022  0.022
   25  0.000  0.000  0.035  0.035
   26  0.004  0.000  0.033  0.036
   27  0.001  0.000  0.029  0.030
   28  0.000  0.000  0.011  0.011
   29  0.000  0.000  0.006  0.006
   30  0.002  0.000  0.004  0.006
   31  0.000  0.000  0.006  0.006
   32  0.001  0.000  0.005  0.007
   33  0.002  0.000  0.004  0.006
   34  0.001  0.000  0.005  0.007
   35  0.000  0.000  0.005  0.005
   36  0.000  0.001  0.002  0.003
   37  0.000  0.000  0.000  0.000
tot    0.062  0.008  0.771  0.841
 
band    13 # energy   -5.04698216 # occ.  2.00000000
 
ion      s      p      d    tot
    1  0.000  0.000  0.019  0.019
    2  0.000  0.000  0.010  0.011
    3  0.003  0.001  0.006  0.010
    4  0.000  0.000  0.010  0.011
    5  0.000  0.000  0.010  0.010
    6  0.002  0.000  0.009  0.011
    7  0.003  0.001  0.006  0.010
    8  0.002  0.000  0.009  0.011
    9  0.000  0.000  0.006  0.006
   10  0.005  0.000  0.032  0.037
   11  0.000  0.000  0.026  0.026
   12  0.001  0.000  0.043  0.045
   13  0.000  0.000  0.026  0.026
   14  0.001  0.000  0.039  0.040
   15  0.002  0.000  0.058  0.060
   16  0.001  0.000  0.043  0.045
   17  0.002  0.000  0.058  0.060
   18  0.009  0.000  0.007  0.016
   19  0.001  0.000  0.034  0.035
   20  0.010  0.000  0.005  0.015
   21  0.002  0.000  0.062  0.065
   22  0.000  0.000  0.024  0.025
   23  0.002  0.000  0.062  0.065
   24  0.001  0.000  0.031  0.032
   25  0.005  0.000  0.032  0.037
   26  0.001  0.000  0.034  0.035
   27  0.000  0.000  0.024  0.025
   28  0.000  0.000  0.011  0.011
   29  0.002  0.001  0.004  0.006
   30  0.000  0.000  0.006  0.007
   31  0.002  0.001  0.004  0.006
   32  0.001  0.000  0.005  0.006
   33  0.000  0.000  0.006  0.007
   34  0.001  0.000  0.005  0.006
   35  0.000  0.000  0.005  0.005
   36  0.000  0.001  0.002  0.003
   37  0.000  0.000  0.000  0.000
tot    0.062  0.008  0.771  0.842
 
band    14 # energy   -5.04042601 # occ.  2.00000000
 
ion      s      p      d    tot
    1  0.000  0.000  0.005  0.006
    2  0.004  0.000  0.006  0.011
    3  0.001  0.000  0.009  0.010
    4  0.004  0.000  0.006  0.011
    5  0.000  0.000  0.012  0.012
    6  0.001  0.000  0.008  0.009
    7  0.001  0.000  0.010  0.010
    8  0.001  0.000  0.008  0.009
    9  0.000  0.000  0.021  0.021
   10  0.005  0.000  0.018  0.023
   11  0.001  0.000  0.040  0.041
   12  0.001  0.000  0.030  0.031
   13  0.001  0.000  0.039  0.041
   14  0.005  0.000  0.013  0.018
   15  0.000  0.000  0.027  0.027
   16  0.001  0.000  0.030  0.031
   17  0.000  0.000  0.027  0.027
   18  0.000  0.000  0.041  0.041
   19  0.002  0.000  0.065  0.067
   20  0.001  0.000  0.047  0.048
   21  0.000  0.000  0.019  0.020
   22  0.004  0.000  0.063  0.067
   23  0.000  0.000  0.019  0.019
   24  0.015  0.000  0.017  0.032
   25  0.008  0.000  0.010  0.018
   26  0.002  0.000  0.064  0.066
   27  0.004  0.000  0.064  0.068
   28  0.000  0.000  0.004  0.005
   29  0.000  0.000  0.007  0.007
   30  0.002  0.000  0.002  0.004
   31  0.000  0.000  0.007  0.007
   32  0.001  0.001  0.006  0.008
   33  0.002  0.000  0.002  0.004
   34  0.001  0.001  0.006  0.008
   35  0.000  0.000  0.009  0.009
   36  0.000  0.000  0.002  0.002
   37  0.000  0.000  0.000  0.000
tot    0.068  0.008  0.763  0.839
 
band    15 # energy   -5.04038253 # occ.  2.00000000
 
ion      s      p      d    tot
    1  0.000  0.000  0.005  0.006
    2  0.000  0.000  0.009  0.010
    3  0.003  0.001  0.006  0.010
    4  0.000  0.000  0.009  0.010
    5  0.000  0.000  0.012  0.012
    6  0.002  0.000  0.008  0.011
    7  0.003  0.001  0.006  0.010
    8  0.003  0.000  0.008  0.011
    9  0.000  0.000  0.021  0.021
   10  0.000  0.000  0.034  0.034
   11  0.004  0.000  0.022  0.025
   12  0.004  0.000  0.022  0.026
   13  0.004  0.000  0.022  0.026
   14  0.000  0.000  0.049  0.049
   15  0.000  0.000  0.036  0.037
   16  0.004  0.000  0.022  0.026
   17  0.000  0.000  0.036  0.036
   18  0.000  0.000  0.022  0.022
   19  0.006  0.000  0.028  0.034
   20  0.000  0.000  0.010  0.010
   21  0.001  0.000  0.038  0.038
   22  0.011  0.000  0.033  0.044
   23  0.001  0.000  0.038  0.039
   24  0.000  0.000  0.079  0.079
   25  0.000  0.000  0.083  0.083
   26  0.006  0.000  0.029  0.035
   27  0.011  0.000  0.032  0.044
   28  0.000  0.000  0.004  0.005
   29  0.002  0.001  0.003  0.006
   30  0.000  0.000  0.008  0.009
   31  0.002  0.001  0.003  0.006
   32  0.001  0.000  0.004  0.005
   33  0.000  0.000  0.008  0.009
   34  0.001  0.000  0.004  0.005
   35  0.000  0.000  0.009  0.009
   36  0.000  0.000  0.002  0.002
   37  0.000  0.000  0.000  0.000
tot    0.068  0.008  0.764  0.839
 
band    16 # energy   -5.03157352 # occ.  2.00000000
 
ion      s      p      d    tot
    1  0.000  0.000  0.007  0.008
    2  0.002  0.000  0.013  0.015
    3  0.002  0.000  0.013  0.015
    4  0.002  0.000  0.013  0.015
    5  0.004  0.000  0.001  0.005
    6  0.002  0.000  0.013  0.015
    7  0.002  0.000  0.013  0.015
    8  0.002  0.000  0.013  0.015
    9  0.008  0.000  0.021  0.028
   10  0.006  0.000  0.006  0.011
   11  0.000  0.000  0.010  0.010
   12  0.006  0.000  0.006  0.011
   13  0.000  0.000  0.010  0.010
   14  0.000  0.000  0.010  0.010
   15  0.000  0.000  0.033  0.033
   16  0.006  0.000  0.006  0.011
   17  0.000  0.000  0.033  0.033
   18  0.000  0.000  0.033  0.033
   19  0.000  0.001  0.026  0.027
   20  0.006  0.000  0.021  0.028
   21  0.006  0.000  0.021  0.028
   22  0.000  0.000  0.035  0.035
   23  0.006  0.000  0.021  0.028
   24  0.000  0.000  0.035  0.035
   25  0.000  0.001  0.026  0.027
   26  0.000  0.001  0.026  0.027
   27  0.000  0.000  0.035  0.035
   28  0.009  0.000  0.003  0.013
   29  0.009  0.000  0.019  0.027
   30  0.009  0.000  0.019  0.027
   31  0.009  0.000  0.019  0.027
   32  0.009  0.000  0.019  0.027
   33  0.009  0.000  0.019  0.027
   34  0.009  0.000  0.019  0.027
   35  0.014  0.000  0.030  0.044
   36  0.005  0.001  0.008  0.013
   37  0.000  0.000  0.000  0.000
tot    0.140  0.008  0.651  0.800
 
band    17 # energy   -4.89359675 # occ.  2.00000000
 
ion      s      p      d    tot
    1  0.000  0.000  0.000  0.001
    2  0.000  0.000  0.007  0.007
    3  0.000  0.000  0.007  0.007
    4  0.000  0.000  0.007  0.007
    5  0.000  0.000  0.016  0.016
    6  0.000  0.000  0.007  0.007
    7  0.000  0.000  0.007  0.007
    8  0.000  0.000  0.007  0.007
    9  0.001  0.000  0.007  0.008
   10  0.000  0.000  0.009  0.009
   11  0.000  0.000  0.068  0.069
   12  0.000  0.000  0.008  0.009
   13  0.000  0.000  0.068  0.069
   14  0.000  0.000  0.068  0.068
   15  0.001  0.001  0.045  0.047
   16  0.000  0.000  0.008  0.009
   17  0.001  0.001  0.045  0.047
   18  0.001  0.001  0.045  0.047
   19  0.000  0.000  0.021  0.022
   20  0.001  0.000  0.060  0.061
   21  0.001  0.000  0.060  0.061
   22  0.003  0.001  0.018  0.021
   23  0.001  0.000  0.060  0.061
   24  0.003  0.001  0.017  0.021
   25  0.000  0.000  0.021  0.022
   26  0.000  0.000  0.021  0.022
   27  0.003  0.001  0.018  0.021
   28  0.010  0.001  0.003  0.014
   29  0.001  0.000  0.011  0.013
   30  0.001  0.000  0.011  0.013
   31  0.001  0.000  0.011  0.013
   32  0.001  0.000  0.011  0.013
   33  0.001  0.000  0.011  0.013
   34  0.001  0.000  0.011  0.013
   35  0.000  0.000  0.000  0.000
   36  0.001  0.000  0.008  0.010
   37  0.001  0.000  0.000  0.001
tot    0.040  0.014  0.803  0.858
 
band    18 # energy   -4.88180131 # occ.  2.00000000
 
ion      s      p      d    tot
    1  0.000  0.000  0.008  0.008
    2  0.000  0.001  0.012  0.012
    3  0.000  0.000  0.011  0.012
    4  0.000  0.001  0.012  0.012
    5  0.004  0.001  0.001  0.006
    6  0.000  0.001  0.012  0.012
    7  0.000  0.000  0.011  0.012
    8  0.000  0.001  0.012  0.012
    9  0.002  0.000  0.001  0.004
   10  0.002  0.001  0.056  0.059
   11  0.000  0.001  0.033  0.034
   12  0.002  0.001  0.053  0.056
   13  0.000  0.001  0.033  0.034
   14  0.000  0.001  0.032  0.033
   15  0.002  0.000  0.020  0.022
   16  0.002  0.001  0.053  0.056
   17  0.002  0.000  0.020  0.022
   18  0.002  0.000  0.019  0.021
   19  0.002  0.001  0.055  0.057
   20  0.001  0.000  0.015  0.016
   21  0.001  0.000  0.013  0.014
   22  0.000  0.001  0.039  0.040
   23  0.001  0.000  0.013  0.014
   24  0.000  0.001  0.038  0.039
   25  0.002  0.001  0.053  0.056
   26  0.002  0.001  0.055  0.057
   27  0.000  0.001  0.039  0.040
   28  0.000  0.000  0.015  0.016
   29  0.000  0.000  0.010  0.011
   30  0.000  0.000  0.010  0.010
   31  0.000  0.000  0.010  0.011
   32  0.000  0.000  0.009  0.010
   33  0.000  0.000  0.010  0.010
   34  0.000  0.000  0.009  0.010
   35  0.006  0.001  0.001  0.008
   36  0.002  0.000  0.001  0.003
   37  0.000  0.000  0.000  0.000
tot    0.038  0.017  0.794  0.850
 
band    19 # energy   -4.88072386 # occ.  2.00000000
 
ion      s      p      d    tot
    1  0.000  0.000  0.002  0.002
    2  0.001  0.001  0.009  0.011
    3  0.000  0.000  0.010  0.010
    4  0.001  0.001  0.009  0.011
    5  0.000  0.001  0.013  0.013
    6  0.002  0.001  0.005  0.007
    7  0.000  0.000  0.010  0.010
    8  0.002  0.001  0.005  0.007
    9  0.000  0.001  0.017  0.018
   10  0.000  0.001  0.028  0.030
   11  0.000  0.000  0.076  0.077
   12  0.000  0.000  0.015  0.015
   13  0.000  0.000  0.076  0.077
   14  0.002  0.000  0.034  0.036
   15  0.001  0.000  0.038  0.039
   16  0.000  0.000  0.015  0.015
   17  0.001  0.000  0.038  0.039
   18  0.003  0.000  0.047  0.050
   19  0.000  0.000  0.007  0.008
   20  0.003  0.000  0.047  0.050
   21  0.001  0.000  0.062  0.063
   22  0.000  0.000  0.049  0.049
   23  0.001  0.000  0.062  0.063
   24  0.000  0.000  0.021  0.021
   25  0.001  0.001  0.032  0.034
   26  0.000  0.000  0.007  0.008
   27  0.000  0.000  0.049  0.049
   28  0.000  0.000  0.004  0.004
   29  0.000  0.000  0.005  0.005
   30  0.001  0.000  0.006  0.007
   31  0.000  0.000  0.005  0.005
   32  0.001  0.001  0.004  0.006
   33  0.001  0.000  0.006  0.007
   34  0.001  0.001  0.004  0.006
   35  0.000  0.000  0.003  0.003
   36  0.000  0.001  0.005  0.007
   37  0.000  0.000  0.000  0.000
tot    0.024  0.016  0.827  0.866
 
band    20 # energy   -4.88067817 # occ.  2.00000000
 
ion      s      p      d    tot
    1  0.000  0.000  0.002  0.002
    2  0.001  0.000  0.007  0.008
    3  0.002  0.001  0.007  0.010
    4  0.001  0.000  0.007  0.008
    5  0.000  0.001  0.013  0.013
    6  0.000  0.000  0.011  0.012
    7  0.002  0.001  0.007  0.009
    8  0.000  0.000  0.011  0.012
    9  0.000  0.001  0.017  0.018
   10  0.000  0.000  0.009  0.009
   11  0.001  0.000  0.048  0.050
   12  0.000  0.001  0.025  0.026
   13  0.001  0.000  0.048  0.050
   14  0.000  0.000  0.091  0.091
   15  0.002  0.000  0.044  0.046
   16  0.000  0.001  0.025  0.026
   17  0.002  0.000  0.044  0.046
   18  0.000  0.000  0.036  0.036
   19  0.001  0.001  0.023  0.025
   20  0.000  0.000  0.066  0.066
   21  0.002  0.000  0.052  0.055
   22  0.000  0.000  0.030  0.030
   23  0.002  0.000  0.053  0.055
   24  0.000  0.000  0.058  0.059
   25  0.000  0.000  0.000  0.000
   26  0.001  0.001  0.023  0.025
   27  0.000  0.000  0.030  0.030
   28  0.000  0.000  0.004  0.004
   29  0.001  0.001  0.005  0.007
   30  0.001  0.000  0.004  0.005
   31  0.001  0.001  0.005  0.007
   32  0.000  0.000  0.006  0.007
   33  0.001  0.000  0.004  0.005
   34  0.000  0.000  0.006  0.007
   35  0.000  0.000  0.003  0.003
   36  0.000  0.001  0.005  0.007
   37  0.000  0.000  0.000  0.000
tot    0.024  0.016  0.827  0.866
 
band    21 # energy   -4.87050338 # occ.  2.00000000
 
ion      s      p      d    tot
    1  0.000  0.001  0.019  0.020
    2  0.001  0.001  0.010  0.011
    3  0.000  0.000  0.010  0.011
    4  0.001  0.001  0.010  0.011
    5  0.000  0.000  0.008  0.008
    6  0.001  0.001  0.005  0.007
    7  0.000  0.000  0.011  0.011
    8  0.001  0.001  0.005  0.007
    9  0.000  0.000  0.003  0.003
   10  0.000  0.000  0.081  0.081
   11  0.001  0.001  0.034  0.035
   12  0.001  0.000  0.057  0.058
   13  0.001  0.001  0.034  0.036
   14  0.000  0.000  0.003  0.003
   15  0.000  0.001  0.031  0.032
   16  0.001  0.000  0.057  0.058
   17  0.000  0.001  0.031  0.031
   18  0.000  0.000  0.060  0.060
   19  0.001  0.000  0.041  0.043
   20  0.000  0.000  0.018  0.018
   21  0.000  0.001  0.023  0.023
   22  0.002  0.001  0.036  0.039
   23  0.000  0.001  0.023  0.023
   24  0.000  0.000  0.019  0.019
   25  0.000  0.000  0.076  0.076
   26  0.001  0.000  0.041  0.042
   27  0.002  0.001  0.036  0.039
   28  0.000  0.001  0.011  0.012
   29  0.000  0.000  0.004  0.004
   30  0.000  0.000  0.007  0.008
   31  0.000  0.000  0.004  0.004
   32  0.001  0.001  0.004  0.005
   33  0.000  0.000  0.007  0.008
   34  0.001  0.001  0.004  0.005
   35  0.000  0.001  0.013  0.013
   36  0.000  0.000  0.000  0.000