PROCAR new format
# of k-points:   10         # of bands:  252         # of ions:   38

 k-point     1 :    0.00000000 0.00000000 0.00000000     weight = 0.01562500

band     1 # energy  -18.07261371 # occ.  2.00000000
 
ion      s      p      d    tot
    1  0.000  0.000  0.000  0.000
    2  0.000  0.000  0.000  0.000
    3  0.000  0.000  0.000  0.000
    4  0.000  0.000  0.000  0.000
    5  0.000  0.000  0.000  0.000
    6  0.000  0.000  0.000  0.000
    7  0.000  0.000  0.000  0.000
    8  0.000  0.000  0.000  0.000
    9  0.000  0.000  0.000  0.000
   10  0.000  0.000  0.000  0.000
   11  0.000  0.000  0.000  0.000
   12  0.000  0.000  0.000  0.000
   13  0.000  0.000  0.000  0.000
   14  0.000  0.000  0.000  0.000
   15  0.000  0.000  0.000  0.000
   16  0.000  0.000  0.000  0.000
   17  0.000  0.000  0.000  0.000
   18  0.000  0.000  0.000  0.000
   19  0.000  0.000  0.000  0.000
   20  0.000  0.000  0.000  0.000
   21  0.000  0.000  0.000  0.000
   22  0.000  0.000  0.000  0.000
   23  0.000  0.000  0.000  0.000
   24  0.000  0.000  0.000  0.000
   25  0.000  0.000  0.000  0.000
   26  0.000  0.000  0.000  0.000
   27  0.000  0.000  0.000  0.000
   28  0.000  0.000  0.000  0.000
   29  0.000  0.000  0.000  0.000
   30  0.000  0.000  0.000  0.000
   31  0.000  0.000  0.000  0.000
   32  0.000  0.000  0.000  0.000
   33  0.000  0.000  0.000  0.000
   34  0.000  0.000  0.000  0.000
   35  0.000  0.000  0.000  0.000
   36  0.040  0.040  0.076  0.156
   37  0.000  0.000  0.000  0.000
   38  0.756  0.016  0.000  0.772
tot    0.796  0.056  0.076  0.929
 
band     2 # energy   -8.77621304 # occ.  2.00000000
 
ion      s      p      d    tot
    1  0.006  0.001  0.000  0.007
    2  0.006  0.001  0.000  0.007
    3  0.006  0.001  0.000  0.007
    4  0.006  0.001  0.000  0.007
    5  0.006  0.001  0.000  0.007
    6  0.006  0.001  0.000  0.007
    7  0.006  0.001  0.000  0.007
    8  0.006  0.001  0.000  0.007
    9  0.006  0.001  0.000  0.007
   10  0.023  0.000  0.000  0.023
   11  0.023  0.000  0.000  0.024
   12  0.023  0.000  0.000  0.023
   13  0.023  0.000  0.000  0.024
   14  0.023  0.000  0.000  0.024
   15  0.023  0.000  0.000  0.023
   16  0.023  0.000  0.000  0.023
   17  0.023  0.000  0.000  0.023
   18  0.023  0.000  0.000  0.023
   19  0.025  0.000  0.000  0.025
   20  0.027  0.000  0.000  0.027
   21  0.027  0.000  0.000  0.027
   22  0.025  0.000  0.000  0.025
   23  0.027  0.000  0.000  0.027
   24  0.025  0.000  0.000  0.025
   25  0.025  0.000  0.000  0.025
   26  0.025  0.000  0.000  0.025
   27  0.025  0.000  0.000  0.025
   28  0.007  0.001  0.000  0.008
   29  0.008  0.001  0.000  0.009
   30  0.008  0.001  0.000  0.009
   31  0.008  0.001  0.000  0.009
   32  0.008  0.001  0.000  0.009
   33  0.008  0.001  0.000  0.009
   34  0.008  0.001  0.000  0.009
   35  0.007  0.001  0.000  0.008
   36  0.017  0.002  0.000  0.019
   37  0.000  0.000  0.000  0.000
   38  0.001  0.001  0.000  0.002
tot    0.569  0.018  0.001  0.588
 
band     3 # energy   -8.35214568 # occ.  2.00000000
 
ion      s      p      d    tot
    1  0.000  0.000  0.000  0.000
    2  0.000  0.000  0.000  0.000
    3  0.000  0.000  0.000  0.000
    4  0.000  0.000  0.000  0.000
    5  0.000  0.000  0.000  0.000
    6  0.000  0.000  0.000  0.000
    7  0.000  0.000  0.000  0.000
    8  0.000  0.000  0.000  0.000
    9  0.000  0.000  0.000  0.000
   10  0.000  0.000  0.000  0.000
   11  0.000  0.000  0.000  0.000
   12  0.000  0.000  0.000  0.000
   13  0.000  0.000  0.000  0.000
   14  0.000  0.000  0.000  0.000
   15  0.000  0.000  0.000  0.000
   16  0.000  0.000  0.000  0.000
   17  0.000  0.000  0.000  0.000
   18  0.000  0.000  0.000  0.000
   19  0.000  0.000  0.000  0.000
   20  0.000  0.000  0.000  0.000
   21  0.000  0.000  0.000  0.000
   22  0.000  0.000  0.000  0.000
   23  0.000  0.000  0.000  0.000
   24  0.000  0.000  0.000  0.000
   25  0.000  0.000  0.000  0.000
   26  0.000  0.000  0.000  0.000
   27  0.000  0.000  0.000  0.000
   28  0.000  0.000  0.000  0.000
   29  0.000  0.000  0.000  0.000
   30  0.000  0.000  0.000  0.000
   31  0.000  0.000  0.000  0.000
   32  0.000  0.000  0.000  0.000
   33  0.000  0.000  0.000  0.000
   34  0.000  0.000  0.000  0.000
   35  0.000  0.000  0.000  0.000
   36  0.000  0.000  0.000  0.000
   37  0.530  0.000  0.000  0.530
   38  0.000  0.000  0.000  0.000
tot    0.530  0.000  0.000  0.530
 
band     4 # energy   -7.53024460 # occ.  2.00000000
 
ion      s      p      d    tot
    1  0.018  0.001  0.000  0.019
    2  0.017  0.001  0.000  0.019
    3  0.017  0.001  0.000  0.019
    4  0.017  0.001  0.000  0.019
    5  0.017  0.001  0.000  0.018
    6  0.017  0.001  0.000  0.019
    7  0.017  0.001  0.000  0.019
    8  0.017  0.001  0.000  0.019
    9  0.018  0.001  0.000  0.019
   10  0.012  0.002  0.001  0.014
   11  0.011  0.002  0.001  0.014
   12  0.012  0.002  0.001  0.014
   13  0.011  0.002  0.001  0.014
   14  0.011  0.002  0.001  0.014
   15  0.012  0.002  0.001  0.014
   16  0.012  0.002  0.001  0.014
   17  0.012  0.002  0.001  0.014
   18  0.012  0.002  0.001  0.014
   19  0.007  0.002  0.000  0.010
   20  0.009  0.003  0.000  0.012
   21  0.009  0.003  0.000  0.012
   22  0.008  0.002  0.000  0.010
   23  0.009  0.003  0.000  0.012
   24  0.008  0.002  0.000  0.010
   25  0.007  0.002  0.000  0.010
   26  0.007  0.002  0.000  0.010
   27  0.008  0.002  0.000  0.010
   28  0.016  0.001  0.001  0.018
   29  0.019  0.001  0.001  0.021
   30  0.019  0.001  0.001  0.021
   31  0.019  0.001  0.001  0.021
   32  0.019  0.001  0.001  0.021
   33  0.019  0.001  0.001  0.021
   34  0.019  0.001  0.001  0.021
   35  0.016  0.001  0.001  0.017
   36  0.041  0.002  0.004  0.048
   37  0.000  0.000  0.000  0.000
   38  0.002  0.001  0.000  0.003
tot    0.519  0.056  0.023  0.597
 
band     5 # energy   -5.99871406 # occ.  2.00000000
 
ion      s      p      d    tot
    1  0.010  0.000  0.003  0.013
    2  0.010  0.000  0.003  0.013
    3  0.010  0.000  0.003  0.013
    4  0.010  0.000  0.003  0.013
    5  0.004  0.000  0.004  0.008
    6  0.010  0.000  0.003  0.013
    7  0.010  0.000  0.003  0.013
    8  0.010  0.000  0.003  0.013
    9  0.017  0.000  0.002  0.019
   10  0.001  0.003  0.001  0.005
   11  0.007  0.004  0.000  0.012
   12  0.001  0.003  0.001  0.005
   13  0.007  0.004  0.000  0.012
   14  0.007  0.004  0.000  0.012
   15  0.000  0.002  0.002  0.004
   16  0.001  0.003  0.001  0.005
   17  0.000  0.002  0.002  0.004
   18  0.000  0.002  0.002  0.004
   19  0.001  0.002  0.005  0.008
   20  0.024  0.004  0.008  0.037
   21  0.024  0.004  0.008  0.036
   22  0.000  0.003  0.004  0.007
   23  0.024  0.004  0.008  0.036
   24  0.000  0.003  0.004  0.007
   25  0.001  0.002  0.005  0.008
   26  0.001  0.002  0.005  0.008
   27  0.000  0.003  0.004  0.007
   28  0.015  0.000  0.004  0.019
   29  0.014  0.000  0.007  0.021
   30  0.014  0.000  0.007  0.021
   31  0.014  0.000  0.007  0.021
   32  0.014  0.000  0.007  0.021
   33  0.014  0.000  0.007  0.021
   34  0.014  0.000  0.007  0.021
   35  0.019  0.000  0.004  0.023
   36  0.000  0.001  0.147  0.148
   37  0.000  0.000  0.000  0.000
   38  0.004  0.045  0.000  0.050
tot    0.313  0.101  0.285  0.699
 
band     6 # energy   -5.90177392 # occ.  2.00000000
 
ion      s      p      d    tot
    1  0.003  0.000  0.002  0.005
    2  0.005  0.001  0.003  0.009
    3  0.005  0.001  0.003  0.009
    4  0.005  0.001  0.003  0.009
    5  0.024  0.001  0.001  0.025
    6  0.005  0.001  0.003  0.009
    7  0.005  0.001  0.003  0.009
    8  0.005  0.001  0.003  0.009
    9  0.000  0.001  0.004  0.005
   10  0.002  0.003  0.004  0.010
   11  0.006  0.004  0.003  0.014
   12  0.002  0.003  0.004  0.010
   13  0.006  0.004  0.003  0.014
   14  0.006  0.004  0.003  0.013
   15  0.016  0.003  0.004  0.022
   16  0.002  0.003  0.004  0.010
   17  0.016  0.003  0.004  0.022
   18  0.016  0.003  0.004  0.022
   19  0.016  0.001  0.007  0.025
   20  0.012  0.008  0.008  0.028
   21  0.012  0.008  0.008  0.028
   22  0.015  0.006  0.003  0.023
   23  0.012  0.008  0.008  0.028
   24  0.015  0.006  0.003  0.023
   25  0.016  0.001  0.007  0.025
   26  0.016  0.001  0.007  0.025
   27  0.015  0.006  0.003  0.023
   28  0.000  0.001  0.003  0.004
   29  0.003  0.002  0.006  0.012
   30  0.003  0.002  0.006  0.012
   31  0.003  0.002  0.006  0.012
   32  0.003  0.002  0.006  0.012
   33  0.003  0.002  0.006  0.012
   34  0.003  0.002  0.006  0.012
   35  0.001  0.001  0.002  0.005
   36  0.104  0.003  0.005  0.112
   37  0.000  0.000  0.000  0.000
   38  0.009  0.035  0.000  0.044
tot    0.392  0.133  0.160  0.685
 
band     7 # energy   -5.83265515 # occ.  2.00000000
 
ion      s      p      d    tot
    1  0.000  0.002  0.004  0.006
    2  0.007  0.002  0.002  0.010
    3  0.001  0.001  0.001  0.003
    4  0.007  0.002  0.002  0.010
    5  0.000  0.002  0.003  0.005
    6  0.003  0.001  0.002  0.006
    7  0.001  0.001  0.001  0.003
    8  0.003  0.001  0.002  0.006
    9  0.000  0.000  0.002  0.002
   10  0.046  0.004  0.003  0.054
   11  0.007  0.008  0.005  0.020
   12  0.011  0.002  0.010  0.023
   13  0.007  0.008  0.005  0.020
   14  0.028  0.001  0.006  0.035
   15  0.001  0.005  0.005  0.010
   16  0.012  0.002  0.010  0.023
   17  0.001  0.005  0.005  0.010
   18  0.002  0.002  0.003  0.007
   19  0.005  0.010  0.002  0.017
   20  0.073  0.003  0.008  0.084
   21  0.018  0.003  0.015  0.036
   22  0.003  0.004  0.009  0.015
   23  0.019  0.003  0.015  0.037
   24  0.011  0.003  0.003  0.017
   25  0.019  0.000  0.006  0.026
   26  0.005  0.010  0.002  0.017
   27  0.003  0.004  0.009  0.015
   28  0.000  0.002  0.003  0.005
   29  0.011  0.004  0.005  0.019
   30  0.003  0.001  0.003  0.007
   31  0.011  0.004  0.005  0.019
   32  0.002  0.002  0.004  0.008
   33  0.003  0.001  0.003  0.007
   34  0.002  0.002  0.005  0.008
   35  0.000  0.000  0.003  0.003
   36  0.000  0.005  0.057  0.062
   37  0.000  0.000  0.000  0.000
   38  0.000  0.005  0.000  0.005
tot    0.326  0.112  0.225  0.663
 
band     8 # energy   -5.83253748 # occ.  2.00000000
 
ion      s      p      d    tot
    1  0.000  0.002  0.004  0.006
    2  0.000  0.001  0.001  0.002
    3  0.007  0.002  0.002  0.010
    4  0.000  0.001  0.001  0.002
    5  0.000  0.002  0.003  0.005
    6  0.004  0.001  0.002  0.007
    7  0.006  0.002  0.002  0.010
    8  0.004  0.001  0.002  0.007
    9  0.000  0.000  0.002  0.002
   10  0.000  0.001  0.012  0.013
   11  0.021  0.003  0.005  0.030
   12  0.035  0.004  0.005  0.044
   13  0.022  0.003  0.005  0.030
   14  0.000  0.011  0.004  0.015
   15  0.002  0.003  0.004  0.008
   16  0.034  0.003  0.005  0.043
   17  0.002  0.003  0.004  0.008
   18  0.000  0.006  0.006  0.011
   19  0.014  0.003  0.005  0.023
   20  0.000  0.003  0.017  0.020
   21  0.056  0.003  0.010  0.069
   22  0.009  0.004  0.005  0.017
   23  0.055  0.003  0.010  0.068
   24  0.000  0.004  0.011  0.015
   25  0.000  0.013  0.001  0.014
   26  0.015  0.003  0.005  0.023
   27  0.009  0.004  0.005  0.017
   28  0.000  0.002  0.003  0.005
   29  0.000  0.001  0.003  0.004
   30  0.008  0.003  0.005  0.016
   31  0.000  0.001  0.003  0.004
   32  0.009  0.003  0.003  0.015
   33  0.008  0.003  0.005  0.016
   34  0.009  0.003  0.003  0.015
   35  0.000  0.000  0.003  0.003
   36  0.000  0.005  0.057  0.062
   37  0.000  0.000  0.000  0.000
   38  0.000  0.005  0.000  0.005
tot    0.326  0.112  0.225  0.663
 
band     9 # energy   -5.76453133 # occ.  2.00000000
 
ion      s      p      d    tot
    1  0.000  0.001  0.002  0.003
    2  0.008  0.002  0.002  0.012
    3  0.001  0.001  0.002  0.003
    4  0.008  0.002  0.002  0.012
    5  0.000  0.001  0.003  0.004
    6  0.004  0.001  0.002  0.007
    7  0.001  0.001  0.002  0.003
    8  0.004  0.001  0.002  0.007
    9  0.000  0.003  0.005  0.008
   10  0.000  0.011  0.002  0.013
   11  0.018  0.003  0.005  0.026
   12  0.004  0.003  0.004  0.012
   13  0.018  0.003  0.005  0.026
   14  0.000  0.001  0.013  0.013
   15  0.040  0.003  0.006  0.049
   16  0.004  0.003  0.004  0.012
   17  0.040  0.003  0.006  0.049
   18  0.000  0.006  0.010  0.016
   19  0.033  0.004  0.006  0.042
   20  0.000  0.012  0.002  0.015
   21  0.000  0.004  0.004  0.009
   22  0.040  0.004  0.006  0.050
   23  0.000  0.004  0.004  0.009
   24  0.000  0.010  0.007  0.017
   25  0.000  0.000  0.017  0.017
   26  0.033  0.004  0.006  0.042
   27  0.040  0.004  0.006  0.050
   28  0.000  0.002  0.005  0.007
   29  0.014  0.003  0.003  0.021
   30  0.002  0.002  0.004  0.008
   31  0.014  0.003  0.003  0.021
   32  0.005  0.001  0.003  0.010
   33  0.002  0.002  0.004  0.008
   34  0.005  0.001  0.003  0.010
   35  0.000  0.004  0.005  0.010
   36  0.000  0.001  0.020  0.021
   37  0.000  0.000  0.000  0.000
   38  0.000  0.000  0.000  0.000
tot    0.341  0.115  0.186  0.642
 
band    10 # energy   -5.76441868 # occ.  2.00000000
 
ion      s      p      d    tot
    1  0.000  0.001  0.002  0.003
    2  0.000  0.001  0.002  0.003
    3  0.008  0.002  0.002  0.012
    4  0.000  0.001  0.002  0.003
    5  0.000  0.001  0.003  0.004
    6  0.005  0.001  0.002  0.008
    7  0.008  0.002  0.002  0.012
    8  0.005  0.001  0.002  0.008
    9  0.000  0.003  0.005  0.008
   10  0.006  0.000  0.005  0.011
   11  0.006  0.002  0.010  0.018
   12  0.001  0.009  0.003  0.013
   13  0.006  0.002  0.010  0.018
   14  0.024  0.004  0.002  0.031
   15  0.013  0.005  0.009  0.027
   16  0.001  0.009  0.003  0.013
   17  0.013  0.005  0.009  0.027
   18  0.053  0.003  0.005  0.060
   19  0.011  0.001  0.013  0.026
   20  0.000  0.001  0.005  0.007
   21  0.000  0.010  0.003  0.013
   22  0.013  0.008  0.006  0.028
   23  0.000  0.010  0.003  0.013
   24  0.053  0.002  0.006  0.061
   25  0.044  0.005  0.002  0.050
   26  0.011  0.001  0.013  0.026
   27  0.014  0.008  0.006  0.028
   28  0.000  0.002  0.005  0.007
   29  0.000  0.001  0.004  0.005
   30  0.012  0.002  0.003  0.018
   31  0.000  0.001  0.004  0.005
   32  0.009  0.003  0.004  0.016
   33  0.012  0.002  0.003  0.018
   34  0.009  0.003  0.004  0.016
   35  0.000  0.004  0.005  0.010
   36  0.000  0.001  0.020  0.021
   37  0.000  0.000  0.000  0.000
   38  0.000  0.000  0.000  0.000
tot    0.341  0.115  0.186  0.642
 
band    11 # energy   -5.73469587 # occ.  2.00000000
 
ion      s      p      d    tot
    1  0.021  0.003  0.001  0.025
    2  0.000  0.002  0.004  0.006
    3  0.000  0.002  0.004  0.006
    4  0.000  0.002  0.004  0.006
    5  0.001  0.000  0.000  0.002
    6  0.000  0.002  0.004  0.006
    7  0.000  0.002  0.004  0.006
    8  0.000  0.002  0.004  0.006
    9  0.009  0.001  0.000  0.010
   10  0.029  0.006  0.006  0.041
   11  0.005  0.000  0.011  0.017
   12  0.029  0.006  0.006  0.041
   13  0.005  0.000  0.011  0.017
   14  0.005  0.000  0.011  0.017
   15  0.012  0.008  0.003  0.023
   16  0.029  0.006  0.006  0.041
   17  0.012  0.008  0.003  0.023
   18  0.012  0.008  0.003  0.023
   19  0.023  0.009  0.002  0.034
   20  0.000  0.003  0.010  0.012
   21  0.000  0.003  0.010  0.012
   22  0.024  0.002  0.010  0.036
   23  0.000  0.003  0.010  0.012
   24  0.024  0.002  0.009  0.036
   25  0.023  0.009  0.002  0.034
   26  0.023  0.009  0.002  0.034
   27  0.024  0.002  0.010  0.036
   28  0.021  0.003  0.000  0.024
   29  0.000  0.002  0.004  0.006
   30  0.000  0.002  0.004  0.006
   31  0.000  0.002  0.004  0.006
   32  0.000  0.002  0.004  0.006
   33  0.000  0.002  0.004  0.006
   34  0.000  0.002  0.004  0.006
   35  0.012  0.002  0.001  0.016
   36  0.000  0.000  0.000  0.001
   37  0.000  0.000  0.000  0.000
   38  0.000  0.000  0.000  0.000
tot    0.346  0.116  0.176  0.638
 
band    12 # energy   -5.34872837 # occ.  2.00000000
 
ion      s      p      d    tot
    1  0.011  0.000  0.003  0.014
    2  0.003  0.002  0.008  0.013
    3  0.003  0.002  0.008  0.013
    4  0.003  0.002  0.008  0.013
    5  0.009  0.004  0.006  0.018
    6  0.003  0.002  0.008  0.013
    7  0.003  0.002  0.008  0.013
    8  0.003  0.002  0.008  0.013
    9  0.025  0.001  0.001  0.027
   10  0.001  0.002  0.011  0.014
   11  0.029  0.005  0.002  0.036
   12  0.001  0.002  0.011  0.014
   13  0.029  0.005  0.002  0.036
   14  0.029  0.005  0.002  0.036
   15  0.003  0.001  0.013  0.018
   16  0.001  0.002  0.011  0.014
   17  0.003  0.001  0.013  0.018
   18  0.003  0.001  0.013  0.018
   19  0.000  0.000  0.001  0.001
   20  0.000  0.004  0.025  0.029
   21  0.000  0.004  0.025  0.029
   22  0.001  0.001  0.004  0.006
   23  0.000  0.004  0.025  0.029
   24  0.001  0.001  0.004  0.006
   25  0.000  0.000  0.001  0.001
   26  0.000  0.000  0.001  0.001
   27  0.001  0.001  0.004  0.006
   28  0.000  0.000  0.000  0.000
   29  0.000  0.000  0.001  0.001
   30  0.000  0.000  0.001  0.001
   31  0.000  0.000  0.001  0.001
   32  0.000  0.000  0.001  0.001
   33  0.000  0.000  0.001  0.001
   34  0.000  0.000  0.001  0.001
   35  0.000  0.000  0.000  0.000
   36  0.019  0.001  0.156  0.176
   37  0.000  0.000  0.000  0.000
   38  0.015  0.140  0.000  0.155
tot    0.202  0.197  0.383  0.781
 
band    13 # energy   -5.11668982 # occ.  2.00000000
 
ion      s      p      d    tot
    1  0.000  0.001  0.007  0.008
    2  0.016  0.003  0.004  0.023
    3  0.006  0.002  0.004  0.011
    4  0.016  0.003  0.004  0.023
    5  0.000  0.002  0.007  0.009
    6  0.003  0.002  0.004  0.008
    7  0.006  0.002  0.004  0.011
    8  0.002  0.002  0.004  0.008
    9  0.000  0.005  0.007  0.012
   10  0.000  0.005  0.010  0.014
   11  0.014  0.002  0.007  0.023
   12  0.000  0.001  0.007  0.008
   13  0.014  0.002  0.007  0.023
   14  0.000  0.000  0.017  0.017
   15  0.017  0.002  0.007  0.026
   16  0.000  0.001  0.007  0.008
   17  0.017  0.002  0.007  0.026
   18  0.000  0.003  0.014  0.016
   19  0.003  0.003  0.008  0.013
   20  0.000  0.003  0.039  0.041
   21  0.001  0.001  0.016  0.018
   22  0.005  0.004  0.009  0.019
   23  0.001  0.001  0.016  0.018
   24  0.000  0.000  0.021  0.021
   25  0.000  0.000  0.004  0.004
   26  0.003  0.003  0.008  0.013
   27  0.005  0.004  0.009  0.019
   28  0.000  0.002  0.005  0.007
   29  0.020  0.003  0.009  0.032
   30  0.002  0.003  0.012  0.017
   31  0.020  0.003  0.009  0.032
   32  0.011  0.001  0.010  0.021
   33  0.001  0.003  0.012  0.017
   34  0.011  0.001  0.010  0.021
   35  0.000  0.004  0.005  0.009
   36  0.000  0.001  0.118  0.119
   37  0.000  0.000  0.000  0.000
   38  0.000  0.015  0.000  0.015
tot    0.193  0.092  0.444  0.730
 
band    14 # energy   -5.11660569 # occ.  2.00000000
 
ion      s      p      d    tot
    1  0.000  0.001  0.007  0.008
    2  0.000  0.001  0.004  0.005
    3  0.010  0.003  0.004  0.017
    4  0.000  0.001  0.004  0.005
    5  0.000  0.002  0.007  0.009
    6  0.014  0.003  0.004  0.020
    7  0.010  0.003  0.004  0.017
    8  0.014  0.003  0.004  0.020
    9  0.000  0.005  0.007  0.012
   10  0.000  0.000  0.006  0.006
   11  0.005  0.001  0.014  0.019
   12  0.000  0.003  0.009  0.012
   13  0.005  0.001  0.014  0.019
   14  0.019  0.003  0.004  0.025
   15  0.006  0.003  0.011  0.020
   16  0.000  0.004  0.009  0.012
   17  0.006  0.003  0.011  0.020
   18  0.023  0.002  0.004  0.030
   19  0.001  0.001  0.005  0.007
   20  0.001  0.000  0.009  0.010
   21  0.000  0.002  0.031  0.033
   22  0.002  0.002  0.017  0.020
   23  0.000  0.002  0.031  0.034
   24  0.007  0.006  0.005  0.018
   25  0.003  0.004  0.009  0.016
   26  0.001  0.001  0.005  0.007
   27  0.002  0.002  0.017  0.020
   28  0.000  0.002  0.005  0.007
   29  0.002  0.001  0.012  0.015
   30  0.020  0.001  0.008  0.030
   31  0.001  0.001  0.012  0.015
   32  0.011  0.004  0.011  0.025
   33  0.020  0.001  0.008  0.030
   34  0.011  0.004  0.011  0.025
   35  0.000  0.004  0.005  0.009
   36  0.000  0.001  0.118  0.119
   37  0.000  0.000  0.000  0.000
   38  0.000  0.015  0.000  0.015
tot    0.193  0.092  0.444  0.730
 
band    15 # energy   -5.07960206 # occ.  2.00000000
 
ion      s      p      d    tot
    1  0.000  0.002  0.008  0.010
    2  0.005  0.002  0.010  0.016
    3  0.005  0.002  0.010  0.016
    4  0.005  0.002  0.010  0.016
    5  0.038  0.001  0.004  0.042
    6  0.005  0.002  0.010  0.016
    7  0.005  0.002  0.010  0.016
    8  0.005  0.002  0.010  0.016
    9  0.000  0.001  0.009  0.011
   10  0.011  0.001  0.017  0.029
   11  0.000  0.002  0.019  0.021
   12  0.011  0.001  0.017  0.029
   13  0.000  0.002  0.019  0.021
   14  0.000  0.002  0.019  0.021
   15  0.014  0.000  0.019  0.033
   16  0.011  0.001  0.017  0.029
   17  0.014  0.000  0.019  0.033
   18  0.014  0.000  0.019  0.033
   19  0.009  0.002  0.011  0.022
   20  0.000  0.001  0.022  0.022
   21  0.000  0.001  0.022  0.022
   22  0.003  0.001  0.014  0.018
   23  0.000  0.001  0.022  0.022
   24  0.003  0.001  0.014  0.018
   25  0.009  0.002  0.011  0.022
   26  0.009  0.002  0.011  0.022
   27  0.003  0.001  0.014  0.018
   28  0.004  0.002  0.002  0.008
   29  0.001  0.002  0.011  0.014
   30  0.001  0.002  0.011  0.014
   31  0.001  0.002  0.011  0.014
   32  0.001  0.002  0.011  0.014
   33  0.001  0.002  0.011  0.014
   34  0.001  0.002  0.011  0.014
   35  0.002  0.001  0.002  0.005
   36  0.047  0.001  0.019  0.067
   37  0.000  0.000  0.000  0.000
   38  0.000  0.000  0.000  0.001
tot    0.234  0.051  0.476  0.761
 
band    16 # energy   -5.06306750 # occ.  2.00000000
 
ion      s      p      d    tot
    1  0.000  0.006  0.010  0.015
    2  0.022  0.004  0.006  0.032
    3  0.008  0.003  0.005  0.016
    4  0.022  0.004  0.006  0.032
    5  0.000  0.004  0.010  0.015
    6  0.004  0.002  0.005  0.011
    7  0.008  0.003  0.005  0.016
    8  0.004  0.002  0.005  0.011
    9  0.000  0.000  0.011  0.011
   10  0.033  0.005  0.006  0.044
   11  0.003  0.004  0.014  0.021
   12  0.008  0.002  0.019  0.029
   13  0.003  0.004  0.014  0.021
   14  0.012  0.001  0.006  0.019
   15  0.001  0.003  0.013  0.017
   16  0.008  0.002  0.019  0.029
   17  0.001  0.003  0.013  0.017
   18  0.005  0.002  0.007  0.014
   19  0.001  0.001  0.016  0.018
   20  0.010  0.008  0.005  0.023
   21  0.003  0.002  0.012  0.017
   22  0.000  0.001  0.009  0.010
   23  0.003  0.002  0.012  0.017
   24  0.000  0.000  0.007  0.007
   25  0.004  0.003  0.002  0.008
   26  0.001  0.001  0.016  0.018
   27  0.000  0.001  0.009  0.010
   28  0.000  0.003  0.004  0.007
   29  0.011  0.003  0.008  0.022
   30  0.007  0.001  0.005  0.013
   31  0.011  0.003  0.008  0.022
   32  0.000  0.001  0.009  0.010
   33  0.007  0.001  0.005  0.013
   34  0.000  0.001  0.009  0.010
   35  0.000  0.000  0.006  0.006
   36  0.000  0.002  0.101  0.103
   37  0.000  0.000  0.000  0.000
   38  0.000  0.021  0.000  0.021
tot    0.202  0.108  0.416  0.726
 
band    17 # energy   -5.06296085 # occ.  2.00000000
 
ion      s      p      d    tot
    1  0.000  0.006  0.010  0.015
    2  0.000  0.002  0.005  0.007
    3  0.014  0.003  0.006  0.023
    4  0.000  0.002  0.005  0.007
    5  0.000  0.004  0.010  0.015
    6  0.019  0.004  0.005  0.028
    7  0.014  0.003  0.006  0.023
    8  0.019  0.004  0.005  0.028
    9  0.000  0.000  0.011  0.011
   10  0.000  0.001  0.023  0.024
   11  0.009  0.002  0.009  0.020
   12  0.025  0.004  0.010  0.039
   13  0.009  0.002  0.009  0.020
   14  0.000  0.005  0.017  0.022
   15  0.004  0.002  0.009  0.015
   16  0.025  0.004  0.010  0.039
   17  0.004  0.002  0.009  0.015
   18  0.000  0.003  0.015  0.018
   19  0.003  0.002  0.007  0.012
   20  0.000  0.000  0.014  0.015
   21  0.008  0.006  0.007  0.021
   22  0.000  0.000  0.008  0.008
   23  0.008  0.006  0.007  0.021
   24  0.000  0.001  0.010  0.011
   25  0.000  0.000  0.020  0.021
   26  0.003  0.002  0.007  0.012
   27  0.000  0.000  0.008  0.008
   28  0.000  0.003  0.004  0.007
   29  0.002  0.000  0.006  0.008
   30  0.005  0.003  0.009  0.017
   31  0.002  0.000  0.006  0.008
   32  0.012  0.002  0.005  0.020
   33  0.005  0.003  0.009  0.017
   34  0.012  0.002  0.005  0.020
   35  0.000  0.000  0.006  0.006
   36  0.000  0.002  0.101  0.103
   37  0.000  0.000  0.000  0.000
   38  0.000  0.020  0.000  0.020
tot    0.202  0.107  0.416  0.726
 
band    18 # energy   -4.97602664 # occ.  2.00000000
 
ion      s      p      d    tot
    1  0.033  0.003  0.000  0.037
    2  0.000  0.003  0.010  0.013
    3  0.000  0.003  0.010  0.013
    4  0.000  0.003  0.010  0.013
    5  0.000  0.000  0.000  0.001
    6  0.000  0.003  0.010  0.013
    7  0.000  0.003  0.010  0.013
    8  0.000  0.003  0.010  0.013
    9  0.031  0.004  0.001  0.035
   10  0.008  0.003  0.010  0.022
   11  0.001  0.000  0.015  0.016
   12  0.008  0.003  0.010  0.022
   13  0.001  0.000  0.015  0.016
   14  0.001  0.000  0.015  0.016
   15  0.008  0.004  0.017  0.028
   16  0.008  0.003  0.010  0.022
   17  0.008  0.004  0.017  0.028
   18  0.008  0.004  0.017  0.028
   19  0.004  0.003  0.018  0.026
   20  0.000  0.000  0.014  0.014
   21  0.000  0.000  0.014  0.014
   22  0.012  0.004  0.010  0.026
   23  0.000  0.000  0.014  0.014
   24  0.012  0.004  0.010  0.026
   25  0.004  0.003  0.018  0.026
   26  0.004  0.003  0.018  0.026
   27  0.012  0.004  0.010  0.026
   28  0.035  0.003  0.000  0.038
   29  0.000  0.003  0.010  0.013
   30  0.000  0.003  0.010  0.013
   31  0.000  0.003  0.010  0.013
   32  0.000  0.003  0.010  0.013
   33  0.000  0.003  0.010  0.013
   34  0.000  0.003  0.010  0.013
   35  0.029  0.004  0.001  0.034
   36  0.000  0.000  0.000  0.000
   37  0.000  0.000  0.000  0.000
   38  0.000  0.000  0.000  0.000
tot    0.229  0.093  0.382  0.705
 
band    19 # energy   -4.74232674 # occ.  2.00000000
 
ion      s      p      d    tot
    1  0.007  0.000  0.002  0.009
    2  0.001  0.001  0.005  0.006
    3  0.001  0.001  0.005  0.006
    4  0.001  0.001  0.005  0.006
    5  0.007  0.002  0.003  0.011
    6  0.001  0.001  0.005  0.006
    7  0.001  0.001  0.005  0.006
    8  0.001  0.001  0.005  0.006
    9  0.004  0.000  0.001  0.006
   10  0.001  0.000  0.015  0.016
   11  0.004  0.002  0.015  0.021
   12  0.001  0.000  0.015  0.016
   13  0.004  0.002  0.015  0.021
   14  0.004  0.002  0.015  0.021
   15  0.000  0.000  0.008  0.008
   16  0.001  0.000  0.015  0.016
   17  0.000  0.000  0.008  0.008
   18  0.000  0.000  0.008  0.008
   19  0.000  0.000  0.017  0.018
   20  0.013  0.000  0.006  0.019
   21  0.013  0.000  0.006  0.019
   22  0.001  0.002  0.027  0.029
   23  0.013  0.000  0.006  0.019
   24  0.001  0.002  0.027  0.029
   25  0.000  0.000  0.017  0.018
   26  0.000  0.000  0.017  0.018
   27  0.001  0.002  0.027  0.029
   28  0.011  0.000  0.003  0.014
   29  0.002  0.003  0.016  0.021
   30  0.002  0.003  0.016  0.021
   31  0.002  0.003  0.016  0.021
   32  0.002  0.003  0.016  0.021
   33  0.002  0.003  0.016  0.021
   34  0.002  0.003  0.016  0.021
   35  0.029  0.000  0.005  0.035
   36  0.001  0.013  0.112  0.125
   37  0.000  0.000  0.000  0.000
   38  0.008  0.111  0.000  0.119
tot    0.134  0.162  0.515  0.812
 
band    20 # energy   -4.71747417 # occ.  2.00000000
 
ion      s      p      d    tot
    1  0.000  0.000  0.003  0.003
    2  0.001  0.000  0.001  0.003
    3  0.001  0.000  0.001  0.002
    4  0.001  0.000  0.001  0.003
    5  0.000  0.001  0.001  0.002
    6  0.004  0.001  0.001  0.005
    7  0.000  0.000  0.001  0.002
    8  0.004  0.001  0.001  0.005
    9  0.000  0.001  0.003  0.003
   10  0.000  0.000  0.002  0.002
   11  0.000  0.000  0.004  0.005
   12  0.000  0.000  0.001  0.001
   13  0.000  0.000  0.004  0.004
   14  0.001  0.002  0.002  0.005
   15  0.000  0.000  0.007  0.008
   16  0.000  0.000  0.001  0.001
   17  0.000  0.000  0.008  0.008
   18  0.001  0.000  0.001  0.002
   19  0.000  0.003  0.009  0.013
   20  0.003  0.002  0.024  0.029
   21  0.001  0.001  0.006  0.007
   22  0.002  0.000  0.008  0.011
   23  0.001  0.001  0.007  0.008
   24  0.008  0.001  0.003  0.011
   25  0.001  0.000  0.003  0.004
   26  0.000  0.003  0.010  0.013
   27  0.002  0.000  0.008  0.011
   28  0.000  0.002  0.014  0.016
   29  0.018  0.002  0.010  0.030
   30  0.000  0.002  0.005  0.007
   31  0.018  0.002  0.010  0.029
   32  0.015  0.002  0.010  0.027
   33  0.000  0.002  0.005  0.007
   34  0.016  0.002  0.010  0.028
   35  0.000  0.001  0.014  0.016
   36  0.000  0.018  0.221  0.239
   37  0.000  0.000  0.000  0.000
   38  0.000  0.180  0.000  0.180
tot    0.099  0.230  0.419  0.749
 
band    21 # energy   -4.71744837 # occ.  2.00000000
 
ion      s      p      d    tot
    1  0.000  0.000  0.003  0.003
    2  0.002  0.000  0.001  0.004
    3  0.003  0.000  0.001  0.005
    4  0.002  0.000  0.001  0.004
    5  0.000  0.001  0.001  0.002
    6  0.000  0.000  0.001  0.001
    7  0.003  0.000  0.001  0.005
    8  0.000  0.000  0.001  0.001
    9  0.000  0.001  0.003  0.003
   10  0.000  0.000  0.001  0.001
   11  0.001  0.001  0.003  0.005
   12  0.000  0.000  0.002  0.002
   13  0.001  0.001  0.003  0.005
   14  0.000  0.000  0.004  0.004
   15  0.001  0.000  0.003  0.004
   16  0.000  0.000  0.002  0.002