 vasp.6.2.0 18Jan21 (build Jun 12 2021 23:27:24) complex                        
  
 executed on             LinuxIFC date 2022.05.26  20:03:54
 running on   28 total cores
 distrk:  each k-point on   28 cores,    1 groups
 distr:  one band on NCORE=   1 cores,   28 groups


--------------------------------------------------------------------------------------------------------


 INCAR:
   ISMEAR = -5
   SIGMA = 0.1
   ISPIN = 1
   EDIFF = 1.d-5
   EDIFFG = -0.01
   NSW = 0
   NELM = 150
   ENCUT = 500
   ISIF = 2
   IBRION = 2
   LREAL = Auto
   ALGO = Fast
   ICHARG = 11
   LORBIT = 10
   LCHARG = .F.
   LWAVE = .F.

 POTCAR:    PAW_PBE Cu 22Jun2005                  
 POTCAR:    PAW_PBE Ru 04Feb2005                  
 POTCAR:    PAW_PBE O 08Apr2002                   
 -----------------------------------------------------------------------------
|                                                                             |
|           W    W    AA    RRRRR   N    N  II  N    N   GGGG   !!!           |
|           W    W   A  A   R    R  NN   N  II  NN   N  G    G  !!!           |
|           W    W  A    A  R    R  N N  N  II  N N  N  G       !!!           |
|           W WW W  AAAAAA  RRRRR   N  N N  II  N  N N  G  GGG   !            |
|           WW  WW  A    A  R   R   N   NN  II  N   NN  G    G                |
|           W    W  A    A  R    R  N    N  II  N    N   GGGG   !!!           |
|                                                                             |
|     For optimal performance we recommend to set                             |
|       NCORE = 2 up to number-of-cores-per-socket                            |
|     NCORE specifies how many cores store one orbital (NPAR=cpu/NCORE).      |
|     This setting can greatly improve the performance of VASP for DFT.       |
|     The default, NCORE=1 might be grossly inefficient on modern             |
|     multi-core architectures or massively parallel machines. Do your        |
|     own testing! More info at https://www.vasp.at/wiki/index.php/NCORE      |
|     Unfortunately you need to use the default for GW and RPA                |
|     calculations (for HF NCORE is supported but not extensively tested      |
|     yet).                                                                   |
|                                                                             |
 -----------------------------------------------------------------------------

 POTCAR:    PAW_PBE Cu 22Jun2005                  
   VRHFIN =Cu: d10 p1                                                                               
   LEXCH  = PE                                                                                      
   EATOM  =  1390.9808 eV,  102.2342 Ry                                                             
                                                                                                    
   TITEL  = PAW_PBE Cu 22Jun2005                                                                    
   LULTRA =        F    use ultrasoft PP ?                                                          
   IUNSCR =        1    unscreen: 0-lin 1-nonlin 2-no                                               
   RPACOR =    2.000    partial core radius                                                         
   POMASS =   63.546; ZVAL   =   11.000    mass and valenz                                          
   RCORE  =    2.300    outmost cutoff radius                                                       
   RWIGS  =    2.200; RWIGS  =    1.164    wigner-seitz radius (au A)                               
   ENMAX  =  295.446; ENMIN  =  221.585 eV                                                          
   ICORE  =        3    local potential                                                             
   LCOR   =        T    correct aug charges                                                         
   LPAW   =        T    paw PP                                                                      
   EAUG   =  586.980                                                                                
   DEXC   =    0.000                                                                                
   RMAX   =    2.344    core radius for proj-oper                                                   
   RAUG   =    1.300    factor for augmentation sphere                                              
   RDEP   =    2.302    radius for radial grids                                                     
   RDEPT  =    1.771    core radius for aug-charge                                                  
                                                                                                    
   Atomic configuration                                                                             
    9 entries                                                                                       
     n  l   j            E        occ.                                                              
     1  0  0.50     -8850.2468   2.0000                                                             
     2  0  0.50     -1062.3498   2.0000                                                             
     2  1  1.50      -916.8226   6.0000                                                             
     3  0  0.50      -114.6929   2.0000                                                             
     3  1  1.50       -72.1325   6.0000                                                             
     3  2  2.50        -5.0394  10.0000                                                             
     4  0  0.50        -4.6097   1.0000                                                             
     4  1  0.50        -4.0817   0.0000                                                             
     4  3  2.50        -1.3606   0.0000                                                             
   Description                                                                                      
     l       E           TYP  RCUT    TYP  RCUT                                                     
     2     -5.0393973     23  2.200                                                                 
     2     10.8846608     23  2.200                                                                 
     0     -4.6097109     23  2.200                                                                 
     0      8.2520465     23  2.200                                                                 
     1     -2.7211652     23  2.200                                                                 
     1     21.7055443     23  2.200                                                                 
     3      2.7211652     23  2.300                                                                 
  local pseudopotential read in
  partial core-charges read in
  partial kinetic energy density read in
  atomic valenz-charges read in
  non local Contribution for L=           2  read in
    real space projection operators read in
  non local Contribution for L=           2  read in
    real space projection operators read in
  non local Contribution for L=           0  read in
    real space projection operators read in
  non local Contribution for L=           0  read in
    real space projection operators read in
  non local Contribution for L=           1  read in
    real space projection operators read in
  non local Contribution for L=           1  read in
    real space projection operators read in
    PAW grid and wavefunctions read in
 
   number of l-projection  operators is LMAX  =           6
   number of lm-projection operators is LMMAX =          18
 
 POTCAR:    PAW_PBE Ru 04Feb2005                  
   VRHFIN =Ru: s1 d7                                                                                
   LEXCH  = PE                                                                                      
   EATOM  =   454.8837 eV,   33.4330 Ry                                                             
                                                                                                    
   TITEL  = PAW_PBE Ru 04Feb2005                                                                    
   LULTRA =        F    use ultrasoft PP ?                                                          
   IUNSCR =        1    unscreen: 0-lin 1-nonlin 2-no                                               
   RPACOR =    2.170    partial core radius                                                         
   POMASS =  101.070; ZVAL   =    8.000    mass and valenz                                          
   RCORE  =    2.700    outmost cutoff radius                                                       
   RWIGS  =    2.650; RWIGS  =    1.402    wigner-seitz radius (au A)                               
   ENMAX  =  213.271; ENMIN  =  159.953 eV                                                          
   ICORE  =        3    local potential                                                             
   LCOR   =        T    correct aug charges                                                         
   LPAW   =        T    paw PP                                                                      
   EAUG   =  333.494                                                                                
   DEXC   =    0.000                                                                                
   RMAX   =    2.758    core radius for proj-oper                                                   
   RAUG   =    1.300    factor for augmentation sphere                                              
   RDEP   =    2.865    radius for radial grids                                                     
   RDEPT  =    2.250    core radius for aug-charge                                                  
                                                                                                    
   Atomic configuration                                                                             
   12 entries                                                                                       
     n  l   j            E        occ.                                                              
     1  0  0.50    -21933.2693   2.0000                                                             
     2  0  0.50     -3153.4097   2.0000                                                             
     2  1  1.50     -2823.9548   6.0000                                                             
     3  0  0.50      -555.3323   2.0000                                                             
     3  1  1.50      -447.1024   6.0000                                                             
     3  2  2.50      -273.0570  10.0000                                                             
     4  0  0.50       -76.3589   2.0000                                                             
     4  1  1.50       -46.4050   6.0000                                                             
     4  2  2.50        -5.2029   7.0000                                                             
     5  0  0.50        -4.2392   1.0000                                                             
     5  1  0.50        -1.3606   0.0000                                                             
     4  3  2.50        -1.3606   0.0000                                                             
   Description                                                                                      
     l       E           TYP  RCUT    TYP  RCUT                                                     
     2     -5.2028939     23  2.600                                                                 
     2     -6.5634765     23  2.600                                                                 
     0     -4.2392259     23  2.700                                                                 
     0     27.2116520     23  2.700                                                                 
     1     -4.0817478     23  2.700                                                                 
     1     27.2116520     23  2.700                                                                 
     3     -5.4423304     23  2.600                                                                 
  local pseudopotential read in
  partial core-charges read in
  partial kinetic energy density read in
  atomic valenz-charges read in
  non local Contribution for L=           2  read in
    real space projection operators read in
  non local Contribution for L=           2  read in
    real space projection operators read in
  non local Contribution for L=           0  read in
    real space projection operators read in
  non local Contribution for L=           0  read in
    real space projection operators read in
  non local Contribution for L=           1  read in
    real space projection operators read in
  non local Contribution for L=           1  read in
    real space projection operators read in
    PAW grid and wavefunctions read in
 
   number of l-projection  operators is LMAX  =           6
   number of lm-projection operators is LMMAX =          18
 
 POTCAR:    PAW_PBE O 08Apr2002                   
   VRHFIN =O: s2p4                                                                                  
   LEXCH  = PE                                                                                      
   EATOM  =   432.3788 eV,   31.7789 Ry                                                             
                                                                                                    
   TITEL  = PAW_PBE O 08Apr2002                                                                     
   LULTRA =        F    use ultrasoft PP ?                                                          
   IUNSCR =        1    unscreen: 0-lin 1-nonlin 2-no                                               
   RPACOR =    1.200    partial core radius                                                         
   POMASS =   16.000; ZVAL   =    6.000    mass and valenz                                          
   RCORE  =    1.520    outmost cutoff radius                                                       
   RWIGS  =    1.550; RWIGS  =    0.820    wigner-seitz radius (au A)                               
   ENMAX  =  400.000; ENMIN  =  300.000 eV                                                          
   ICORE  =        2    local potential                                                             
   LCOR   =        T    correct aug charges                                                         
   LPAW   =        T    paw PP                                                                      
   EAUG   =  605.392                                                                                
   DEXC   =    0.000                                                                                
   RMAX   =    1.553    core radius for proj-oper                                                   
   RAUG   =    1.300    factor for augmentation sphere                                              
   RDEP   =    1.550    radius for radial grids                                                     
   RDEPT  =    1.329    core radius for aug-charge                                                  
                                                                                                    
   Atomic configuration                                                                             
    4 entries                                                                                       
     n  l   j            E        occ.                                                              
     1  0  0.50      -514.6923   2.0000                                                             
     2  0  0.50       -23.9615   2.0000                                                             
     2  1  0.50        -9.0305   4.0000                                                             
     3  2  1.50        -9.5241   0.0000                                                             
   Description                                                                                      
     l       E           TYP  RCUT    TYP  RCUT                                                     
     0    -23.9615318     23  1.200                                                                 
     0     -9.5240782     23  1.200                                                                 
     1     -9.0304911     23  1.520                                                                 
     1      8.1634956     23  1.520                                                                 
     2     -9.5240782      7  1.500                                                                 
  local pseudopotential read in
  partial core-charges read in
  partial kinetic energy density read in
  kinetic energy density of atom read in
  atomic valenz-charges read in
  non local Contribution for L=           0  read in
    real space projection operators read in
  non local Contribution for L=           0  read in
    real space projection operators read in
  non local Contribution for L=           1  read in
    real space projection operators read in
  non local Contribution for L=           1  read in
    real space projection operators read in
    PAW grid and wavefunctions read in
 
   number of l-projection  operators is LMAX  =           4
   number of lm-projection operators is LMMAX =           8
 
 Optimization of the real space projectors (new method)

 maximal supplied QI-value         = 16.25
 optimisation between [QCUT,QGAM] = [ 11.38, 22.75] = [ 36.24,144.96] Ry 
 Optimized for a Real-space Cutoff    1.52 Angstroem

   l    n(q)    QCUT    max X(q) W(low)/X(q) W(high)/X(q)  e(spline) 
   2      9    11.376     4.610    0.21E-03    0.10E-03    0.26E-06
   2      9    11.376     8.522    0.33E-03    0.16E-03    0.37E-06
   0     10    11.376    51.609    0.62E-04    0.20E-04    0.13E-06
   0     10    11.376    27.747    0.54E-04    0.20E-04    0.13E-06
   1     10    11.376    20.408    0.13E-04    0.99E-04    0.19E-06
   1     10    11.376    13.425    0.12E-04    0.87E-04    0.17E-06
 Optimization of the real space projectors (new method)

 maximal supplied QI-value         = 13.98
 optimisation between [QCUT,QGAM] = [ 11.33, 22.79] = [ 35.93,145.49] Ry 
 Optimized for a Real-space Cutoff    1.52 Angstroem

   l    n(q)    QCUT    max X(q) W(low)/X(q) W(high)/X(q)  e(spline) 
   2      9    11.327    61.733    0.26E-03    0.14E-03    0.16E-06
   2      9    11.327    59.886    0.26E-03    0.14E-03    0.17E-06
   0     10    11.327    23.358    0.19E-03    0.14E-04    0.46E-06
   0     10    11.327    11.320    0.15E-03    0.11E-04    0.37E-06
   1     10    11.327    14.765    0.49E-04    0.26E-03    0.24E-06
   1     10    11.327     8.283    0.37E-04    0.20E-03    0.18E-06
 Optimization of the real space projectors (new method)

 maximal supplied QI-value         = 24.76
 optimisation between [QCUT,QGAM] = [ 11.39, 22.77] = [ 36.31,145.25] Ry 
 Optimized for a Real-space Cutoff    1.00 Angstroem

   l    n(q)    QCUT    max X(q) W(low)/X(q) W(high)/X(q)  e(spline) 
   0      7    11.387    20.381    0.39E-03    0.13E-02    0.15E-06
   0      7    11.387    15.268    0.42E-03    0.14E-02    0.17E-06
   1      6    11.387     5.964    0.41E-03    0.11E-02    0.17E-06
   1      6    11.387     5.382    0.39E-03    0.87E-03    0.15E-06
  PAW_PBE Cu 22Jun2005                  :
 energy of atom  1       EATOM=-1390.9808
 kinetic energy error for atom=    0.0043 (will be added to EATOM!!)
  PAW_PBE Ru 04Feb2005                  :
 energy of atom  2       EATOM= -454.8837
 kinetic energy error for atom=    0.0015 (will be added to EATOM!!)
  PAW_PBE O 08Apr2002                   :
 energy of atom  3       EATOM= -432.3788
 kinetic energy error for atom=    0.0224 (will be added to EATOM!!)
 
 
 POSCAR: Cu-Ru-O
  positions in direct lattice
  velocities in cartesian coordinates
 exchange correlation table for  LEXCH =        8
   RHO(1)=    0.500       N(1)  =     2000
   RHO(2)=  100.500       N(2)  =     4000

 VTST: version 3.2, (02/03/18)

 CHAIN: initializing optimizer
 
 OPT: Using VASP Conjugate-Gradient optimizer
 CHAIN: Read ICHAIN            0
 
 POSCAR: Cu-Ru-O
  positions in direct lattice
  velocities in cartesian coordinates
 


--------------------------------------------------------------------------------------------------------


 ion  position               nearest neighbor table
   1  0.000  0.000  0.252-   7 2.57   3 2.57   4 2.57   2 2.57   6 2.57   8 2.57  12 2.57  10 2.57
                            16 2.57
   2  0.333  0.000  0.252-   8 2.57   9 2.57   5 2.57   1 2.57   3 2.57  11 2.57   4 2.57  10 2.57
                            17 2.57
   3  0.667  0.000  0.252-   1 2.57   7 2.57   6 2.57   9 2.57   2 2.57  12 2.57   5 2.57  18 2.57
                            11 2.57
   4  0.000  0.333  0.252-   5 2.57   6 2.57   1 2.57   7 2.57   2 2.57  13 2.57   9 2.57  10 2.57
                            15 2.57
   5  0.333  0.333  0.252-   4 2.57   2 2.57   7 2.57  13 2.57   8 2.57   6 2.57   3 2.57  11 2.57
                            14 2.57
   6  0.667  0.333  0.252-   4 2.57   9 2.57  15 2.57   3 2.57   1 2.57   8 2.57  14 2.57   5 2.57
                            12 2.57
   7  0.000  0.667  0.252-   1 2.57   3 2.57  16 2.57  18 2.57   4 2.57   5 2.57   8 2.57   9 2.57
                            13 2.57
   8  0.333  0.667  0.252-   9 2.57   2 2.57  17 2.57   6 2.57   1 2.57   7 2.57   5 2.57  14 2.57
                            16 2.57
   9  0.667  0.667  0.252-   8 2.57   6 2.57   2 2.57  17 2.57   3 2.57   7 2.57   4 2.57  15 2.57
                            18 2.57
  10  0.111  0.111  0.351-  20 2.55  26 2.56  19 2.56  11 2.57  12 2.57  13 2.57   1 2.57   2 2.57
                             4 2.57  15 2.57  16 2.57  17 2.57
  11  0.444  0.111  0.351-  20 2.55  21 2.55  10 2.57  13 2.57   2 2.57  17 2.57  14 2.57  12 2.57
                             5 2.57   3 2.57  18 2.57  27 2.57
  12  0.778  0.111  0.351-  21 2.55  19 2.56  25 2.56  15 2.57  10 2.57  14 2.57  18 2.57   3 2.57
                             1 2.57  16 2.57  11 2.57   6 2.57
  13  0.111  0.444  0.351-  23 2.55  20 2.55  16 2.57  18 2.57  10 2.57  11 2.57  14 2.57   5 2.57
                             4 2.57   7 2.57  15 2.57  22 2.57
  14  0.444  0.444  0.351-  21 2.55  23 2.55  15 2.57  17 2.57  12 2.57  16 2.57  13 2.57  11 2.57
                             6 2.57   8 2.57   5 2.57  24 2.57
  15  0.778  0.444  0.351-  19 2.56  14 2.57  17 2.57  12 2.57   6 2.57  18 2.57  10 2.57   9 2.57
                            13 2.57   4 2.57  24 2.57  22 2.57
  16  0.111  0.778  0.351-  23 2.55  25 2.56  26 2.56  18 2.57  13 2.57   7 2.57  14 2.57  17 2.57
                            12 2.57  10 2.57   8 2.57   1 2.57
  17  0.444  0.778  0.351-  26 2.56  14 2.57  15 2.57   8 2.57   9 2.57  11 2.57  16 2.57  18 2.57
                            10 2.57   2 2.57  27 2.57  24 2.57
  18  0.778  0.778  0.351-  25 2.56  16 2.57  13 2.57   7 2.57  15 2.57  12 2.57  17 2.57   9 2.57
                             3 2.57  11 2.57  22 2.57  27 2.57
  19  0.889  0.223  0.449-  28 2.55  15 2.56  21 2.56  20 2.56  12 2.56  10 2.56  22 2.56  24 2.56
                            32 2.56  31 2.56  25 2.57  26 2.57
  20  0.222  0.222  0.448-  10 2.55  11 2.55  13 2.55  36 2.55  26 2.56  19 2.56  27 2.57  22 2.57
                            23 2.57  21 2.57  29 2.58  31 2.58
  21  0.556  0.222  0.448-  12 2.55  14 2.55  11 2.55  36 2.55  19 2.56  25 2.56  24 2.57  27 2.57
                            20 2.57  23 2.57  32 2.58  30 2.58
  22  0.888  0.556  0.449-  35 2.55  24 2.56  27 2.56  19 2.56  25 2.56  18 2.57  15 2.57  31 2.57
                            33 2.57  23 2.57  20 2.57  13 2.57
  23  0.222  0.556  0.448-  16 2.55  13 2.55  14 2.55  36 2.55  25 2.56  26 2.56  22 2.57  24 2.57
                            20 2.57  21 2.57  33 2.58  34 2.58
  24  0.556  0.556  0.449-  35 2.55  22 2.56  27 2.56  19 2.56  26 2.56  15 2.57  17 2.57  32 2.57
                            34 2.57  21 2.57  23 2.57  14 2.57
  25  0.889  0.889  0.449-  28 2.55  18 2.56  21 2.56  23 2.56  16 2.56  12 2.56  22 2.56  27 2.56
                            33 2.56  30 2.56  19 2.57  26 2.57
  26  0.223  0.889  0.449-  28 2.55  17 2.56  20 2.56  23 2.56  10 2.56  16 2.56  27 2.56  24 2.56
                            29 2.56  34 2.56  25 2.57  19 2.57
  27  0.556  0.888  0.449-  35 2.55  24 2.56  22 2.56  26 2.56  25 2.56  17 2.57  18 2.57  29 2.57
                            30 2.57  20 2.57  21 2.57  11 2.57
  28  0.000  0.000  0.546-  25 2.55  19 2.55  26 2.55  33 2.56  30 2.56  31 2.56  29 2.56  32 2.56
                            34 2.56
  29  0.333  0.999  0.548-  34 2.55  28 2.56  26 2.56  35 2.56  27 2.57  31 2.57  36 2.57  30 2.58
                            20 2.58
  30  0.668  0.999  0.548-  33 2.55  28 2.56  25 2.56  35 2.56  27 2.57  32 2.57  36 2.57  29 2.58
                            21 2.58
  31  0.999  0.333  0.548-  32 2.55  28 2.56  19 2.56  35 2.56  22 2.57  29 2.57  36 2.57  33 2.58
                            20 2.58
  32  0.668  0.333  0.548-  31 2.55  28 2.56  19 2.56  35 2.56  24 2.57  30 2.57  36 2.57  34 2.58
                            21 2.58
  33  0.999  0.668  0.548-  30 2.55  28 2.56  25 2.56  35 2.56  22 2.57  34 2.57  36 2.57  31 2.58
                            23 2.58
  34  0.333  0.668  0.548-  29 2.55  28 2.56  26 2.56  35 2.56  24 2.57  33 2.57  36 2.57  32 2.58
                            23 2.58
  35  0.667  0.667  0.547-  24 2.55  27 2.55  22 2.55  34 2.56  32 2.56  29 2.56  30 2.56  33 2.56
                            31 2.56
  36  0.333  0.333  0.546-  37 1.73  23 2.55  20 2.55  21 2.55  31 2.57  29 2.57  33 2.57  34 2.57
                            32 2.57  30 2.57
  37  0.333  0.333  0.627-  36 1.73
 
  LATTYP: Found a hexagonal cell.
 ALAT       =     7.6967864036
 C/A-ratio  =     2.7653617908
  
  Lattice vectors:
  
 A1 = (  -3.8483927580,  -6.6656128093,   0.0000000000)
 A2 = (   7.6967864037,   0.0000000000,   0.0000000000)
 A3 = (   0.0000000000,   0.0000000000,  21.2843990326)


Analysis of symmetry for initial positions (statically):
=====================================================================
 Subroutine PRICEL returns:
 Original cell was already a primitive cell.
 

 Routine SETGRP: Setting up the symmetry group for a 
 hexagonal supercell.


 Subroutine GETGRP returns: Found  6 space group operations
 (whereof  6 operations were pure point group operations)
 out of a pool of 24 trial point group operations.


The static configuration has the point symmetry C_3v.


Analysis of symmetry for dynamics (positions and initial velocities):
=====================================================================
 Subroutine PRICEL returns:
 Original cell was already a primitive cell.
 

 Routine SETGRP: Setting up the symmetry group for a 
 hexagonal supercell.


 Subroutine GETGRP returns: Found  6 space group operations
 (whereof  6 operations were pure point group operations)
 out of a pool of 24 trial point group operations.


The dynamic configuration has the point symmetry C_3v.


Analysis of constrained symmetry for selective dynamics:
=====================================================================
 Subroutine PRICEL returns:
 Original cell was already a primitive cell.
 

 Routine SETGRP: Setting up the symmetry group for a 
 hexagonal supercell.


 Subroutine GETGRP returns: Found  6 space group operations
 (whereof  6 operations were pure point group operations)
 out of a pool of 24 trial point group operations.


The constrained configuration has the point symmetry C_3v.


 Subroutine INISYM returns: Found  6 space group operations
 (whereof  6 operations are pure point group operations),
 and found     1 'primitive' translations


----------------------------------------------------------------------------------------

                                     Primitive cell                                     

  volume of cell :    1091.9705

  direct lattice vectors                    reciprocal lattice vectors
     7.696786404  0.000000000  0.000000000     0.129924354 -0.075011849  0.000000000
     3.848392758  6.665612809  0.000000000     0.000000000  0.150023716  0.000000000
     0.000000000  0.000000000 21.284399033     0.000000000  0.000000000  0.046982769

  length of vectors
     7.696786404  7.696786404 21.284399033     0.150023716  0.150023716  0.046982769

  position of ions in fractional coordinates (direct lattice)
     0.000000000  0.000000000  0.252370745
     0.333333343  0.000000000  0.252370745
     0.666666687  0.000000000  0.252370745
     1.000000000  0.333333343  0.252370745
     0.333333313  0.333333343  0.252370745
     0.666666687  0.333333343  0.252370745
     1.000000000  0.666666687  0.252370745
     0.333333373  0.666666687  0.252370745
     0.666666627  0.666666687  0.252370745
     0.111111119  0.111111112  0.350790262
     0.444444418  0.111111112  0.350790262
     0.777777791  0.111111112  0.350790262
     0.111111119  0.444444448  0.350790262
     0.444444478  0.444444448  0.350790262
     0.777777731  0.444444448  0.350790262
     0.111111112  0.777777731  0.350790262
     0.444444478  0.777777731  0.350790262
     0.777777851  0.777777731  0.350790262
     0.888671784  0.222656447  0.448936716
     0.221848045  0.221848030  0.448214676
     0.556303970  0.221848030  0.448214676
     0.888345097  0.555827421  0.449284353
     0.221848015  0.556303910  0.448214676
     0.555827481  0.555827421  0.449284353
     0.888671784  0.888671784  0.448936716
     0.222656462  0.888671784  0.448936716
     0.555827421  0.888345097  0.449284353
     0.000000000  0.000000000  0.546460615
     0.332852229  0.999275480  0.547598968
     0.667872321  0.999275480  0.547598968
     0.999275480  0.332852229  0.547598968
     0.667872321  0.332852229  0.547598968
     0.999275480  0.667872321  0.547598968
     0.332852259  0.667872321  0.547598968
     0.666666627  0.666666687  0.546651826
     0.333333313  0.333333343  0.545605511
     0.333333313  0.333333343  0.626996714

  ion indices of the primitive-cell ions
   primitive index   ion index
                 1           1
                 2           2
                 3           3
                 4           4
                 5           5
                 6           6
                 7           7
                 8           8
                 9           9
                10          10
                11          11
                12          12
                13          13
                14          14
                15          15
                16          16
                17          17
                18          18
                19          19
                20          20
                21          21
                22          22
                23          23
                24          24
                25          25
                26          26
                27          27
                28          28
                29          29
                30          30
                31          31
                32          32
                33          33
                34          34
                35          35
                36          36
                37          37

----------------------------------------------------------------------------------------

 
 
 KPOINTS: Automatic mesh                          

Automatic generation of k-mesh.
 Grid dimensions read from file:
 generate k-points for:    8    8    1

 Generating k-lattice:

  Cartesian coordinates                     Fractional coordinates (reciprocal lattice)
     0.016240544 -0.009376481  0.000000000     0.125000000 -0.000000000  0.000000000
     0.000000000  0.018752964  0.000000000     0.000000000  0.125000000  0.000000000
     0.000000000  0.000000000  0.046982769     0.000000000  0.000000000  1.000000000

  Length of vectors
     0.018752964  0.018752964  0.046982769

  Shift w.r.t. Gamma in fractional coordinates (k-lattice)
     0.000000000  0.000000000  0.000000000

 TETIRR: Found     36 inequivalent tetrahedra from      384
 
 Subroutine IBZKPT returns following result:
 ===========================================
 
 Found     10 irreducible k-points:
 
 Following reciprocal coordinates:
            Coordinates               Weight
  0.000000  0.000000  0.000000      1.000000
  0.125000 -0.000000  0.000000      6.000000
  0.250000 -0.000000  0.000000      6.000000
  0.375000 -0.000000  0.000000      6.000000
  0.500000 -0.000000  0.000000      3.000000
  0.250000  0.125000  0.000000      6.000000
  0.375000  0.125000  0.000000     12.000000
  0.500000  0.125000  0.000000     12.000000
  0.500000  0.250000  0.000000      6.000000
 -0.375000  0.250000  0.000000      6.000000
 
 Following cartesian coordinates:
            Coordinates               Weight
  0.000000  0.000000  0.000000      1.000000
  0.016241 -0.009376  0.000000      6.000000
  0.032481 -0.018753  0.000000      6.000000
  0.048722 -0.028129  0.000000      6.000000
  0.064962 -0.037506  0.000000      3.000000
  0.032481  0.000000  0.000000      6.000000
  0.048722 -0.009376  0.000000     12.000000
  0.064962 -0.018753  0.000000     12.000000
  0.064962  0.000000  0.000000      6.000000
 -0.048722  0.065635  0.000000      6.000000
 


--------------------------------------------------------------------------------------------------------




 Dimension of arrays:
   k-points           NKPTS =     10   k-points in BZ     NKDIM =     10   number of bands    NBANDS=    252
   number of dos      NEDOS =    301   number of ions     NIONS =     37
   non local maximal  LDIM  =      6   non local SUM 2l+1 LMDIM =     18
   total plane-waves  NPLWV = 211680
   max r-space proj   IRMAX =   2893   max aug-charges    IRDMAX=  13310
   dimension x,y,z NGX =    42 NGY =   42 NGZ =  120
   dimension x,y,z NGXF=    84 NGYF=   84 NGZF=  240
   support grid    NGXF=    84 NGYF=   84 NGZF=  240
   ions per type =              35   1   1
   NGX,Y,Z   is equivalent  to a cutoff of   9.07,  9.07,  9.37 a.u.
   NGXF,Y,Z  is equivalent  to a cutoff of  18.14, 18.14, 18.75 a.u.

 SYSTEM =  unknown system                          
 POSCAR =  Cu-Ru-O                                 

 Startparameter for this run:
   NWRITE =      2    write-flag & timer
   PREC   = normal    normal or accurate (medium, high low for compatibility)
   ISTART =      0    job   : 0-new  1-cont  2-samecut
   ICHARG =     11    charge: 1-file 2-atom 10-const
   ISPIN  =      1    spin polarized calculation?
   LNONCOLLINEAR =      F non collinear calculations
   LSORBIT =      F    spin-orbit coupling
   INIWAV =      1    electr: 0-lowe 1-rand  2-diag
   LASPH  =      F    aspherical Exc in radial PAW
   METAGGA=      F    non-selfconsistent MetaGGA calc.

 Electronic Relaxation 1
   ENCUT  =  500.0 eV  36.75 Ry    6.06 a.u.  14.03 14.03 38.81*2*pi/ulx,y,z
   ENINI  =  500.0     initial cutoff
   ENAUG  =  605.4 eV  augmentation charge cutoff
   NELM   =    150;   NELMIN=  2; NELMDL= -5     # of ELM steps 
   EDIFF  = 0.1E-04   stopping-criterion for ELM
   LREAL  =      T    real-space projection
   NLSPLINE    = F    spline interpolate recip. space projectors
   LCOMPAT=      F    compatible to vasp.4.4
   GGA_COMPAT  = T    GGA compatible to vasp.4.4-vasp.4.6
   LMAXPAW     = -100 max onsite density
   LMAXMIX     =    2 max onsite mixed and CHGCAR
   VOSKOWN=      0    Vosko Wilk Nusair interpolation
   ROPT   =   -0.00050  -0.00050  -0.00050
 Ionic relaxation
   EDIFFG = -.1E-01   stopping-criterion for IOM
   NSW    =      0    number of steps for IOM
   NBLOCK =      1;   KBLOCK =      1    inner block; outer block 
   IBRION =     -1    ionic relax: 0-MD 1-quasi-New 2-CG
   NFREE  =      1    steps in history (QN), initial steepest desc. (CG)
   ISIF   =      2    stress and relaxation
   IWAVPR =     10    prediction:  0-non 1-charg 2-wave 3-comb
   ISYM   =      2    0-nonsym 1-usesym 2-fastsym
   LCORR  =      T    Harris-Foulkes like correction to forces

   POTIM  = 0.5000    time-step for ionic-motion
   TEIN   =    0.0    initial temperature
   TEBEG  =    0.0;   TEEND  =   0.0 temperature during run
   SMASS  =  -3.00    Nose mass-parameter (am)
   estimated Nose-frequenzy (Omega)   =  0.10E-29 period in steps = 0.13E+47 mass=  -0.135E-26a.u.
   SCALEE = 1.0000    scale energy and forces
   NPACO  =    256;   APACO  = 16.0  distance and # of slots for P.C.
   PSTRESS=    0.0 pullay stress

  Mass of Ions in am
   POMASS =  63.55101.07 16.00
  Ionic Valenz
   ZVAL   =  11.00  8.00  6.00
  Atomic Wigner-Seitz radii
   RWIGS  =  -1.00 -1.00 -1.00
  virtual crystal weights 
   VCA    =   1.00  1.00  1.00
   NELECT =     399.0000    total number of electrons
   NUPDOWN=      -1.0000    fix difference up-down

 DOS related values:
   EMIN   =  10.00;   EMAX   =-10.00  energy-range for DOS
   EFERMI =   0.00
   ISMEAR =    -5;   SIGMA  =   0.10  broadening in eV -4-tet -1-fermi 0-gaus

 Electronic relaxation 2 (details)
   IALGO  =     68    algorithm
   LDIAG  =      T    sub-space diagonalisation (order eigenvalues)
   LSUBROT=      F    optimize rotation matrix (better conditioning)
   TURBO    =      0    0=normal 1=particle mesh
   IRESTART =      0    0=no restart 2=restart with 2 vectors
   NREBOOT  =      0    no. of reboots
   NMIN     =      0    reboot dimension
   EREF     =   0.00    reference energy to select bands
   IMIX   =      4    mixing-type and parameters
     AMIX     =   0.40;   BMIX     =  1.00
     AMIX_MAG =   1.60;   BMIX_MAG =  1.00
     AMIN     =   0.10
     WC   =   100.;   INIMIX=   1;  MIXPRE=   1;  MAXMIX= -45

 Intra band minimization:
   WEIMIN = 0.0000     energy-eigenvalue tresh-hold
   EBREAK =  0.99E-08  absolut break condition
   DEPER  =   0.30     relativ break condition  

   TIME   =   0.40     timestep for ELM

  volume/ion in A,a.u.               =      29.51       199.16
  Fermi-wavevector in a.u.,A,eV,Ry     =   1.170385  2.211707 18.637282  1.369802
  Thomas-Fermi vector in A             =   2.306844
 
 Write flags
   LWAVE        =      F    write WAVECAR
   LDOWNSAMPLE  =      F    k-point downsampling of WAVECAR
   LCHARG       =      F    write CHGCAR
   LVTOT        =      F    write LOCPOT, total local potential
   LVHAR        =      F    write LOCPOT, Hartree potential only
   LELF         =      F    write electronic localiz. function (ELF)
   LORBIT       =     10    0 simple, 1 ext, 2 COOP (PROOUT), +10 PAW based schemes


 Dipole corrections
   LMONO  =      F    monopole corrections only (constant potential shift)
   LDIPOL =      F    correct potential (dipole corrections)
   IDIPOL =      0    1-x, 2-y, 3-z, 4-all directions 
   EPSILON=  1.0000000 bulk dielectric constant

 Exchange correlation treatment:
   GGA     =    --    GGA type
   LEXCH   =     8    internal setting for exchange type
   VOSKOWN=      0    Vosko Wilk Nusair interpolation
   LHFCALC =     F    Hartree Fock is set to
   LHFONE  =     F    Hartree Fock one center treatment
   AEXX    =    0.0000 exact exchange contribution

 Linear response parameters
   LEPSILON=     F    determine dielectric tensor
   LRPA    =     F    only Hartree local field effects (RPA)
   LNABLA  =     F    use nabla operator in PAW spheres
   LVEL    =     F    velocity operator in full k-point grid
   LINTERFAST=   F  fast interpolation
   KINTER  =     0    interpolate to denser k-point grid
   CSHIFT  =0.1000    complex shift for real part using Kramers Kronig
   OMEGAMAX=  -1.0    maximum frequency
   DEG_THRESHOLD= 0.2000000E-02 threshold for treating states as degnerate
   RTIME   =   -0.100 relaxation time in fs
  (WPLASMAI=    0.000 imaginary part of plasma frequency in eV, 0.658/RTIME)
   DFIELD  = 0.0000000 0.0000000 0.0000000 field for delta impulse in time
 
 Orbital magnetization related:
   ORBITALMAG=     F  switch on orbital magnetization
   LCHIMAG   =     F  perturbation theory with respect to B field
   DQ        =  0.001000  dq finite difference perturbation B field
   LLRAUG    =     F  two centre corrections for induced B field



--------------------------------------------------------------------------------------------------------


 Static calculation
 charge density and potential remain constant during run
 non-spin polarized calculation
 RMM-DIIS sequential band-by-band and
  variant of blocked Davidson during initial phase
 perform sub-space diagonalisation
    before iterative eigenvector-optimisation
 no mixing
 using additional bands           52
 real space projection scheme for non local part
 use partial core corrections
 calculate Harris-corrections to forces 
   (improved forces if not selfconsistent)
 use gradient corrections 
 WARNING: stress and forces are not correct
  (second derivative of E(xc) not defined)
 use of overlap-Matrix (Vanderbilt PP)
 Fermi weights with tetrahedron method with Bloechl corrections


--------------------------------------------------------------------------------------------------------


  energy-cutoff  :      500.00
  volume of cell :     1091.97
      direct lattice vectors                 reciprocal lattice vectors
     7.696786404  0.000000000  0.000000000     0.129924354 -0.075011849  0.000000000
     3.848392758  6.665612809  0.000000000     0.000000000  0.150023716  0.000000000
     0.000000000  0.000000000 21.284399033     0.000000000  0.000000000  0.046982769

  length of vectors
     7.696786404  7.696786404 21.284399033     0.150023716  0.150023716  0.046982769


 
 k-points in units of 2pi/SCALE and weight: Automatic mesh                          
   0.00000000  0.00000000  0.00000000       0.016
   0.01624054 -0.00937648  0.00000000       0.094
   0.03248109 -0.01875296  0.00000000       0.094
   0.04872163 -0.02812944  0.00000000       0.094
   0.06496218 -0.03750592  0.00000000       0.047
   0.03248109  0.00000000  0.00000000       0.094
   0.04872163 -0.00937648  0.00000000       0.188
   0.06496218 -0.01875296  0.00000000       0.188
   0.06496218  0.00000000  0.00000000       0.094
  -0.04872163  0.06563537  0.00000000       0.094
 
 k-points in reciprocal lattice and weights: Automatic mesh                          
   0.00000000  0.00000000  0.00000000       0.016
   0.12500000 -0.00000000  0.00000000       0.094
   0.25000000 -0.00000000  0.00000000       0.094
   0.37500000 -0.00000000  0.00000000       0.094
   0.50000000 -0.00000000  0.00000000       0.047
   0.25000000  0.12500000  0.00000000       0.094
   0.37500000  0.12500000  0.00000000       0.188
   0.50000000  0.12500000  0.00000000       0.188
   0.50000000  0.25000000  0.00000000       0.094
  -0.37500000  0.25000000  0.00000000       0.094
 
 position of ions in fractional coordinates (direct lattice) 
   0.00000000  0.00000000  0.25237075
   0.33333334  0.00000000  0.25237075
   0.66666669  0.00000000  0.25237075
   0.00000000  0.33333334  0.25237075
   0.33333331  0.33333334  0.25237075
   0.66666669  0.33333334  0.25237075
   0.00000000  0.66666669  0.25237075
   0.33333337  0.66666669  0.25237075
   0.66666663  0.66666669  0.25237075
   0.11111112  0.11111111  0.35079026
   0.44444442  0.11111111  0.35079026
   0.77777779  0.11111111  0.35079026
   0.11111112  0.44444445  0.35079026
   0.44444448  0.44444445  0.35079026
   0.77777773  0.44444445  0.35079026
   0.11111111  0.77777773  0.35079026
   0.44444448  0.77777773  0.35079026
   0.77777785  0.77777773  0.35079026
   0.88867178  0.22265645  0.44893672
   0.22184804  0.22184803  0.44821468
   0.55630397  0.22184803  0.44821468
   0.88834510  0.55582742  0.44928435
   0.22184801  0.55630391  0.44821468
   0.55582748  0.55582742  0.44928435
   0.88867178  0.88867178  0.44893672
   0.22265646  0.88867178  0.44893672
   0.55582742  0.88834510  0.44928435
   0.00000000  0.00000000  0.54646062
   0.33285223  0.99927548  0.54759897
   0.66787232  0.99927548  0.54759897
   0.99927548  0.33285223  0.54759897
   0.66787232  0.33285223  0.54759897
   0.99927548  0.66787232  0.54759897
   0.33285226  0.66787232  0.54759897
   0.66666663  0.66666669  0.54665183
   0.33333331  0.33333334  0.54560551
   0.33333331  0.33333334  0.62699671
 
 position of ions in cartesian coordinates  (Angst):
   0.00000000  0.00000000  5.37155964
   2.56559554  0.00000000  5.37155964
   5.13119109  0.00000000  5.37155964
   1.28279762  2.22187100  5.37155964
   3.84839293  2.22187100  5.37155964
   6.41398872  2.22187100  5.37155964
   2.56559525  4.44374201  5.37155964
   5.13119102  4.44374201  5.37155964
   7.69678588  4.44374201  5.37155964
   1.28279775  0.74062365  7.46635991
   3.84839295  0.74062365  7.46635991
   6.41398873  0.74062365  7.46635991
   2.56559535  2.96249461  7.46635991
   5.13119101  2.96249461  7.46635991
   7.69678586  2.96249461  7.46635991
   3.84839268  5.18436521  7.46635991
   6.41398840  5.18436521  7.46635991
   8.97958418  5.18436521  7.46635991
   7.69678637  1.48414167  9.55534820
   2.56127537  1.47875307  9.53998003
   5.13551119  1.47875307  9.53998003
   8.97644469  3.70493038  9.56274745
   3.84839272  3.70810647  9.53998003
   6.41712762  3.70493038  9.56274745
  10.25987497  5.92354203  9.55534820
   5.13369729  5.92354203  9.55534820
   7.69678578  5.92136446  9.56274745
   0.00000000  0.00000000 11.63108579
   6.40749703  6.66078344 11.65531494
   8.98607512  6.66078344 11.65531494
   8.97215604  2.21866408 11.65531494
   6.42141670  2.21866408 11.65531494
  10.26144493  4.45177829 11.65531494
   5.13212775  4.45177829 11.65531494
   7.69678588  4.44374201 11.63515560
   3.84839293  2.22187100 11.61288542
   3.84839293  2.22187100 13.34524825
 


--------------------------------------------------------------------------------------------------------


 k-point   1 :   0.0000 0.0000 0.0000  plane waves:   27671
 k-point   2 :   0.1250-0.0000 0.0000  plane waves:   27649
 k-point   3 :   0.2500-0.0000 0.0000  plane waves:   27714
 k-point   4 :   0.3750-0.0000 0.0000  plane waves:   27740
 k-point   5 :   0.5000-0.0000 0.0000  plane waves:   27782
 k-point   6 :   0.2500 0.1250 0.0000  plane waves:   27698
 k-point   7 :   0.3750 0.1250 0.0000  plane waves:   27702
 k-point   8 :   0.5000 0.1250 0.0000  plane waves:   27747
 k-point   9 :   0.5000 0.2500 0.0000  plane waves:   27734
 k-point  10 :  -0.3750 0.2500 0.0000  plane waves:   27782

 maximum and minimum number of plane-waves per node :     27782    27649

 maximum number of plane-waves:     27782
 maximum index in each direction: 
   IXMAX=   14   IYMAX=   14   IZMAX=   38
   IXMIN=  -14   IYMIN=  -14   IZMIN=  -38


 serial   3D FFT for wavefunctions
 parallel 3D FFT for charge:
    minimum data exchange during FFTs selected (reduces bandwidth)


 total amount of memory used by VASP MPI-rank0   104515. kBytes
=======================================================================

   base      :      30000. kBytes
   nonlr-proj:      17629. kBytes
   fftplans  :       2916. kBytes
   grid      :      12390. kBytes
   one-center:        575. kBytes
   wavefun   :      41005. kBytes
 
     INWAV:  cpu time    0.0000: real time    0.0000
 initial charge density was supplied:
 number of electron     399.0000006 magnetization 
 keeping initial charge density in first step


--------------------------------------------------------------------------------------------------------


 Maximum index for non-local projection operator         2777
 Maximum index for augmentation-charges          609 (set IRDMAX)


--------------------------------------------------------------------------------------------------------


 First call to EWALD:  gamma=   0.172
 Maximum number of real-space cells 4x 4x 2
 Maximum number of reciprocal cells 2x 2x 5

    FEWALD:  cpu time    0.0015: real time    0.0015


--------------------------------------- Iteration      1(   1)  ---------------------------------------


    POTLOK:  cpu time    0.0281: real time    0.0285
    SETDIJ:  cpu time    0.0043: real time    0.0045
     EDDAV:  cpu time    5.7153: real time    5.7168
 BZINTS: Fermi energy:   14.085892;  399.000000 electrons
         Band energy: 0.263442E+04;  BLOECHL correction:   -0.007556
       DOS:  cpu time    0.0107: real time    0.0108
    --------------------------------------------
      LOOP:  cpu time    5.7585: real time    5.7606

 eigenvalue-minimisations  :  5040
 total energy-change (2. order) : 0.3626614E+04  (-0.1717660E+05)
 number of electron     399.0000006 magnetization 
 augmentation part      399.0000006 magnetization 

 Free energy of the ion-electron system (eV)
  ---------------------------------------------------
  alpha Z        PSCENC =       879.67415224
  Ewald energy   TEWEN  =    146997.53674702
  -Hartree energ DENC   =   -194285.59311961
  -exchange      EXHF   =         0.00000000
  -V(xc)+E(xc)   XCENC  =      1553.79849232
  PAW double counting   =     46811.65232596   -50536.29010829
  entropy T*S    EENTRO =         0.00000000
  eigenvalues    EBANDS =      2634.41745584
  atomic energy  EATOM  =     49571.41767366
  Solvation  Ediel_sol  =         0.00000000
  ---------------------------------------------------
  free energy    TOTEN  =      3626.61361915 eV

  energy without entropy =     3626.61361915  energy(sigma->0) =     3626.61361915


--------------------------------------------------------------------------------------------------------




--------------------------------------- Iteration      1(   2)  ---------------------------------------


     EDDAV:  cpu time    5.6853: real time    5.6886
 BZINTS: Fermi energy:    3.163432;  399.000000 electrons
         Band energy:-0.623004E+03;  BLOECHL correction:   -0.017608
       DOS:  cpu time    0.0101: real time    0.0101
    --------------------------------------------
      LOOP:  cpu time    5.6954: real time    5.6987

 eigenvalue-minimisations  :  5040
 total energy-change (2. order) :-0.3257422E+04  (-0.3121357E+04)
 number of electron     399.0000006 magnetization 
 augmentation part      399.0000006 magnetization 

 Free energy of the ion-electron system (eV)
  ---------------------------------------------------
  alpha Z        PSCENC =       879.67415224
  Ewald energy   TEWEN  =    146997.53674702
  -Hartree energ DENC   =   -194285.59311961
  -exchange      EXHF   =         0.00000000
  -V(xc)+E(xc)   XCENC  =      1553.79849232
  PAW double counting   =     46811.65232596   -50536.29010829
  entropy T*S    EENTRO =         0.00000000
  eigenvalues    EBANDS =      -623.00420862
  atomic energy  EATOM  =     49571.41767366
  Solvation  Ediel_sol  =         0.00000000
  ---------------------------------------------------
  free energy    TOTEN  =       369.19195468 eV

  energy without entropy =      369.19195468  energy(sigma->0) =      369.19195468


--------------------------------------------------------------------------------------------------------




--------------------------------------- Iteration      1(   3)  ---------------------------------------


     EDDAV:  cpu time    6.1255: real time    6.1256
 BZINTS: Fermi energy:    0.305346;  399.000000 electrons
         Band energy:-0.109734E+04;  BLOECHL correction:   -0.082604
       DOS:  cpu time    0.0099: real time    0.0099
    --------------------------------------------
      LOOP:  cpu time    6.1353: real time    6.1355

 eigenvalue-minimisations  :  5516
 total energy-change (2. order) :-0.4743347E+03  (-0.4454599E+03)
 number of electron     399.0000006 magnetization 
 augmentation part      399.0000006 magnetization 

 Free energy of the ion-electron system (eV)
  ---------------------------------------------------
  alpha Z        PSCENC =       879.67415224
  Ewald energy   TEWEN  =    146997.53674702
  -Hartree energ DENC   =   -194285.59311961
  -exchange      EXHF   =         0.00000000
  -V(xc)+E(xc)   XCENC  =      1553.79849232
  PAW double counting   =     46811.65232596   -50536.29010829
  entropy T*S    EENTRO =         0.00000000
  eigenvalues    EBANDS =     -1097.33890235
  atomic energy  EATOM  =     49571.41767366
  Solvation  Ediel_sol  =         0.00000000
  ---------------------------------------------------
  free energy    TOTEN  =      -105.14273905 eV

  energy without entropy =     -105.14273905  energy(sigma->0) =     -105.14273905


--------------------------------------------------------------------------------------------------------




--------------------------------------- Iteration      1(   4)  ---------------------------------------


     EDDAV:  cpu time    7.8530: real time    7.8532
 BZINTS: Fermi energy:    0.093727;  399.000000 electrons
         Band energy:-0.112814E+04;  BLOECHL correction:   -0.049699
       DOS:  cpu time    0.0103: real time    0.0103
    --------------------------------------------
      LOOP:  cpu time    7.8633: real time    7.8635

 eigenvalue-minimisations  :  7420
 total energy-change (2. order) :-0.3079773E+02  (-0.2946988E+02)
 number of electron     399.0000006 magnetization 
 augmentation part      399.0000006 magnetization 

 Free energy of the ion-electron system (eV)
  ---------------------------------------------------
  alpha Z        PSCENC =       879.67415224
  Ewald energy   TEWEN  =    146997.53674702
  -Hartree energ DENC   =   -194285.59311961
  -exchange      EXHF   =         0.00000000
  -V(xc)+E(xc)   XCENC  =      1553.79849232
  PAW double counting   =     46811.65232596   -50536.29010829
  entropy T*S    EENTRO =         0.00000000
  eigenvalues    EBANDS =     -1128.13663518
  atomic energy  EATOM  =     49571.41767366
  Solvation  Ediel_sol  =         0.00000000
  ---------------------------------------------------
  free energy    TOTEN  =      -135.94047187 eV

  energy without entropy =     -135.94047187  energy(sigma->0) =     -135.94047187


--------------------------------------------------------------------------------------------------------




--------------------------------------- Iteration      1(   5)  ---------------------------------------


     EDDAV:  cpu time    6.3817: real time    6.3819
 BZINTS: Fermi energy:    0.082419;  399.000000 electrons
         Band energy:-0.112879E+04;  BLOECHL correction:   -0.047153
       DOS:  cpu time    0.0103: real time    0.0103
    --------------------------------------------
      LOOP:  cpu time    6.3921: real time    6.3923

 eigenvalue-minimisations  :  5796
 total energy-change (2. order) :-0.6517699E+00  (-0.6478992E+00)
 number of electron     399.0000006 magnetization 
 augmentation part      399.0000006 magnetization 

 Free energy of the ion-electron system (eV)
  ---------------------------------------------------
  alpha Z        PSCENC =       879.67415224
  Ewald energy   TEWEN  =    146997.53674702
  -Hartree energ DENC   =   -194285.59311961
  -exchange      EXHF   =         0.00000000
  -V(xc)+E(xc)   XCENC  =      1553.79849232
  PAW double counting   =     46811.65232596   -50536.29010829
  entropy T*S    EENTRO =         0.00000000
  eigenvalues    EBANDS =     -1128.78840510
  atomic energy  EATOM  =     49571.41767366
  Solvation  Ediel_sol  =         0.00000000
  ---------------------------------------------------
  free energy    TOTEN  =      -136.59224179 eV

  energy without entropy =     -136.59224179  energy(sigma->0) =     -136.59224179


--------------------------------------------------------------------------------------------------------




--------------------------------------- Iteration      1(   6)  ---------------------------------------


    EDDIAG:  cpu time    1.0545: real time    1.0546
  RMM-DIIS:  cpu time    3.0844: real time    3.0846
    ORTHCH:  cpu time    0.2090: real time    0.2090
 BZINTS: Fermi energy:    0.082342;  399.000000 electrons
         Band energy:-0.112880E+04;  BLOECHL correction:   -0.047128
       DOS:  cpu time    0.0102: real time    0.0102
    --------------------------------------------
      LOOP:  cpu time    4.3582: real time    4.3585

 eigenvalue-minimisations  :  5392
 total energy-change (2. order) :-0.1170647E-01  (-0.1170633E-01)
 number of electron     399.0000006 magnetization 
 augmentation part      399.0000006 magnetization 

 Free energy of the ion-electron system (eV)
  ---------------------------------------------------
  alpha Z        PSCENC =       879.67415224
  Ewald energy   TEWEN  =    146997.53674702
  -Hartree energ DENC   =   -194285.59311961
  -exchange      EXHF   =         0.00000000
  -V(xc)+E(xc)   XCENC  =      1553.79849232
  PAW double counting   =     46811.65232596   -50536.29010829
  entropy T*S    EENTRO =         0.00000000
  eigenvalues    EBANDS =     -1128.80011156
  atomic energy  EATOM  =     49571.41767366
  Solvation  Ediel_sol  =         0.00000000
  ---------------------------------------------------
  free energy    TOTEN  =      -136.60394826 eV

  energy without entropy =     -136.60394826  energy(sigma->0) =     -136.60394826


--------------------------------------------------------------------------------------------------------




--------------------------------------- Iteration      1(   7)  ---------------------------------------


    EDDIAG:  cpu time    1.0544: real time    1.0544
  RMM-DIIS:  cpu time    4.4234: real time    4.4235
    ORTHCH:  cpu time    0.2071: real time    0.2071
 BZINTS: Fermi energy:    0.082320;  399.000000 electrons
         Band energy:-0.112881E+04;  BLOECHL correction:   -0.047120
       DOS:  cpu time    0.0103: real time    0.0103
    --------------------------------------------
      LOOP:  cpu time    5.6952: real time    5.6953

 eigenvalue-minimisations  :  7752
 total energy-change (2. order) :-0.5169437E-02  (-0.5118356E-02)
 number of electron     399.0000006 magnetization 
 augmentation part      399.0000006 magnetization 

 Free energy of the ion-electron system (eV)
  ---------------------------------------------------
  alpha Z        PSCENC =       879.67415224
  Ewald energy   TEWEN  =    146997.53674702
  -Hartree energ DENC   =   -194285.59311961
  -exchange      EXHF   =         0.00000000
  -V(xc)+E(xc)   XCENC  =      1553.79849232
  PAW double counting   =     46811.65232596   -50536.29010829
  entropy T*S    EENTRO =         0.00000000
  eigenvalues    EBANDS =     -1128.80528100
  atomic energy  EATOM  =     49571.41767366
  Solvation  Ediel_sol  =         0.00000000
  ---------------------------------------------------
  free energy    TOTEN  =      -136.60911770 eV

  energy without entropy =     -136.60911770  energy(sigma->0) =     -136.60911770


--------------------------------------------------------------------------------------------------------




--------------------------------------- Iteration      1(   8)  ---------------------------------------


    EDDIAG:  cpu time    1.0540: real time    1.0543
  RMM-DIIS:  cpu time    3.7061: real time    3.7062
    ORTHCH:  cpu time    0.2076: real time    0.2076
 BZINTS: Fermi energy:    0.082316;  399.000000 electrons
         Band energy:-0.112881E+04;  BLOECHL correction:   -0.047120
       DOS:  cpu time    0.0102: real time    0.0103
    --------------------------------------------
      LOOP:  cpu time    4.9780: real time    4.9783

 eigenvalue-minimisations  :  6539
 total energy-change (2. order) :-0.2690125E-03  (-0.2985590E-03)
 number of electron     399.0000006 magnetization 
 augmentation part      399.0000006 magnetization 

 Free energy of the ion-electron system (eV)
  ---------------------------------------------------
  alpha Z        PSCENC =       879.67415224
  Ewald energy   TEWEN  =    146997.53674702
  -Hartree energ DENC   =   -194285.59311961
  -exchange      EXHF   =         0.00000000
  -V(xc)+E(xc)   XCENC  =      1553.79849232
  PAW double counting   =     46811.65232596   -50536.29010829
  entropy T*S    EENTRO =         0.00000000
  eigenvalues    EBANDS =     -1128.80555001
  atomic energy  EATOM  =     49571.41767366
  Solvation  Ediel_sol  =         0.00000000
  ---------------------------------------------------
  free energy    TOTEN  =      -136.60938671 eV

  energy without entropy =     -136.60938671  energy(sigma->0) =     -136.60938671


--------------------------------------------------------------------------------------------------------




--------------------------------------- Iteration      1(   9)  ---------------------------------------


    EDDIAG:  cpu time    1.0524: real time    1.0525
  RMM-DIIS:  cpu time    4.3904: real time    4.3904
    ORTHCH:  cpu time    0.2072: real time    0.2072
 BZINTS: Fermi energy:    0.082316;  399.000000 electrons
         Band energy:-0.112881E+04;  BLOECHL correction:   -0.047120
       DOS:  cpu time    0.0100: real time    0.0100
    --------------------------------------------
      LOOP:  cpu time    5.6600: real time    5.6602

 eigenvalue-minimisations  :  7683
 total energy-change (2. order) :-0.7650259E-04  (-0.7657226E-04)
 number of electron     399.0000006 magnetization 
 augmentation part      399.0000006 magnetization 

 Free energy of the ion-electron system (eV)
  ---------------------------------------------------
  alpha Z        PSCENC =       879.67415224
  Ewald energy   TEWEN  =    146997.53674702
  -Hartree energ DENC   =   -194285.59311961
  -exchange      EXHF   =         0.00000000
  -V(xc)+E(xc)   XCENC  =      1553.79849232
  PAW double counting   =     46811.65232596   -50536.29010829
  entropy T*S    EENTRO =         0.00000000
  eigenvalues    EBANDS =     -1128.80562652
  atomic energy  EATOM  =     49571.41767366
  Solvation  Ediel_sol  =         0.00000000
  ---------------------------------------------------
  free energy    TOTEN  =      -136.60946321 eV

  energy without entropy =     -136.60946321  energy(sigma->0) =     -136.60946321


--------------------------------------------------------------------------------------------------------




--------------------------------------- Iteration      1(  10)  ---------------------------------------


    EDDIAG:  cpu time    1.0534: real time    1.0537
  RMM-DIIS:  cpu time    2.6638: real time    2.6638
    ORTHCH:  cpu time    0.2076: real time    0.2076
 BZINTS: Fermi energy:    0.082316;  399.000000 electrons
         Band energy:-0.112881E+04;  BLOECHL correction:   -0.047120
       DOS:  cpu time    0.0100: real time    0.0100
    --------------------------------------------
      LOOP:  cpu time    3.9349: real time    3.9351

 eigenvalue-minimisations  :  4213
 total energy-change (2. order) :-0.4154950E-05  (-0.4372206E-05)
 number of electron     399.0000006 magnetization 
 augmentation part      399.0000006 magnetization 

 Free energy of the ion-electron system (eV)
  ---------------------------------------------------
  alpha Z        PSCENC =       879.67415224
  Ewald energy   TEWEN  =    146997.53674702
  -Hartree energ DENC   =   -194285.59311961
  -exchange      EXHF   =         0.00000000
  -V(xc)+E(xc)   XCENC  =      1553.79849232
  PAW double counting   =     46811.65232596   -50536.29010829
  entropy T*S    EENTRO =         0.00000000
  eigenvalues    EBANDS =     -1128.80563067
  atomic energy  EATOM  =     49571.41767366
  Solvation  Ediel_sol  =         0.00000000
  ---------------------------------------------------
  free energy    TOTEN  =      -136.60946737 eV

  energy without entropy =     -136.60946737  energy(sigma->0) =     -136.60946737


--------------------------------------------------------------------------------------------------------




 average (electrostatic) potential at core
  the test charge radii are     0.9430  1.2511  0.7215
  (the norm of the test charge is              1.0000)
       1 -70.8918       2 -70.8872       3 -70.8871       4 -70.8872       5 -70.8887
       6 -70.8868       7 -70.8871       8 -70.8868       9 -70.9124      10 -71.1609
      11 -71.1433      12 -71.1606      13 -71.1433      14 -71.1430      15 -71.1466
      16 -71.1606      17 -71.1466      18 -71.1466      19 -71.1257      20 -71.2476
      21 -71.2475      22 -71.1465      23 -71.2475      24 -71.1465      25 -71.1255
      26 -71.1258      27 -71.1465      28 -70.8114      29 -70.8871      30 -70.8870
      31 -70.8871      32 -70.8869      33 -70.8870      34 -70.8869      35 -70.8256
      36 -68.7312      37 -76.3840
 
 
 
 E-fermi :   0.0823     XC(G=0):  -5.9337     alpha+bet : -5.3955

 Fermi energy:         0.0823161448

 k-point     1 :       0.0000    0.0000    0.0000
  band No.  band energies     occupation 
      1     -18.3577      2.00000
      2      -8.7178      2.00000
      3      -7.4085      2.00000
      4      -5.9459      2.00000
      5      -5.7763      2.00000
      6      -5.7762      2.00000
      7      -5.7258      2.00000
      8      -5.7256      2.00000
      9      -5.7164      2.00000
     10      -5.6760      2.00000
     11      -5.3287      2.00000
     12      -5.0500      2.00000
     13      -5.0500      2.00000
     14      -4.9981      2.00000
     15      -4.9980      2.00000
     16      -4.9515      2.00000
     17      -4.8972      2.00000
     18      -4.8043      2.00000
     19      -4.8043      2.00000
     20      -4.7349      2.00000
     21      -4.3702      2.00000
     22      -4.3702      2.00000
     23      -4.2480      2.00000
     24      -4.2420      2.00000
     25      -4.2419      2.00000
     26      -4.1925      2.00000
     27      -3.9760      2.00000
     28      -3.9760      2.00000
     29      -3.9573      2.00000
     30      -3.9572      2.00000
     31      -3.9564      2.00000
     32      -3.9330      2.00000
     33      -3.8406      2.00000
     34      -3.8406      2.00000
     35      -3.7889      2.00000
     36      -3.7889      2.00000
     37      -3.7838      2.00000
     38      -3.7745      2.00000
     39      -3.7606      2.00000
     40      -3.7606      2.00000
     41      -3.7273      2.00000
     42      -3.7080      2.00000
     43      -3.7080      2.00000
     44      -3.6966      2.00000
     45      -3.6429      2.00000
     46      -3.6429      2.00000
     47      -3.6350      2.00000
     48      -3.6350      2.00000
     49      -3.5232      2.00000
     50      -3.5074      2.00000
     51      -3.4615      2.00000
     52      -3.4615      2.00000
     53      -3.4426      2.00000
     54      -3.4296      2.00000
     55      -3.3930      2.00000
     56      -3.3873      2.00000
     57      -3.3873      2.00000
     58      -3.3506      2.00000
     59      -3.1038      2.00000
     60      -3.1038      2.00000
     61      -3.0994      2.00000
     62      -3.0881      2.00000
     63      -3.0516      2.00000
     64      -3.0516      2.00000
     65      -3.0015      2.00000
     66      -3.0015      2.00000
     67      -2.9898      2.00000
     68      -2.9897      2.00000
     69      -2.9875      2.00000
     70      -2.9470      2.00000
     71      -2.9470      2.00000
     72      -2.9411      2.00000
     73      -2.9323      2.00000
     74      -2.9323      2.00000
     75      -2.9249      2.00000
     76      -2.8598      2.00000
     77      -2.8598      2.00000
     78      -2.8502      2.00000
     79      -2.8078      2.00000
     80      -2.8078      2.00000
     81      -2.7570      2.00000
     82      -2.7570      2.00000
     83      -2.7454      2.00000
     84      -2.7367      2.00000
     85      -2.7367      2.00000
     86      -2.7171      2.00000
     87      -2.6807      2.00000
     88      -2.6806      2.00000
     89      -2.6716      2.00000
     90      -2.6504      2.00000
     91      -2.6503      2.00000
     92      -2.6423      2.00000
     93      -2.6159      2.00000
     94      -2.6159      2.00000
     95      -2.5937      2.00000
     96      -2.5937      2.00000
     97      -2.5768      2.00000
     98      -2.5768      2.00000
     99      -2.5586      2.00000
    100      -2.5530      2.00000
    101      -2.5529      2.00000
    102      -2.5414      2.00000
    103      -2.5414      2.00000
    104      -2.4997      2.00000
    105      -2.4974      2.00000
    106      -2.4974      2.00000
    107      -2.4784      2.00000
    108      -2.4784      2.00000
    109      -2.3897      2.00000
    110      -2.3897      2.00000
    111      -2.3789      2.00000
    112      -2.2561      2.00000
    113      -2.2529      2.00000
    114      -2.2485      2.00000
    115      -2.2485      2.00000
    116      -2.2420      2.00000
    117      -2.2420      2.00000
    118      -2.2395      2.00000
    119      -2.2362      2.00000
    120      -2.2362      2.00000
    121      -2.2191      2.00000
    122      -2.2102      2.00000
    123      -2.1933      2.00000
    124      -2.1589      2.00000
    125      -2.1589      2.00000
    126      -2.0558      2.00000
    127      -2.0558      2.00000
    128      -2.0392      2.00000
    129      -2.0392      2.00000
    130      -2.0214      2.00000
    131      -2.0140      2.00000
    132      -2.0140      2.00000
    133      -1.9975      2.00000
    134      -1.9975      2.00000
    135      -1.9628      2.00000
    136      -1.9558      2.00000
    137      -1.9410      2.00000
    138      -1.9409      2.00000
    139      -1.9283      2.00000
    140      -1.9283      2.00000
    141      -1.9256      2.00000
    142      -1.9034      2.00000
    143      -1.9033      2.00000
    144      -1.8332      2.00000
    145      -1.8331      2.00000
    146      -1.8078      2.00000
    147      -1.8078      2.00000
    148      -1.8015      2.00000
    149      -1.7910      2.00000
    150      -1.7821      2.00000
    151      -1.7820      2.00000
    152      -1.7693      2.00000
    153      -1.7692      2.00000
    154      -1.7675      2.00000
    155      -1.7432      2.00000
    156      -1.7432      2.00000
    157      -1.7262      2.00000
    158      -1.6731      2.00000
    159      -1.6627      2.00000
    160      -1.6560      2.00000
    161      -1.6511      2.00000
    162      -1.6511      2.00000
    163      -1.6436      2.00000
    164      -1.6415      2.00000
    165      -1.6414      2.00000
    166      -1.6287      2.00000
    167      -1.6286      2.00000
    168      -1.6078      2.00000
    169      -1.5981      2.00000
    170      -1.5981      2.00000
    171      -1.5886      2.00000
    172      -1.5840      2.00000
    173      -1.5840      2.00000
    174      -1.5806      2.00000
    175      -1.5715      2.00000
    176      -1.5715      2.00000
    177      -1.5712      2.00000
    178      -1.5712      2.00000
    179      -1.5703      2.00000
    180      -1.5671      2.00000
    181      -1.5671      2.00000
    182      -1.5626      2.00000
    183      -1.5612      2.00000
    184      -1.5536      2.00000
    185      -1.5307      2.00000
    186      -1.5307      2.00000
    187      -1.4947      2.00000
    188      -1.4946      2.00000
    189      -1.4604      2.00000
    190      -1.4603      2.00000
    191      -1.4523      2.00000
    192      -1.4449      2.00000
    193      -1.4367      2.00000
    194      -1.4367      2.00000
    195      -1.0290      2.00000
    196      -0.6951      2.00000
    197      -0.6951      2.00000
    198      -0.5581      2.00000
    199      -0.2465      2.00000
    200      -0.2342      2.00000
    201      -0.2342      2.00000
    202      -0.1981      2.00000
    203      -0.1981      2.69660
    204       0.0040      1.15488
    205       0.3908      0.00000
    206       0.3908      0.00000
    207       1.3038      0.00000
    208       2.0806      0.00000
    209       2.0844      0.00000
    210       2.0845      0.00000
    211       2.3013      0.00000
    212       2.3013      0.00000
    213       3.4676      0.00000
    214       3.5195      0.00000
    215       3.7576      0.00000
    216       3.7576      0.00000
    217       3.8124      0.00000
    218       3.9149      0.00000
    219       3.9149      0.00000
    220       4.5458      0.00000
    221       4.5798      0.00000
    222       4.5798      0.00000
    223       4.5996      0.00000
    224       4.5996      0.00000
    225       4.6129      0.00000
    226       4.8210      0.00000
    227       4.8211      0.00000
    228       4.9094      0.00000
    229       5.0377      0.00000
    230       5.0378      0.00000
    231       5.2271      0.00000
    232       5.4456      0.00000
    233       5.8570      0.00000
    234       6.1776      0.00000
    235       6.3001      0.00000
    236       6.4062      0.00000
    237       6.4062      0.00000
    238       6.6764      0.00000
    239       6.6765      0.00000
    240       6.9604      0.00000
    241       6.9604      0.00000
    242       6.9706      0.00000
    243       7.0714      0.00000
    244       7.0715      0.00000
    245       7.1409      0.00000
    246       7.4995      0.00000
    247       7.5675      0.00000
    248       7.5915      0.00000
    249       7.5947      0.00000
    250       7.6453      0.00000
    251       7.6486      0.00000
    252       7.7325      0.00000

 k-point     2 :       0.1250   -0.0000    0.0000
  band No.  band energies     occupation 
      1     -18.3576      2.00000
      2      -8.6626      2.00000
      3      -7.3553      2.00000
      4      -6.3017      2.00000
      5      -6.0028      2.00000
      6      -5.9885      2.00000
      7      -5.8189      2.00000
      8      -5.4752      2.00000
      9      -5.4726      2.00000
     10      -5.3632      2.00000
     11      -5.2945      2.00000
     12      -5.2355      2.00000
     13      -5.1232      2.00000
     14      -5.0390      2.00000
     15      -4.9481      2.00000
     16      -4.9039      2.00000
     17      -4.8388      2.00000
     18      -4.7731      2.00000
     19      -4.7494      2.00000
     20      -4.6200      2.00000
     21      -4.3812      2.00000
     22      -4.3522      2.00000
     23      -4.2653      2.00000
     24      -4.2339      2.00000
     25      -4.2297      2.00000
     26      -4.1799      2.00000
     27      -4.0235      2.00000
     28      -3.9841      2.00000
     29      -3.9692      2.00000
     30      -3.9345      2.00000
     31      -3.9265      2.00000
     32      -3.9177      2.00000
     33      -3.8952      2.00000
     34      -3.8950      2.00000
     35      -3.8663      2.00000
     36      -3.8606      2.00000
     37      -3.8331      2.00000
     38      -3.8138      2.00000
     39      -3.7510      2.00000
     40      -3.7497      2.00000
     41      -3.7336      2.00000
     42      -3.6846      2.00000
     43      -3.6716      2.00000
     44      -3.6493      2.00000
     45      -3.6421      2.00000
     46      -3.6290      2.00000
     47      -3.5792      2.00000
     48      -3.5784      2.00000
     49      -3.5342      2.00000
     50      -3.5198      2.00000
     51      -3.5036      2.00000
     52      -3.4712      2.00000
     53      -3.4611      2.00000
     54      -3.3896      2.00000
     55      -3.3748      2.00000
     56      -3.3642      2.00000
     57      -3.3411      2.00000
     58      -3.3333      2.00000
     59      -3.1856      2.00000
     60      -3.1587      2.00000
     61      -3.1526      2.00000
     62      -3.0966      2.00000
     63      -3.0689      2.00000
     64      -3.0430      2.00000
     65      -3.0276      2.00000
     66      -3.0216      2.00000
     67      -2.9963      2.00000
     68      -2.9959      2.00000
     69      -2.9835      2.00000
     70      -2.9628      2.00000
     71      -2.9473      2.00000
     72      -2.9385      2.00000
     73      -2.9234      2.00000
     74      -2.9212      2.00000
     75      -2.8984      2.00000
     76      -2.8736      2.00000
     77      -2.8548      2.00000
     78      -2.8413      2.00000
     79      -2.7934      2.00000
     80      -2.7846      2.00000
     81      -2.7764      2.00000
     82      -2.7723      2.00000
     83      -2.7521      2.00000
     84      -2.7275      2.00000
     85      -2.7267      2.00000
     86      -2.7103      2.00000
     87      -2.7042      2.00000
     88      -2.6888      2.00000
     89      -2.6843      2.00000
     90      -2.6611      2.00000
     91      -2.6531      2.00000
     92      -2.6302      2.00000
     93      -2.6300      2.00000
     94      -2.6200      2.00000
     95      -2.5990      2.00000
     96      -2.5854      2.00000
     97      -2.5841      2.00000
     98      -2.5644      2.00000
     99      -2.5452      2.00000
    100      -2.5406      2.00000
    101      -2.5383      2.00000
    102      -2.5358      2.00000
    103      -2.5253      2.00000
    104      -2.5101      2.00000
    105      -2.5041      2.00000
    106      -2.4976      2.00000
    107      -2.4647      2.00000
    108      -2.4590      2.00000
    109      -2.4409      2.00000
    110      -2.4278      2.00000
    111      -2.4185      2.00000
    112      -2.3956      2.00000
    113      -2.3573      2.00000
    114      -2.3572      2.00000
    115      -2.3071      2.00000
    116      -2.2654      2.00000
    117      -2.2520      2.00000
    118      -2.2510      2.00000
    119      -2.2468      2.00000
    120      -2.2309      2.00000
    121      -2.2242      2.00000
    122      -2.2227      2.00000
    123      -2.2107      2.00000
    124      -2.2004      2.00000
    125      -2.1631      2.00000
    126      -2.0975      2.00000
    127      -2.0862      2.00000
    128      -2.0640      2.00000
    129      -2.0629      2.00000
    130      -2.0559      2.00000
    131      -2.0067      2.00000
    132      -2.0044      2.00000
    133      -2.0031      2.00000
    134      -1.9959      2.00000
    135      -1.9920      2.00000
[...]
  0.000   0.000   0.000   0.000   0.000   0.000   0.000   0.000   0.000   0.000   0.000   0.000   0.000   0.000   0.000   0.000
  0.000   0.000   0.000   0.000   0.000   0.000   0.000   0.000   0.000   0.000   0.000   0.000   0.000   0.000   0.000   0.000
  0.000   0.000   0.000   0.000   0.000   0.000   0.000   0.000   0.000   0.000   0.000   0.000   0.000   0.000   0.000   0.000
  0.000   0.000   0.000   0.000   0.000   0.000   0.000   0.000   0.000   0.000   0.000   0.000   0.000   0.000   0.000   0.000
  0.000   0.000   0.000   0.000   0.000   0.000   0.000   0.000   0.000   0.000   0.000   0.000   0.000   0.000   0.000   0.000
  0.000   0.000   0.000   0.000   0.000   0.000   0.000   0.000   0.000   0.000   1.000   0.000   0.000   0.000   0.000   0.000
  0.000   0.000   0.000   0.000   0.000   0.000   0.000   0.000   0.000   0.000   0.000   0.000   0.000   0.000   0.000   0.000
  0.000   0.000   0.000   0.000   0.000   0.000   0.000   0.000   0.000   0.000   0.000   0.000   0.000   0.000   0.000   0.000
  0.000   0.000   0.000   0.000   0.000   0.000   0.000   0.000   0.000   0.000   0.000   0.000   0.000   0.000   0.000   0.000
  0.000   0.000   0.000   0.000   0.000   0.000   0.000   0.000   0.000   0.000   0.000   0.000   0.000   0.000   0.000   0.000
  0.000   0.000   0.000   0.000   0.000   0.000   0.000   0.000   0.000   0.000   0.000   0.000   0.000   0.000   0.000   0.000
  0.000   0.000   0.000   0.000   0.000   0.000   0.000   0.000   0.000   0.000   0.000   0.000   0.000   0.000   0.000   0.000
  0.000   0.000   0.000   0.000   0.000   0.000   0.000   0.000   0.000   0.000   0.000   0.000   0.000   0.000   0.000   0.000


------------------------ aborting loop because EDIFF is reached ----------------------------------------





 total charge

# of ion       s       p       d       tot
------------------------------------------
    1        0.450   0.282   9.191   9.923
    2        0.449   0.285   9.188   9.921
    3        0.449   0.285   9.188   9.921
    4        0.449   0.285   9.188   9.921
    5        0.451   0.285   9.185   9.920
    6        0.449   0.285   9.188   9.921
    7        0.449   0.285   9.188   9.921
    8        0.449   0.285   9.188   9.921
    9        0.446   0.285   9.187   9.918
   10        0.444   0.370   9.179   9.993
   11        0.441   0.370   9.181   9.993
   12        0.444   0.370   9.179   9.993
   13        0.441   0.370   9.181   9.993
   14        0.441   0.370   9.181   9.993
   15        0.439   0.367   9.182   9.989
   16        0.444   0.370   9.179   9.993
   17        0.439   0.367   9.182   9.989
   18        0.439   0.367   9.182   9.989
   19        0.441   0.369   9.183   9.993
   20        0.462   0.392   9.167  10.021
   21        0.462   0.392   9.167  10.021
   22        0.432   0.370   9.184   9.986
   23        0.462   0.392   9.167  10.021
   24        0.432   0.370   9.184   9.986
   25        0.441   0.369   9.183   9.993
   26        0.441   0.369   9.183   9.993
   27        0.432   0.370   9.184   9.986
   28        0.456   0.286   9.192   9.934
   29        0.446   0.301   9.190   9.936
   30        0.446   0.301   9.190   9.936
   31        0.446   0.301   9.190   9.936
   32        0.446   0.301   9.190   9.936
   33        0.446   0.301   9.190   9.936
   34        0.446   0.301   9.190   9.936
   35        0.448   0.289   9.193   9.929
   36        0.682   0.847   6.717   8.247
   37        1.608   3.235   0.000   4.843
--------------------------------------------------
tot         17.887  15.733 328.161 361.781
 
    CHARGE:  cpu time    0.2102: real time    0.2103
    FORLOC:  cpu time    0.0074: real time    0.0074
    FORNL :  cpu time    1.1893: real time    1.1894
    STRESS:  cpu time    3.5292: real time    3.5294
    FORCOR:  cpu time    0.0279: real time    0.0280
    FORHAR:  cpu time    0.0115: real time    0.0116
    OFIELD:  cpu time    0.0001: real time    0.0001

  FORCE on cell =-STRESS in cart. coord.  units (eV):
  Direction    XX          YY          ZZ          XY          YZ          ZX
  --------------------------------------------------------------------------------------
  Alpha Z   879.67415   879.67415   879.67415
  Ewald  172986.93671172986.93628************     0.00039     0.00012     0.00018
  Hartree186064.87195186064.87193************     0.00004     0.00006     0.00007
  E(xc)   -2314.76435 -2314.76388 -2318.63646    -0.00040    -0.00003    -0.00006
  Local  ************************372270.12469     0.01876    -0.00059    -0.00098
  n-local  -772.23518  -755.55391  -768.94867     8.95283     0.03869     0.29718
  augment  3360.88537  3360.90584  3370.22766    -0.01773     0.00024     0.00037
  Kinetic  3357.55193  3360.84834  3361.23067     2.95291     1.82336    -1.12036
  Fock        0.00000     0.00000     0.00000     0.00000     0.00000     0.00000
  -------------------------------------------------------------------------------------
  Total      -1.21961    -1.21961     3.72840     0.00000    -0.00000    -0.00000
  in kB      -1.78945    -1.78945     5.47043     0.00000    -0.00000    -0.00000
  external pressure =        0.63 kB  Pullay stress =        0.00 kB


 VOLUME and BASIS-vectors are now :
 -----------------------------------------------------------------------------
  energy-cutoff  :      500.00
  volume of cell :     1091.97
      direct lattice vectors                 reciprocal lattice vectors
     7.696786404  0.000000000  0.000000000     0.129924354 -0.075011849  0.000000000
     3.848392758  6.665612809  0.000000000     0.000000000  0.150023716  0.000000000
     0.000000000  0.000000000 21.284399033     0.000000000  0.000000000  0.046982769

  length of vectors
     7.696786404  7.696786404 21.284399033     0.150023716  0.150023716  0.046982769


 FORCES acting on ions
    electron-ion (+dipol)            ewald-force                    non-local-force                 convergence-correction
 -----------------------------------------------------------------------------------------------
   -.417E-04 0.107E-06 0.349E+04   0.580E-04 -.436E-05 -.349E+04   -.638E-17 0.265E-17 -.265E+01   -.354E-03 -.172E-03 -.451E+00
   -.325E+00 -.734E-01 0.349E+04   0.185E+00 -.171E-01 -.349E+04   0.754E-01 0.151E+00 -.187E+01   0.662E-01 -.426E-01 -.393E+00
   0.325E+00 -.734E-01 0.349E+04   -.185E+00 -.172E-01 -.349E+04   -.754E-01 0.151E+00 -.187E+01   -.654E-01 -.401E-01 -.392E+00
   -.226E+00 -.245E+00 0.349E+04   0.774E-01 0.168E+00 -.349E+04   0.169E+00 -.104E-01 -.187E+01   -.366E-02 0.786E-01 -.393E+00
   -.653E-04 -.558E-05 0.349E+04   0.116E-03 -.101E-04 -.349E+04   0.716E-18 -.298E-17 -.167E+01   0.121E-01 0.743E-02 -.355E+00
   0.226E+00 -.245E+00 0.349E+04   -.775E-01 0.168E+00 -.349E+04   -.169E+00 -.104E-01 -.187E+01   0.207E-02 0.797E-01 -.392E+00
   0.990E-01 0.318E+00 0.349E+04   -.107E+00 -.151E+00 -.349E+04   0.933E-01 -.141E+00 -.187E+01   -.674E-01 -.366E-01 -.392E+00
   -.989E-01 0.318E+00 0.349E+04   0.107E+00 -.151E+00 -.349E+04   -.933E-01 -.141E+00 -.187E+01   0.708E-01 -.381E-01 -.392E+00
   -.144E-03 -.329E-04 0.349E+04   0.263E-03 0.205E-04 -.349E+04   -.234E-17 0.198E-17 -.223E+01   -.131E-01 -.678E-02 -.433E+00
   0.641E+00 0.370E+00 0.119E+04   -.150E+00 -.864E-01 -.119E+04   -.500E+00 -.289E+00 -.109E+01   0.248E-02 0.142E-02 0.293E+00
   -.908E-04 0.730E-01 0.118E+04   0.190E-03 -.201E+00 -.118E+04   -.133E-07 0.200E+00 -.341E+00   0.119E-01 -.941E-01 0.329E+00
   -.641E+00 0.370E+00 0.119E+04   0.149E+00 -.864E-01 -.119E+04   0.500E+00 -.289E+00 -.109E+01   -.430E-02 0.252E-02 0.293E+00
   0.632E-01 -.364E-01 0.118E+04   -.174E+00 0.101E+00 -.118E+04   0.173E+00 -.998E-01 -.341E+00   -.751E-01 0.582E-01 0.329E+00
   -.630E-01 -.364E-01 0.118E+04   0.174E+00 0.101E+00 -.118E+04   -.173E+00 -.998E-01 -.341E+00   0.987E-01 0.566E-01 0.327E+00
   -.142E-03 -.116E+01 0.118E+04   0.298E-03 0.978E+00 -.118E+04   -.745E-08 0.112E+00 -.859E+00   -.346E-02 0.530E-01 0.252E+00
   -.918E-04 -.740E+00 0.119E+04   0.186E-03 0.173E+00 -.119E+04   -.385E-07 0.578E+00 -.109E+01   -.900E-03 -.619E-02 0.293E+00
   -.100E+01 0.579E+00 0.118E+04   0.847E+00 -.489E+00 -.118E+04   0.969E-01 -.560E-01 -.859E+00   0.448E-01 -.295E-01 0.252E+00
   0.100E+01 0.579E+00 0.118E+04   -.848E+00 -.489E+00 -.118E+04   -.969E-01 -.560E-01 -.859E+00   -.434E-01 -.268E-01 0.254E+00
   -.603E-04 -.148E+01 -.113E+04   0.684E-04 0.138E+01 0.113E+04   -.316E-08 0.475E-01 0.822E+00   -.993E-03 0.285E-01 0.688E+00
   -.216E+02 -.125E+02 -.115E+04   0.226E+02 0.131E+02 0.115E+04   -.118E+01 -.679E+00 -.516E+00   0.133E+00 0.765E-01 0.913E+00
   0.216E+02 -.125E+02 -.115E+04   -.226E+02 0.131E+02 0.115E+04   0.118E+01 -.679E+00 -.516E+00   -.131E+00 0.747E-01 0.911E+00
   -.136E+02 0.787E+01 -.114E+04   0.131E+02 -.758E+01 0.114E+04   0.552E+00 -.319E+00 0.995E+00   0.211E-01 0.521E-03 0.768E+00
   -.825E-04 0.250E+02 -.115E+04   0.146E-03 -.261E+02 0.115E+04   -.904E-07 0.136E+01 -.516E+00   -.211E-02 -.152E+00 0.911E+00
   0.136E+02 0.787E+01 -.114E+04   -.131E+02 -.758E+01 0.114E+04   -.552E+00 -.319E+00 0.995E+00   0.714E-03 -.467E-03 0.769E+00
   0.128E+01 0.741E+00 -.113E+04   -.119E+01 -.689E+00 0.113E+04   -.411E-01 -.238E-01 0.822E+00   -.255E-01 -.147E-01 0.688E+00
   -.128E+01 0.741E+00 -.113E+04   0.119E+01 -.689E+00 0.113E+04   0.411E-01 -.238E-01 0.822E+00   0.246E-01 -.149E-01 0.688E+00
   -.122E-03 -.157E+02 -.114E+04   0.243E-03 0.152E+02 0.114E+04   -.424E-07 0.637E+00 0.995E+00   0.110E-01 0.180E-01 0.768E+00
   -.375E-04 0.160E-04 -.342E+04   0.376E-04 -.336E-04 0.342E+04   -.116E-16 -.180E-17 0.197E+01   -.192E-02 -.106E-02 0.638E+00
   -.736E+01 -.106E+02 -.341E+04   0.665E+01 0.898E+01 0.341E+04   0.347E+00 0.102E+01 0.255E+01   0.200E+00 0.248E+00 0.693E+00
   0.736E+01 -.106E+02 -.341E+04   -.665E+01 0.898E+01 0.341E+04   -.347E+00 0.102E+01 0.255E+01   -.177E+00 0.249E+00 0.693E+00
   -.128E+02 -.109E+01 -.341E+04   0.111E+02 0.127E+01 0.341E+04   0.105E+01 -.208E+00 0.255E+01   0.315E+00 0.489E-01 0.693E+00
   0.128E+02 -.109E+01 -.341E+04   -.111E+02 0.127E+01 0.341E+04   -.105E+01 -.208E+00 0.255E+01   -.293E+00 0.495E-01 0.694E+00
   -.547E+01 0.117E+02 -.341E+04   0.445E+01 -.102E+02 0.341E+04   0.707E+00 -.808E+00 0.255E+01   0.127E+00 -.278E+00 0.693E+00
   0.547E+01 0.117E+02 -.341E+04   -.445E+01 -.102E+02 0.341E+04   -.707E+00 -.808E+00 0.255E+01   -.103E+00 -.279E+00 0.694E+00
   -.152E-03 -.274E-04 -.343E+04   0.255E-03 0.400E-05 0.343E+04   -.204E-17 0.132E-17 0.226E+01   -.142E-01 -.738E-02 0.672E+00
   -.372E-04 -.225E-04 -.226E+04   0.100E-03 0.198E-04 0.227E+04   0.158E-16 -.309E-18 -.424E+01   0.774E-03 0.493E-03 0.664E+00
   0.171E-03 -.850E-04 -.220E+04   0.182E-04 0.828E-05 0.223E+04   0.267E-17 0.583E-18 -.294E+02   0.283E-02 0.173E-02 -.191E+00
 -----------------------------------------------------------------------------------------------
   -.117E-03 -.112E-03 0.227E+02   0.138E-12 0.488E-12 -.318E-11   -.206E-15 -.554E-15 -.348E+02   0.118E+00 0.651E-01 0.121E+02
 
 
 POSITION                                       TOTAL-FORCE (eV/Angst)
 -----------------------------------------------------------------------------------
      0.00000      0.00000      5.37156        -0.000000      0.000000     -0.013876
      2.56560      0.00000      5.37156         0.001440      0.019259      0.062762
      5.13119      0.00000      5.37156        -0.001440      0.019259      0.062762
      1.28280      2.22187      5.37156         0.017399     -0.008382      0.062762
      3.84839      2.22187      5.37156        -0.000000      0.000000      0.039613
      6.41399      2.22187      5.37156        -0.017399     -0.008382      0.062762
      2.56560      4.44374      5.37156         0.015958     -0.010877      0.062762
      5.13119      4.44374      5.37156        -0.015958     -0.010877      0.062762
      7.69679      4.44374      5.37156        -0.000000      0.000000      0.031079
      1.28280      0.74062      7.46636        -0.005142     -0.002969     -0.056216
      3.84839      0.74062      7.46636         0.000000     -0.029375     -0.044433
      6.41399      0.74062      7.46636         0.005142     -0.002969     -0.056216
      2.56560      2.96249      7.46636        -0.025440      0.014688     -0.044433
      5.13119      2.96249      7.46636         0.025440      0.014688     -0.044433
      7.69679      2.96249      7.46636         0.000000     -0.015503     -0.014043
      3.84839      5.18437      7.46636        -0.000000      0.005938     -0.056216
      6.41399      5.18437      7.46636        -0.013426      0.007752     -0.014043
      8.97958      5.18437      7.46636         0.013426      0.007752     -0.014043
      7.69679      1.48414      9.55535         0.000000     -0.027873     -0.003630
      2.56128      1.47875      9.53998        -0.062973     -0.036357     -0.198445
      5.13551      1.47875      9.53998         0.062973     -0.036357     -0.198445
      8.97644      3.70493      9.56275         0.049253     -0.028436     -0.010416
      3.84839      3.70811      9.53998        -0.000000      0.072715     -0.198445
      6.41713      3.70493      9.56275        -0.049253     -0.028436     -0.010416
     10.25987      5.92354      9.55535         0.024138      0.013936     -0.003630
      5.13370      5.92354      9.55535        -0.024138      0.013936     -0.003630
      7.69679      5.92136      9.56275        -0.000000      0.056872     -0.010416
      0.00000      0.00000     11.63109        -0.000000      0.000000      0.011491
      6.40750      6.66078     11.65531        -0.180384     -0.330906     -0.207296
      8.98608      6.66078     11.65531         0.180384     -0.330906     -0.207296
      8.97216      2.21866     11.65531        -0.376765      0.009236     -0.207296
      6.42142      2.21866     11.65531         0.376765      0.009236     -0.207296
     10.26144      4.45178     11.65531        -0.196381      0.321670     -0.207296
      5.13213      4.45178     11.65531         0.196381      0.321670     -0.207296
      7.69679      4.44374     11.63516         0.000000      0.000000      0.047044
      3.84839      2.22187     11.61289        -0.000000      0.000000      1.841216
      3.84839      2.22187     13.34525        -0.000000      0.000000     -0.107817
 -----------------------------------------------------------------------------------
    total drift:                                0.117847      0.065017     -0.027914


--------------------------------------------------------------------------------------------------------



  FREE ENERGIE OF THE ION-ELECTRON SYSTEM (eV)
  ---------------------------------------------------
  free  energy   TOTEN  =      -136.60946737 eV

  energy  without entropy=     -136.60946737  energy(sigma->0) =     -136.60946737
 


--------------------------------------------------------------------------------------------------------


    POTLOK:  cpu time    0.0308: real time    0.0308


--------------------------------------------------------------------------------------------------------


 stress matrix after NEB project (eV)
     -1.21961      0.00000     -0.00000
      0.00000     -1.21961     -0.00000
     -0.00000     -0.00000      3.72840
  FORCES: max atom, RMS     0.107817    0.017725
  FORCE total and by dimension    0.107817    0.107817
  Stress total and by dimension    4.108020    3.728397
     LOOP+:  cpu time   61.5260: real time   61.5382
 -----------------------------------------------------------------------------
|                                                                             |
|           W    W    AA    RRRRR   N    N  II  N    N   GGGG   !!!           |
|           W    W   A  A   R    R  NN   N  II  NN   N  G    G  !!!           |
|           W    W  A    A  R    R  N N  N  II  N N  N  G       !!!           |
|           W WW W  AAAAAA  RRRRR   N  N N  II  N  N N  G  GGG   !            |
|           WW  WW  A    A  R   R   N   NN  II  N   NN  G    G                |
|           W    W  A    A  R    R  N    N  II  N    N   GGGG   !!!           |
|                                                                             |
|     Tetrahedron method does not include variations of the Fermi             |
|     occupations, so forces and stress will be inaccurate. We suggest        |
|     using a different smearing scheme ISMEAR = 1 or 2 for metals in         |
|     relaxations.                                                            |
|                                                                             |
 -----------------------------------------------------------------------------

    4ORBIT:  cpu time    0.0000: real time    0.0000



 total charge

# of ion       s       p       d       tot
------------------------------------------
    1        0.450   0.282   9.191   9.923
    2        0.449   0.285   9.188   9.921
    3        0.449   0.285   9.188   9.921
    4        0.449   0.285   9.188   9.921
    5        0.451   0.285   9.185   9.920
    6        0.449   0.285   9.188   9.921
    7        0.449   0.285   9.188   9.921
    8        0.449   0.285   9.188   9.921
    9        0.446   0.285   9.187   9.918
   10        0.444   0.370   9.179   9.993
   11        0.441   0.370   9.181   9.993
   12        0.444   0.370   9.179   9.993
   13        0.441   0.370   9.181   9.993
   14        0.441   0.370   9.181   9.993
   15        0.439   0.367   9.182   9.989
   16        0.444   0.370   9.179   9.993
   17        0.439   0.367   9.182   9.989
   18        0.439   0.367   9.182   9.989
   19        0.441   0.369   9.183   9.993
   20        0.462   0.392   9.167  10.021
   21        0.462   0.392   9.167  10.021
   22        0.432   0.370   9.184   9.986
   23        0.462   0.392   9.167  10.021
   24        0.432   0.370   9.184   9.986
   25        0.441   0.369   9.183   9.993
   26        0.441   0.369   9.183   9.993
   27        0.432   0.370   9.184   9.986
   28        0.456   0.286   9.192   9.934
   29        0.446   0.301   9.190   9.936
   30        0.446   0.301   9.190   9.936
   31        0.446   0.301   9.190   9.936
   32        0.446   0.301   9.190   9.936
   33        0.446   0.301   9.190   9.936
   34        0.446   0.301   9.190   9.936
   35        0.448   0.289   9.193   9.929
   36        0.682   0.847   6.717   8.247
   37        1.608   3.235   0.000   4.843
--------------------------------------------------
tot         17.887  15.733 328.161 361.781
 
 BZINTS: Fermi energy:    0.082316;  399.000000 electrons
         Band energy:-0.112881E+04;  BLOECHL correction:   -0.047120

 total amount of memory used by VASP MPI-rank0   104515. kBytes
=======================================================================

   base      :      30000. kBytes
   nonlr-proj:      17629. kBytes
   fftplans  :       2916. kBytes
   grid      :      12390. kBytes
   one-center:        575. kBytes
   wavefun   :      41005. kBytes
 
  
  
 General timing and accounting informations for this job:
 ========================================================
  
                  Total CPU time used (sec):       67.474
                            User time (sec):       64.740
                          System time (sec):        2.733
                         Elapsed time (sec):       67.833
  
                   Maximum memory used (kb):      342792.
                   Average memory used (kb):          N/A
  
                          Minor page faults:        73297
                          Major page faults:            0
                 Voluntary context switches:         4616
