PROCAR new format
# of k-points:   10         # of bands:  252         # of ions:   37

 k-point     1 :    0.00000000 0.00000000 0.00000000     weight = 0.01562500

band     1 # energy  -18.35765820 # occ.  2.00000000
 
ion      s      p      d    tot
    1  0.000  0.000  0.000  0.000
    2  0.000  0.000  0.000  0.000
    3  0.000  0.000  0.000  0.000
    4  0.000  0.000  0.000  0.000
    5  0.000  0.000  0.000  0.000
    6  0.000  0.000  0.000  0.000
    7  0.000  0.000  0.000  0.000
    8  0.000  0.000  0.000  0.000
    9  0.000  0.000  0.000  0.000
   10  0.000  0.000  0.000  0.000
   11  0.000  0.000  0.000  0.000
   12  0.000  0.000  0.000  0.000
   13  0.000  0.000  0.000  0.000
   14  0.000  0.000  0.000  0.000
   15  0.000  0.000  0.000  0.000
   16  0.000  0.000  0.000  0.000
   17  0.000  0.000  0.000  0.000
   18  0.000  0.000  0.000  0.000
   19  0.000  0.000  0.000  0.000
   20  0.000  0.000  0.000  0.000
   21  0.000  0.000  0.000  0.000
   22  0.000  0.000  0.000  0.000
   23  0.000  0.000  0.000  0.000
   24  0.000  0.000  0.000  0.000
   25  0.000  0.000  0.000  0.000
   26  0.000  0.000  0.000  0.000
   27  0.000  0.000  0.000  0.000
   28  0.000  0.000  0.000  0.000
   29  0.000  0.000  0.000  0.000
   30  0.000  0.000  0.000  0.000
   31  0.000  0.000  0.000  0.000
   32  0.000  0.000  0.000  0.000
   33  0.000  0.000  0.000  0.000
   34  0.000  0.000  0.000  0.000
   35  0.000  0.000  0.000  0.000
   36  0.046  0.061  0.116  0.223
   37  0.769  0.013  0.000  0.783
tot    0.816  0.074  0.116  1.007
 
band     2 # energy   -8.71776880 # occ.  2.00000000
 
ion      s      p      d    tot
    1  0.007  0.001  0.000  0.008
    2  0.007  0.001  0.000  0.008
    3  0.007  0.001  0.000  0.008
    4  0.007  0.001  0.000  0.008
    5  0.007  0.001  0.000  0.008
    6  0.007  0.001  0.000  0.008
    7  0.007  0.001  0.000  0.008
    8  0.007  0.001  0.000  0.008
    9  0.007  0.001  0.000  0.008
   10  0.025  0.000  0.000  0.025
   11  0.025  0.000  0.000  0.025
   12  0.025  0.000  0.000  0.025
   13  0.025  0.000  0.000  0.025
   14  0.025  0.000  0.000  0.025
   15  0.025  0.000  0.000  0.025
   16  0.025  0.000  0.000  0.025
   17  0.025  0.000  0.000  0.025
   18  0.025  0.000  0.000  0.025
   19  0.025  0.000  0.000  0.025
   20  0.025  0.000  0.000  0.025
   21  0.025  0.000  0.000  0.025
   22  0.024  0.000  0.000  0.025
   23  0.025  0.000  0.000  0.025
   24  0.024  0.000  0.000  0.025
   25  0.025  0.000  0.000  0.025
   26  0.025  0.000  0.000  0.025
   27  0.024  0.000  0.000  0.025
   28  0.007  0.001  0.000  0.007
   29  0.006  0.001  0.000  0.007
   30  0.006  0.001  0.000  0.007
   31  0.006  0.001  0.000  0.007
   32  0.006  0.001  0.000  0.007
   33  0.006  0.001  0.000  0.007
   34  0.006  0.001  0.000  0.007
   35  0.007  0.001  0.000  0.007
   36  0.009  0.002  0.000  0.011
   37  0.000  0.000  0.000  0.001
tot    0.567  0.018  0.001  0.585
 
band     3 # energy   -7.40854202 # occ.  2.00000000
 
ion      s      p      d    tot
    1  0.018  0.001  0.001  0.019
    2  0.018  0.001  0.001  0.019
    3  0.018  0.001  0.001  0.019
    4  0.018  0.001  0.001  0.019
    5  0.018  0.001  0.001  0.019
    6  0.018  0.001  0.001  0.019
    7  0.018  0.001  0.001  0.019
    8  0.018  0.001  0.001  0.019
    9  0.018  0.001  0.001  0.019
   10  0.010  0.002  0.001  0.012
   11  0.010  0.002  0.001  0.012
   12  0.010  0.002  0.001  0.012
   13  0.010  0.002  0.001  0.012
   14  0.010  0.002  0.001  0.012
   15  0.009  0.002  0.001  0.012
   16  0.010  0.002  0.001  0.012
   17  0.009  0.002  0.001  0.012
   18  0.009  0.002  0.001  0.012
   19  0.011  0.002  0.001  0.014
   20  0.009  0.002  0.001  0.012
   21  0.009  0.002  0.001  0.012
   22  0.011  0.002  0.001  0.014
   23  0.009  0.002  0.001  0.012
   24  0.011  0.002  0.001  0.014
   25  0.011  0.002  0.001  0.014
   26  0.011  0.002  0.001  0.014
   27  0.011  0.002  0.001  0.014
   28  0.019  0.001  0.000  0.020
   29  0.018  0.001  0.000  0.019
   30  0.018  0.001  0.000  0.019
   31  0.018  0.001  0.000  0.019
   32  0.018  0.001  0.000  0.019
   33  0.018  0.001  0.000  0.019
   34  0.018  0.001  0.000  0.019
   35  0.019  0.001  0.000  0.020
   36  0.021  0.002  0.003  0.026
   37  0.001  0.000  0.000  0.001
tot    0.513  0.056  0.022  0.591
 
band     4 # energy   -5.94594929 # occ.  2.00000000
 
ion      s      p      d    tot
    1  0.009  0.000  0.003  0.012
    2  0.008  0.000  0.003  0.011
    3  0.008  0.000  0.003  0.011
    4  0.008  0.000  0.003  0.011
    5  0.002  0.000  0.003  0.006
    6  0.008  0.000  0.003  0.011
    7  0.008  0.000  0.003  0.011
    8  0.008  0.000  0.003  0.011
    9  0.017  0.000  0.001  0.019
   10  0.001  0.002  0.002  0.005
   11  0.010  0.004  0.001  0.015
   12  0.001  0.002  0.002  0.005
   13  0.010  0.004  0.001  0.015
   14  0.010  0.004  0.001  0.015
   15  0.001  0.001  0.003  0.005
   16  0.001  0.002  0.002  0.005
   17  0.001  0.001  0.003  0.005
   18  0.001  0.001  0.003  0.005
   19  0.000  0.002  0.006  0.008
   20  0.026  0.005  0.008  0.039
   21  0.026  0.005  0.008  0.039
   22  0.000  0.003  0.004  0.007
   23  0.026  0.005  0.008  0.039
   24  0.000  0.003  0.004  0.007
   25  0.000  0.002  0.006  0.008
   26  0.000  0.002  0.006  0.008
   27  0.000  0.003  0.004  0.007
   28  0.016  0.000  0.003  0.019
   29  0.013  0.000  0.006  0.019
   30  0.013  0.000  0.006  0.019
   31  0.013  0.000  0.006  0.019
   32  0.013  0.000  0.006  0.019
   33  0.013  0.000  0.006  0.019
   34  0.013  0.000  0.006  0.019
   35  0.021  0.000  0.003  0.024
   36  0.001  0.001  0.151  0.152
   37  0.005  0.068  0.000  0.073
tot    0.307  0.126  0.283  0.716
 
band     5 # energy   -5.77631725 # occ.  2.00000000
 
ion      s      p      d    tot
    1  0.000  0.002  0.005  0.007
    2  0.008  0.002  0.002  0.012
    3  0.001  0.001  0.002  0.003
    4  0.008  0.002  0.002  0.012
    5  0.000  0.002  0.003  0.006
    6  0.004  0.001  0.002  0.007
    7  0.001  0.001  0.002  0.003
    8  0.004  0.001  0.002  0.007
    9  0.000  0.000  0.002  0.002
   10  0.051  0.005  0.003  0.059
   11  0.008  0.009  0.005  0.021
   12  0.013  0.002  0.011  0.026
   13  0.008  0.009  0.005  0.021
   14  0.031  0.001  0.006  0.037
   15  0.001  0.005  0.006  0.011
   16  0.013  0.002  0.011  0.026
   17  0.001  0.005  0.006  0.012
   18  0.002  0.002  0.003  0.008
   19  0.005  0.010  0.003  0.018
   20  0.070  0.003  0.007  0.079
   21  0.017  0.003  0.015  0.035
   22  0.003  0.004  0.009  0.015
   23  0.018  0.003  0.014  0.035
   24  0.011  0.003  0.003  0.017
   25  0.020  0.000  0.007  0.027
   26  0.005  0.010  0.003  0.018
   27  0.003  0.004  0.009  0.016
   28  0.000  0.002  0.003  0.005
   29  0.010  0.003  0.004  0.017
   30  0.003  0.001  0.002  0.006
   31  0.010  0.003  0.004  0.017
   32  0.002  0.001  0.004  0.007
   33  0.003  0.001  0.002  0.006
   34  0.002  0.001  0.004  0.007
   35  0.000  0.000  0.003  0.003
   36  0.000  0.004  0.042  0.047
   37  0.000  0.006  0.000  0.006
tot    0.331  0.116  0.214  0.660
 
band     6 # energy   -5.77620276 # occ.  2.00000000
 
ion      s      p      d    tot
    1  0.000  0.002  0.005  0.007
    2  0.000  0.001  0.002  0.003
    3  0.008  0.002  0.002  0.012
    4  0.000  0.001  0.002  0.003
    5  0.000  0.002  0.003  0.006
    6  0.005  0.001  0.002  0.008
    7  0.007  0.002  0.002  0.012
    8  0.005  0.001  0.002  0.008
    9  0.000  0.000  0.002  0.002
   10  0.000  0.001  0.014  0.015
   11  0.023  0.003  0.006  0.032
   12  0.039  0.004  0.006  0.048
   13  0.023  0.003  0.006  0.032
   14  0.000  0.012  0.004  0.016
   15  0.002  0.003  0.004  0.009
   16  0.038  0.004  0.006  0.048
   17  0.002  0.003  0.004  0.009
   18  0.000  0.006  0.007  0.013
   19  0.015  0.003  0.005  0.024
   20  0.000  0.003  0.017  0.020
   21  0.053  0.003  0.009  0.065
   22  0.008  0.004  0.005  0.017
   23  0.052  0.003  0.009  0.064
   24  0.000  0.004  0.011  0.015
   25  0.000  0.013  0.002  0.015
   26  0.015  0.003  0.005  0.024
   27  0.008  0.004  0.005  0.017
   28  0.000  0.002  0.003  0.005
   29  0.000  0.001  0.003  0.004
   30  0.007  0.003  0.004  0.014
   31  0.000  0.001  0.003  0.004
   32  0.008  0.002  0.003  0.013
   33  0.007  0.003  0.004  0.014
   34  0.007  0.002  0.003  0.013
   35  0.000  0.000  0.003  0.003
   36  0.000  0.004  0.042  0.047
   37  0.000  0.006  0.000  0.006
tot    0.331  0.116  0.214  0.660
 
band     7 # energy   -5.72575528 # occ.  2.00000000
 
ion      s      p      d    tot
    1  0.000  0.001  0.002  0.003
    2  0.009  0.002  0.002  0.014
    3  0.001  0.001  0.002  0.004
    4  0.009  0.002  0.002  0.014
    5  0.000  0.001  0.004  0.004
    6  0.004  0.002  0.002  0.008
    7  0.001  0.001  0.002  0.004
    8  0.004  0.002  0.002  0.008
    9  0.000  0.003  0.005  0.008
   10  0.000  0.012  0.002  0.014
   11  0.020  0.003  0.005  0.029
   12  0.004  0.003  0.005  0.012
   13  0.020  0.003  0.005  0.029
   14  0.000  0.001  0.014  0.015
   15  0.043  0.004  0.006  0.053
   16  0.004  0.003  0.005  0.012
   17  0.043  0.004  0.006  0.053
   18  0.000  0.006  0.011  0.017
   19  0.032  0.004  0.006  0.042
   20  0.000  0.012  0.003  0.015
   21  0.000  0.004  0.005  0.009
   22  0.040  0.004  0.006  0.049
   23  0.000  0.004  0.005  0.009
   24  0.000  0.010  0.007  0.017
   25  0.000  0.000  0.017  0.017
   26  0.032  0.004  0.006  0.042
   27  0.039  0.004  0.006  0.049
   28  0.000  0.002  0.005  0.007
   29  0.012  0.003  0.003  0.018
   30  0.002  0.002  0.003  0.007
   31  0.012  0.003  0.003  0.018
   32  0.004  0.001  0.003  0.008
   33  0.002  0.002  0.003  0.007
   34  0.004  0.001  0.003  0.008
   35  0.000  0.004  0.005  0.009
   36  0.000  0.001  0.010  0.011
   37  0.000  0.000  0.000  0.000
tot    0.344  0.116  0.181  0.640
 
band     8 # energy   -5.72564422 # occ.  2.00000000
 
ion      s      p      d    tot
    1  0.000  0.001  0.002  0.003
    2  0.000  0.001  0.002  0.003
    3  0.009  0.002  0.002  0.013
    4  0.000  0.001  0.002  0.003
    5  0.000  0.001  0.004  0.004
    6  0.005  0.002  0.002  0.009
    7  0.009  0.002  0.002  0.013
    8  0.005  0.002  0.002  0.009
    9  0.000  0.003  0.005  0.008
   10  0.006  0.000  0.006  0.012
   11  0.007  0.002  0.011  0.020
   12  0.001  0.009  0.003  0.014
   13  0.007  0.002  0.011  0.020
   14  0.027  0.004  0.002  0.033
   15  0.014  0.005  0.009  0.029
   16  0.001  0.009  0.003  0.014
   17  0.014  0.005  0.009  0.029
   18  0.057  0.003  0.005  0.065
   19  0.011  0.001  0.013  0.025
   20  0.000  0.001  0.005  0.007
   21  0.000  0.009  0.003  0.013
   22  0.013  0.008  0.007  0.028
   23  0.000  0.009  0.003  0.013
   24  0.052  0.002  0.006  0.060
   25  0.043  0.005  0.002  0.050
   26  0.011  0.001  0.013  0.025
   27  0.013  0.008  0.007  0.028
   28  0.000  0.002  0.005  0.007
   29  0.000  0.001  0.003  0.004
   30  0.010  0.002  0.003  0.015
   31  0.000  0.001  0.003  0.004
   32  0.008  0.002  0.003  0.014
   33  0.010  0.002  0.003  0.015
   34  0.008  0.002  0.003  0.014
   35  0.000  0.004  0.005  0.009
   36  0.000  0.001  0.010  0.011
   37  0.000  0.000  0.000  0.000
tot    0.344  0.116  0.181  0.640
 
band     9 # energy   -5.71642539 # occ.  2.00000000
 
ion      s      p      d    tot
    1  0.023  0.003  0.000  0.027
    2  0.000  0.002  0.004  0.006
    3  0.000  0.002  0.004  0.006
    4  0.000  0.002  0.004  0.006
    5  0.000  0.000  0.001  0.001
    6  0.000  0.002  0.004  0.006
    7  0.000  0.002  0.004  0.006
    8  0.000  0.002  0.004  0.006
    9  0.008  0.002  0.001  0.011
   10  0.026  0.005  0.007  0.038
   11  0.004  0.001  0.011  0.016
   12  0.026  0.005  0.007  0.038
   13  0.004  0.001  0.011  0.016
   14  0.004  0.001  0.011  0.016
   15  0.016  0.009  0.002  0.027
   16  0.026  0.005  0.007  0.038
   17  0.016  0.009  0.002  0.027
   18  0.016  0.009  0.002  0.027
   19  0.018  0.009  0.002  0.029
   20  0.000  0.002  0.011  0.013
   21  0.000  0.002  0.011  0.013
   22  0.028  0.003  0.008  0.039
   23  0.000  0.002  0.011  0.013
   24  0.029  0.003  0.008  0.040
   25  0.018  0.009  0.002  0.030
   26  0.018  0.009  0.002  0.029
   27  0.028  0.003  0.008  0.039
   28  0.021  0.002  0.000  0.023
   29  0.000  0.002  0.004  0.006
   30  0.000  0.002  0.004  0.006
   31  0.000  0.002  0.004  0.006
   32  0.000  0.002  0.004  0.006
   33  0.000  0.002  0.004  0.006
   34  0.000  0.002  0.004  0.006
   35  0.011  0.003  0.002  0.016
   36  0.000  0.000  0.000  0.000
   37  0.000  0.000  0.000  0.000
tot    0.346  0.114  0.179  0.639
 
band    10 # energy   -5.67596875 # occ.  2.00000000
 
ion      s      p      d    tot
    1  0.001  0.001  0.003  0.004
    2  0.006  0.001  0.006  0.013
    3  0.006  0.001  0.006  0.013
    4  0.006  0.001  0.006  0.013
    5  0.041  0.002  0.001  0.043
    6  0.006  0.001  0.006  0.013
    7  0.006  0.001  0.006  0.013
    8  0.006  0.001  0.006  0.013
    9  0.000  0.001  0.006  0.007
   10  0.008  0.005  0.005  0.019
   11  0.011  0.006  0.006  0.023
   12  0.008  0.005  0.005  0.019
   13  0.011  0.006  0.006  0.023
   14  0.011  0.006  0.006  0.023
   15  0.021  0.002  0.008  0.031
   16  0.008  0.005  0.005  0.019
   17  0.021  0.002  0.008  0.031
   18  0.021  0.002  0.008  0.031
   19  0.014  0.003  0.007  0.024
   20  0.011  0.005  0.004  0.021
   21  0.011  0.005  0.004  0.021
   22  0.006  0.005  0.005  0.015
   23  0.011  0.005  0.004  0.021
   24  0.006  0.005  0.005  0.015
   25  0.014  0.003  0.007  0.024
   26  0.014  0.003  0.007  0.024
   27  0.006  0.005  0.005  0.015
   28  0.001  0.001  0.005  0.006
   29  0.006  0.001  0.004  0.010
   30  0.006  0.001  0.004  0.010
   31  0.006  0.001  0.004  0.010
   32  0.006  0.001  0.004  0.010
   33  0.006  0.001  0.004  0.010
   34  0.006  0.001  0.004  0.010
   35  0.001  0.000  0.003  0.005
   36  0.042  0.002  0.000  0.044
   37  0.002  0.010  0.000  0.012
tot    0.371  0.108  0.181  0.661
 
band    11 # energy   -5.32870929 # occ.  2.00000000
 
ion      s      p      d    tot
    1  0.010  0.000  0.005  0.015
    2  0.005  0.001  0.007  0.013
    3  0.005  0.001  0.007  0.013
    4  0.005  0.001  0.007  0.013
    5  0.001  0.003  0.007  0.011
    6  0.005  0.001  0.007  0.013
    7  0.005  0.001  0.007  0.013
    8  0.005  0.001  0.007  0.013
    9  0.023  0.000  0.002  0.026
   10  0.003  0.001  0.011  0.014
   11  0.022  0.003  0.004  0.029
   12  0.003  0.001  0.011  0.014
   13  0.022  0.003  0.004  0.029
   14  0.022  0.003  0.004  0.029
   15  0.000  0.001  0.011  0.013
   16  0.003  0.001  0.011  0.014
   17  0.000  0.001  0.011  0.013
   18  0.000  0.001  0.011  0.013
   19  0.000  0.000  0.001  0.001
   20  0.000  0.004  0.020  0.024
   21  0.000  0.004  0.020  0.024
   22  0.001  0.001  0.002  0.004
   23  0.000  0.004  0.020  0.024
   24  0.001  0.001  0.002  0.004
   25  0.000  0.000  0.001  0.001
   26  0.000  0.000  0.001  0.001
   27  0.001  0.001  0.002  0.004
   28  0.000  0.000  0.000  0.000
   29  0.000  0.000  0.001  0.001
   30  0.000  0.000  0.001  0.001
   31  0.000  0.000  0.001  0.001
   32  0.000  0.000  0.001  0.001
   33  0.000  0.000  0.001  0.001
   34  0.000  0.000  0.001  0.001
   35  0.001  0.000  0.000  0.001
   36  0.016  0.003  0.209  0.227
   37  0.014  0.196  0.000  0.210
tot    0.175  0.240  0.415  0.830
 
band    12 # energy   -5.05002728 # occ.  2.00000000
 
ion      s      p      d    tot
    1  0.000  0.000  0.008  0.008
    2  0.010  0.002  0.004  0.016
    3  0.015  0.003  0.004  0.021
    4  0.009  0.002  0.004  0.015
    5  0.000  0.004  0.007  0.011
    6  0.000  0.001  0.004  0.005
    7  0.014  0.003  0.004  0.021
    8  0.001  0.001  0.004  0.006
    9  0.000  0.003  0.008  0.010
   10  0.000  0.002  0.014  0.015
   11  0.019  0.003  0.007  0.028
   12  0.004  0.001  0.008  0.013
   13  0.017  0.003  0.007  0.027
   14  0.000  0.000  0.017  0.017
   15  0.005  0.001  0.007  0.013
   16  0.004  0.001  0.008  0.013
   17  0.005  0.002  0.007  0.013
   18  0.000  0.004  0.012  0.016
   19  0.001  0.001  0.006  0.008
   20  0.000  0.002  0.040  0.042
   21  0.004  0.003  0.015  0.022
   22  0.005  0.003  0.008  0.017
   23  0.005  0.003  0.013  0.020
   24  0.000  0.000  0.010  0.010
   25  0.000  0.000  0.006  0.007
   26  0.001  0.001  0.006  0.008
   27  0.006  0.003  0.008  0.017
   28  0.000  0.000  0.003  0.004
   29  0.008  0.002  0.005  0.016
   30  0.003  0.003  0.012  0.018
   31  0.008  0.002  0.005  0.015
   32  0.002  0.000  0.006  0.008
   33  0.003  0.003  0.012  0.017
   34  0.001  0.000  0.006  0.008
   35  0.000  0.002  0.003  0.005
   36  0.000  0.000  0.165  0.166
   37  0.000  0.083  0.000  0.083
tot    0.148  0.149  0.460  0.757
 
band    13 # energy   -5.05000803 # occ.  2.00000000
 
ion      s      p      d    tot
    1  0.000  0.000  0.008  0.008
    2  0.006  0.002  0.004  0.012
    3  0.001  0.001  0.004  0.007
    4  0.007  0.002  0.004  0.013
    5  0.000  0.004  0.007  0.011
    6  0.016  0.003  0.004  0.023
    7  0.002  0.001  0.004  0.007
    8  0.015  0.003  0.004  0.022
    9  0.000  0.003  0.008  0.010
   10  0.005  0.001  0.006  0.012
   11  0.005  0.001  0.014  0.020
   12  0.001  0.002  0.011  0.014
   13  0.007  0.001  0.013  0.021
   14  0.024  0.003  0.004  0.031
   15  0.001  0.003  0.010  0.015
   16  0.001  0.002  0.012  0.015
   17  0.002  0.003  0.010  0.015
   18  0.006  0.001  0.005  0.012
   19  0.000  0.000  0.006  0.007
   20  0.006  0.003  0.005  0.013
   21  0.002  0.002  0.030  0.034
   22  0.002  0.001  0.009  0.013
   23  0.001  0.002  0.032  0.036
   24  0.007  0.004  0.008  0.019
   25  0.001  0.001  0.006  0.008
   26  0.000  0.000  0.006  0.007
   27  0.002  0.001  0.010  0.012
   28  0.000  0.000  0.003  0.004
   29  0.000  0.001  0.010  0.011
   30  0.005  0.001  0.004  0.010
   31  0.000  0.001  0.010  0.012
   32  0.007  0.003  0.009  0.019
   33  0.006  0.001  0.004  0.010
   34  0.007  0.003  0.009  0.019
   35  0.000  0.002  0.003  0.005
   36  0.000  0.000  0.166  0.166
   37  0.000  0.083  0.000  0.083
tot    0.148  0.149  0.460  0.757
 
band    14 # energy   -4.99806869 # occ.  2.00000000
 
ion      s      p      d    tot
    1  0.000  0.006  0.009  0.015
    2  0.013  0.003  0.005  0.022
    3  0.019  0.004  0.005  0.027
    4  0.013  0.003  0.005  0.021
    5  0.000  0.001  0.011  0.012
    6  0.000  0.002  0.005  0.007
    7  0.018  0.004  0.005  0.027
    8  0.000  0.002  0.005  0.007
    9  0.000  0.002  0.010  0.012
   10  0.023  0.003  0.006  0.031
   11  0.000  0.003  0.014  0.017
   12  0.006  0.003  0.018  0.027
   13  0.000  0.003  0.014  0.017
   14  0.000  0.000  0.008  0.008
   15  0.004  0.001  0.015  0.021
   16  0.005  0.003  0.019  0.027
   17  0.005  0.001  0.015  0.021
   18  0.018  0.004  0.006  0.029
   19  0.003  0.001  0.016  0.021
   20  0.006  0.004  0.009  0.019
   21  0.002  0.002  0.010  0.013
   22  0.001  0.002  0.017  0.020
   23  0.002  0.002  0.010  0.013
   24  0.003  0.001  0.004  0.008
   25  0.013  0.005  0.005  0.023
   26  0.003  0.002  0.016  0.021
   27  0.001  0.002  0.017  0.020
   28  0.000  0.005  0.006  0.011
   29  0.010  0.003  0.007  0.021
   30  0.021  0.002  0.006  0.029
   31  0.010  0.003  0.007  0.020
   32  0.002  0.001  0.008  0.011
   33  0.020  0.002  0.006  0.029
   34  0.002  0.001  0.008  0.011
   35  0.000  0.003  0.009  0.011
   36  0.000  0.000  0.053  0.053
   37  0.000  0.010  0.000  0.010
tot    0.224  0.100  0.391  0.714
 
band    15 # energy   -4.99800926 # occ.  2.00000000
 
ion      s      p      d    tot
    1  0.000  0.006  0.009  0.015
    2  0.008  0.002  0.005  0.015
    3  0.003  0.002  0.005  0.010
    4  0.008  0.002  0.005  0.016
    5  0.000  0.001  0.011  0.012
    6  0.021  0.004  0.005  0.030
    7  0.003  0.002  0.005  0.010
    8  0.021  0.004  0.005  0.030
    9  0.000  0.002  0.010  0.012
   10  0.000  0.003  0.023  0.025
   11  0.000  0.001  0.010  0.011
   12  0.017  0.003  0.010  0.030
   13  0.000  0.001  0.010  0.011
   14  0.000  0.004  0.016  0.020
   15  0.013  0.003  0.009  0.026
   16  0.017  0.003  0.010  0.030
   17  0.013  0.003  0.009  0.026
   18  0.000  0.000  0.018  0.018
   19  0.010  0.004  0.008  0.022
   20  0.000  0.001  0.010  0.011
   21  0.005  0.003  0.009  0.017
   22  0.002  0.001  0.009  0.012
   23  0.005  0.003  0.009  0.017
   24  0.000  0.002  0.022  0.024
   25  0.000  0.000  0.020  0.020
   26  0.010  0.004  0.009  0.022
   27  0.002  0.001  0.009  0.012
   28  0.000  0.005  0.006  0.011
   29  0.011  0.001  0.007  0.020
   30  0.001  0.002  0.008  0.011
   31  0.011  0.001  0.007  0.020
   32  0.020  0.003  0.006  0.029
   33  0.001  0.002  0.008  0.012
   34  0.020  0.003  0.006  0.029
   35  0.000  0.003  0.009  0.011
   36  0.000  0.000  0.053  0.053
   37  0.000  0.010  0.000  0.010
tot    0.224  0.100  0.391  0.714
 
band    16 # energy   -4.95147504 # occ.  2.00000000
 
ion      s      p      d    tot
    1  0.033  0.003  0.000  0.037
    2  0.000  0.003  0.010  0.013
    3  0.000  0.003  0.010  0.013
    4  0.000  0.003  0.010  0.013
    5  0.000  0.000  0.000  0.000
    6  0.000  0.003  0.010  0.013
    7  0.000  0.003  0.010  0.013
    8  0.000  0.003  0.010  0.013
    9  0.031  0.004  0.001  0.035
   10  0.009  0.004  0.010  0.023
   11  0.001  0.000  0.015  0.016
   12  0.009  0.004  0.010  0.023
   13  0.001  0.000  0.015  0.016
   14  0.001  0.000  0.015  0.016
   15  0.007  0.004  0.018  0.028
   16  0.009  0.004  0.010  0.023
   17  0.007  0.004  0.018  0.028
   18  0.007  0.004  0.018  0.028
   19  0.005  0.004  0.017  0.026
   20  0.000  0.000  0.016  0.016
   21  0.000  0.000  0.016  0.016
   22  0.011  0.003  0.010  0.025
   23  0.000  0.000  0.016  0.016
   24  0.011  0.003  0.010  0.025
   25  0.005  0.004  0.017  0.026
   26  0.005  0.004  0.017  0.026
   27  0.011  0.003  0.010  0.025
   28  0.035  0.003  0.000  0.039
   29  0.000  0.003  0.010  0.013
   30  0.000  0.003  0.010  0.013
   31  0.000  0.003  0.010  0.013
   32  0.000  0.003  0.010  0.013
   33  0.000  0.003  0.010  0.013
   34  0.000  0.003  0.010  0.013
   35  0.028  0.004  0.001  0.033
   36  0.000  0.000  0.000  0.000
   37  0.000  0.000  0.000  0.000
tot    0.228  0.093  0.384  0.705
 
band    17 # energy   -4.89724098 # occ.  2.00000000
 
ion      s      p      d    tot
    1  0.000  0.001  0.005  0.007
    2  0.002  0.001  0.008  0.011
    3  0.002  0.001  0.008  0.011
    4  0.002  0.001  0.008  0.011
    5  0.025  0.000  0.003  0.029
    6  0.002  0.001  0.008  0.011
    7  0.002  0.001  0.008  0.011
    8  0.002  0.001  0.008  0.011
    9  0.000  0.001  0.006  0.007
   10  0.006  0.001  0.019  0.026
   11  0.000  0.001  0.019  0.021
   12  0.006  0.001  0.019  0.025
   13  0.000  0.001  0.019  0.021
   14  0.000  0.001  0.019  0.021
   15  0.008  0.001  0.019  0.028
   16  0.006  0.001  0.019  0.025
   17  0.008  0.001  0.019  0.028
   18  0.008  0.001  0.019  0.028
   19  0.013  0.000  0.022  0.035
   20  0.000  0.002  0.024  0.025
   21  0.000  0.002  0.024  0.025
   22  0.006  0.000  0.022  0.028
   23  0.000  0.002  0.024  0.025
   24  0.006  0.000  0.022  0.028
   25  0.013  0.000  0.022  0.035
   26  0.013  0.000  0.022  0.035
   27  0.006  0.000  0.022  0.028
   28  0.000  0.002  0.011  0.013
   29  0.005  0.001  0.009  0.014
   30  0.005  0.001  0.009  0.014
   31  0.005  0.001  0.009  0.014
   32  0.005  0.001  0.009  0.014
   33  0.005  0.001  0.009  0.014
   34  0.005  0.001  0.009  0.014
   35  0.001  0.001  0.008  0.010
   36  0.045  0.000  0.003  0.048
   37  0.003  0.032  0.000  0.036
tot    0.216  0.062  0.515  0.792
 
band    18 # energy   -4.80431532 # occ.  2.00000000
 
ion      s      p      d    tot
    1  0.000  0.000  0.003  0.003
    2  0.003  0.001  0.002  0.005
    3  0.000  0.000  0.002  0.002
    4  0.003  0.001  0.002  0.005
    5  0.000  0.001  0.002  0.003
    6  0.005  0.001  0.002  0.007
    7  0.000  0.000  0.002  0.002
    8  0.005  0.001  0.002  0.007
    9  0.000  0.001  0.004  0.005
   10  0.001  0.001  0.003  0.005
   11  0.001  0.001  0.007  0.008
   12  0.000  0.001  0.002  0.003
   13  0.001  0.000  0.007  0.008
   14  0.003  0.002  0.002  0.007
   15  0.000  0.000  0.008  0.009
   16  0.000  0.001  0.002  0.003
   17  0.000  0.000  0.008  0.009
   18  0.001  0.000  0.002  0.003
   19  0.000  0.003  0.010  0.013
   20  0.006  0.002  0.016  0.024
   21  0.001  0.001  0.005  0.007
   22  0.002  0.001  0.009  0.011
   23  0.002  0.001  0.005  0.007
   24  0.009  0.001  0.003  0.012
   25  0.001  0.000  0.004  0.005
   26  0.000  0.003  0.010  0.014
   27  0.002  0.001  0.009  0.012
   28  0.000  0.002  0.013  0.014
   29  0.018  0.002  0.006  0.026
   30  0.000  0.002  0.005  0.006
   31  0.017  0.002  0.006  0.026
   32  0.017  0.002  0.006  0.025
   33  0.000  0.002  0.005  0.006
   34  0.017  0.002  0.006  0.026
   35  0.000  0.002  0.012  0.013
   36  0.000  0.027  0.161  0.188
   37  0.000  0.216  0.000  0.216
tot    0.118  0.281  0.350  0.749
 
band    19 # energy   -4.80426994 # occ.  2.00000000
 
ion      s      p      d    tot
    1  0.000  0.000  0.003  0.003
    2  0.002  0.001  0.002  0.005
    3  0.005  0.001  0.002  0.008
    4  0.002  0.001  0.002  0.005
    5  0.000  0.001  0.002  0.003
    6  0.001  0.000  0.002  0.003
    7  0.005  0.001  0.002  0.008
    8  0.001  0.000  0.002  0.003
    9  0.000  0.001  0.004  0.005
   10  0.000  0.000  0.002  0.002
   11  0.002  0.001  0.004  0.008
   12  0.001  0.001  0.003  0.004
   13  0.002  0.001  0.004  0.007
   14  0.000  0.000  0.008  0.008
   15  0.001  0.000  0.004  0.005
   16  0.001  0.001  0.003  0.004
   17  0.001  0.000  0.004  0.005
   18  0.000  0.000  0.010  0.011
   19  0.001  0.001  0.006  0.008
   20  0.000  0.000  0.001  0.002
   21  0.005  0.002  0.012  0.019
   22  0.006  0.001  0.004  0.012
   23  0.005  0.002  0.012  0.018
   24  0.000  0.000  0.011  0.011
   25  0.000  0.004  0.012  0.016
   26  0.001  0.001  0.006  0.008
   27  0.006  0.001  0.005  0.012
   28  0.000  0.002  0.013  0.014
   29  0.005  0.002  0.005  0.012
   30  0.023  0.002  0.007  0.032
   31  0.006  0.002  0.005  0.013
   32  0.006  0.002  0.005  0.013
   33  0.023  0.002  0.007  0.032
   34  0.006  0.002  0.005  0.013
   35  0.000  0.002  0.012  0.013
   36  0.000  0.027  0.161  0.188
   37  0.000  0.216  0.000  0.216
tot    0.118  0.281  0.350  0.749
 
band    20 # energy   -4.73491900 # occ.  2.00000000
 
ion      s      p      d    tot
    1  0.013  0.000  0.001  0.014
    2  0.000  0.002  0.008  0.010
    3  0.000  0.002  0.008  0.010
    4  0.000  0.002  0.008  0.010
    5  0.021  0.003  0.002  0.026
    6  0.000  0.002  0.008  0.010
    7  0.000  0.002  0.008  0.010
    8  0.000  0.002  0.008  0.010
    9  0.006  0.000  0.000  0.007
   10  0.000  0.000  0.022  0.023
   11  0.005  0.004  0.020  0.028
   12  0.000  0.000  0.022  0.023
   13  0.005  0.004  0.020  0.028
   14  0.005  0.004  0.020  0.028
   15  0.000  0.000  0.006  0.006
   16  0.000  0.000  0.022  0.023
   17  0.000  0.000  0.006  0.006
   18  0.000  0.000  0.006  0.006
   19  0.001  0.001  0.018  0.020
   20  0.017  0.001  0.002  0.020
   21  0.017  0.001  0.002  0.020
   22  0.000  0.002  0.023  0.025
   23  0.017  0.001  0.002  0.020
   24  0.000  0.002  0.023  0.025
   25  0.001  0.001  0.018  0.020
   26  0.001  0.001  0.018  0.020
   27  0.000  0.002  0.023  0.025
   28  0.009  0.000  0.000  0.009
   29  0.000  0.003  0.013  0.017
   30  0.000  0.003  0.013  0.017
   31  0.000  0.003  0.013  0.017
   32  0.000  0.003  0.013  0.017
   33  0.000  0.003  0.013  0.017
   34  0.000  0.003  0.013  0.017
   35  0.021  0.001  0.001  0.024
   36  0.005  0.020  0.083  0.108
   37  0.004  0.084  0.000  0.088
tot    0.152  0.161  0.486  0.798
 
band    21 # energy   -4.37023976 # occ.  2.00000000
 
ion      s      p      d    tot
    1  0.000  0.001  0.027  0.027
    2  0.014  0.001  0.007  0.023
    3  0.007  0.001  0.007  0.016
    4  0.014  0.001  0.007  0.022
    5  0.000  0.001  0.011  0.012
    6  0.001  0.001  0.007  0.009
    7  0.007  0.001  0.007  0.015
    8  0.001  0.001  0.007  0.009
    9  0.000  0.003  0.005  0.008
   10  0.000  0.000  0.057  0.057
   11  0.000  0.003  0.015  0.019
   12  0.000  0.000  0.019  0.019
   13  0.000  0.003  0.015  0.018
   14  0.000  0.000  0.004  0.004
   15  0.000  0.004  0.015  0.019
   16  0.000  0.000  0.019  0.019
   17  0.000  0.004  0.015  0.019
   18  0.000  0.000  0.028  0.028
   19  0.004  0.003  0.012  0.019
   20  0.000  0.000  0.060  0.060
   21  0.000  0.000  0.026  0.027
   22  0.002  0.002  0.015  0.020
   23  0.000  0.000  0.026  0.026
   24  0.000  0.000  0.013  0.014
   25  0.000  0.000  0.018  0.018
   26  0.004  0.003  0.012  0.019
   27  0.002  0.002  0.015  0.020
   28  0.000  0.001  0.008  0.009
   29  0.011  0.001  0.018  0.030
   30  0.000  0.001  0.016  0.018
   31  0.011  0.001  0.018  0.030
   32  0.008  0.000  0.017  0.025
   33  0.000  0.001  0.016  0.017
   34  0.008  0.000  0.017  0.025
   35  0.000  0.001  0.003  0.004
   36  0.000  0.001  0.088  0.089