 vasp.6.2.0 18Jan21 (build Jun 12 2021 23:27:24) complex                        
  
 executed on             LinuxIFC date 2022.05.27  05:09:07
 running on   28 total cores
 distrk:  each k-point on   28 cores,    1 groups
 distr:  one band on NCORE=   1 cores,   28 groups


--------------------------------------------------------------------------------------------------------


 INCAR:
   ISMEAR = -5
   SIGMA = 0.1
   ISPIN = 1
   EDIFF = 1.d-5
   EDIFFG = -0.01
   NSW = 0
   NELM = 150
   ENCUT = 500
   ISIF = 2
   IBRION = 2
   LREAL = Auto
   ALGO = Fast
   ICHARG = 11
   LORBIT = 10
   LCHARG = .F.
   LWAVE = .F.

 POTCAR:    PAW_PBE Au 04Oct2007                  
 POTCAR:    PAW_PBE Nb_sv 25May2007               
 POTCAR:    PAW_PBE H 15Jun2001                   
 -----------------------------------------------------------------------------
|                                                                             |
|           W    W    AA    RRRRR   N    N  II  N    N   GGGG   !!!           |
|           W    W   A  A   R    R  NN   N  II  NN   N  G    G  !!!           |
|           W    W  A    A  R    R  N N  N  II  N N  N  G       !!!           |
|           W WW W  AAAAAA  RRRRR   N  N N  II  N  N N  G  GGG   !            |
|           WW  WW  A    A  R   R   N   NN  II  N   NN  G    G                |
|           W    W  A    A  R    R  N    N  II  N    N   GGGG   !!!           |
|                                                                             |
|     For optimal performance we recommend to set                             |
|       NCORE = 2 up to number-of-cores-per-socket                            |
|     NCORE specifies how many cores store one orbital (NPAR=cpu/NCORE).      |
|     This setting can greatly improve the performance of VASP for DFT.       |
|     The default, NCORE=1 might be grossly inefficient on modern             |
|     multi-core architectures or massively parallel machines. Do your        |
|     own testing! More info at https://www.vasp.at/wiki/index.php/NCORE      |
|     Unfortunately you need to use the default for GW and RPA                |
|     calculations (for HF NCORE is supported but not extensively tested      |
|     yet).                                                                   |
|                                                                             |
 -----------------------------------------------------------------------------

 POTCAR:    PAW_PBE Au 04Oct2007                  
   VRHFIN =Au: s1d10                                                                                
   LEXCH  = PE                                                                                      
   EATOM  =   926.0867 eV,   68.0654 Ry                                                             
                                                                                                    
   TITEL  = PAW_PBE Au 04Oct2007                                                                    
   LULTRA =        F    use ultrasoft PP ?                                                          
   IUNSCR =        1    unscreen: 0-lin 1-nonlin 2-no                                               
   RPACOR =    2.330    partial core radius                                                         
   POMASS =  196.966; ZVAL   =   11.000    mass and valenz                                          
   RCORE  =    2.500    outmost cutoff radius                                                       
   RWIGS  =    2.840; RWIGS  =    1.503    wigner-seitz radius (au A)                               
   ENMAX  =  229.943; ENMIN  =  172.457 eV                                                          
   ICORE  =        3    local potential                                                             
   LCOR   =        T    correct aug charges                                                         
   LPAW   =        T    paw PP                                                                      
   EAUG   =  356.670                                                                                
   DEXC   =    0.000                                                                                
   RMAX   =    2.562    core radius for proj-oper                                                   
   RAUG   =    1.300    factor for augmentation sphere                                              
   RDEP   =    2.598    radius for radial grids                                                     
   RDEPT  =    2.193    core radius for aug-charge                                                  
                                                                                                    
   Atomic configuration                                                                             
   16 entries                                                                                       
     n  l   j            E        occ.                                                              
     1  0  0.50    -80748.5001   2.0000                                                             
     2  0  0.50    -14244.7466   2.0000                                                             
     2  1  1.50    -12310.9591   6.0000                                                             
     3  0  0.50     -3362.1768   2.0000                                                             
     3  1  1.50     -2801.5463   6.0000                                                             
     3  2  2.50     -2203.8206  10.0000                                                             
     4  0  0.50      -729.8168   2.0000                                                             
     4  1  1.50      -546.0527   6.0000                                                             
     4  2  2.50      -325.7302  10.0000                                                             
     4  3  3.50       -81.1472  14.0000                                                             
     5  0  0.50      -108.3201   2.0000                                                             
     5  1  1.50       -59.7479   6.0000                                                             
     5  2  2.50        -6.8783  10.0000                                                             
     6  0  0.50        -5.7602   1.0000                                                             
     6  1  1.50        -6.8029   0.0000                                                             
     5  3  2.50        -1.3606   0.0000                                                             
   Description                                                                                      
     l       E           TYP  RCUT    TYP  RCUT                                                     
     2     -6.8782861     23  2.500                                                                 
     2     -8.2388687     23  2.500                                                                 
     0     -5.7601759     23  2.500                                                                 
     0     -0.8493231     23  2.500                                                                 
     1     -2.7211652     23  2.500                                                                 
     1     27.2116520     23  2.500                                                                 
     3     -1.3605826     23  2.500                                                                 
  local pseudopotential read in
  partial core-charges read in
  partial kinetic energy density read in
  atomic valenz-charges read in
  non local Contribution for L=           2  read in
    real space projection operators read in
  non local Contribution for L=           2  read in
    real space projection operators read in
  non local Contribution for L=           0  read in
    real space projection operators read in
  non local Contribution for L=           0  read in
    real space projection operators read in
  non local Contribution for L=           1  read in
    real space projection operators read in
  non local Contribution for L=           1  read in
    real space projection operators read in
    PAW grid and wavefunctions read in
 
   number of l-projection  operators is LMAX  =           6
   number of lm-projection operators is LMMAX =          18
 
 POTCAR:    PAW_PBE Nb_sv 25May2007               
   VRHFIN =Nb: 4p5s4d                                                                               
   LEXCH  = PE                                                                                      
   EATOM  =  1555.1913 eV,  114.3033 Ry                                                             
                                                                                                    
   TITEL  = PAW_PBE Nb_sv 25May2007                                                                 
   LULTRA =        F    use ultrasoft PP ?                                                          
   IUNSCR =        1    unscreen: 0-lin 1-nonlin 2-no                                               
   RPACOR =    1.800    partial core radius                                                         
   POMASS =   92.910; ZVAL   =   13.000    mass and valenz                                          
   RCORE  =    2.400    outmost cutoff radius                                                       
   RWIGS  =    2.400; RWIGS  =    1.270    wigner-seitz radius (au A)                               
   ENMAX  =  293.235; ENMIN  =  219.927 eV                                                          
   ICORE  =        3    local potential                                                             
   LCOR   =        T    correct aug charges                                                         
   LPAW   =        T    paw PP                                                                      
   EAUG   =  455.659                                                                                
   DEXC   =    0.000                                                                                
   RMAX   =    2.456    core radius for proj-oper                                                   
   RAUG   =    1.300    factor for augmentation sphere                                              
   RDEP   =    2.451    radius for radial grids                                                     
   RDEPT  =    1.956    core radius for aug-charge                                                  
                                                                                                    
   Atomic configuration                                                                             
   11 entries                                                                                       
     n  l   j            E        occ.                                                              
     1  0  0.50    -18805.2457   2.0000                                                             
     2  0  0.50     -2630.2869   2.0000                                                             
     2  1  1.50     -2348.4046   6.0000                                                             
     3  0  0.50      -438.8757   2.0000                                                             
     3  1  1.50      -346.7588   6.0000                                                             
     3  2  2.50      -196.2560  10.0000                                                             
     4  0  0.50       -58.3859   2.0000                                                             
     5  0  0.50        -3.9816   1.0000                                                             
     4  1  1.50       -34.5141   6.0000                                                             
     4  2  2.50        -3.0408   4.0000                                                             
     4  3  2.50        -1.3606   0.0000                                                             
   Description                                                                                      
     l       E           TYP  RCUT    TYP  RCUT                                                     
     0    -58.3859094     23  2.200                                                                 
     0     -3.9816262     23  2.200                                                                 
     1    -34.5140738     23  2.200                                                                 
     1     13.6058260     23  2.200                                                                 
     2     -3.0408010     23  2.200                                                                 
     2     -0.1283038     23  2.200                                                                 
     3     -1.3605826     23  2.400                                                                 
  local pseudopotential read in
  partial core-charges read in
  partial kinetic energy density read in
  atomic valenz-charges read in
  non local Contribution for L=           0  read in
    real space projection operators read in
  non local Contribution for L=           0  read in
    real space projection operators read in
  non local Contribution for L=           1  read in
    real space projection operators read in
  non local Contribution for L=           1  read in
    real space projection operators read in
  non local Contribution for L=           2  read in
    real space projection operators read in
  non local Contribution for L=           2  read in
    real space projection operators read in
    PAW grid and wavefunctions read in
 
   number of l-projection  operators is LMAX  =           6
   number of lm-projection operators is LMMAX =          18
 
 POTCAR:    PAW_PBE H 15Jun2001                   
   VRHFIN =H: ultrasoft test                                                                        
   LEXCH  = PE                                                                                      
   EATOM  =    12.4884 eV,    0.9179 Ry                                                             
                                                                                                    
   TITEL  = PAW_PBE H 15Jun2001                                                                     
   LULTRA =        F    use ultrasoft PP ?                                                          
   IUNSCR =        0    unscreen: 0-lin 1-nonlin 2-no                                               
   RPACOR =    0.000    partial core radius                                                         
   POMASS =    1.000; ZVAL   =    1.000    mass and valenz                                          
   RCORE  =    1.100    outmost cutoff radius                                                       
   RWIGS  =    0.700; RWIGS  =    0.370    wigner-seitz radius (au A)                               
   ENMAX  =  250.000; ENMIN  =  200.000 eV                                                          
   RCLOC  =    0.701    cutoff for local pot                                                        
   LCOR   =        T    correct aug charges                                                         
   LPAW   =        T    paw PP                                                                      
   EAUG   =  400.000                                                                                
   RMAX   =    1.123    core radius for proj-oper                                                   
   RAUG   =    1.200    factor for augmentation sphere                                              
   RDEP   =    1.112    radius for radial grids                                                     
   RDEPT  =    0.926    core radius for aug-charge                                                  
                                                                                                    
   Atomic configuration                                                                             
    2 entries                                                                                       
     n  l   j            E        occ.                                                              
     1  0  0.50        -6.4927   1.0000                                                             
     2  1  0.50        -3.4015   0.0000                                                             
   Description                                                                                      
     l       E           TYP  RCUT    TYP  RCUT                                                     
     0     -6.4927494     23  1.100                                                                 
     0      6.8029130     23  1.100                                                                 
     1     -4.0817478     23  1.100                                                                 
  local pseudopotential read in
  atomic valenz-charges read in
  non local Contribution for L=           0  read in
    real space projection operators read in
  non local Contribution for L=           0  read in
    real space projection operators read in
  non local Contribution for L=           1  read in
    real space projection operators read in
    PAW grid and wavefunctions read in
 
   number of l-projection  operators is LMAX  =           3
   number of lm-projection operators is LMMAX =           5
 
 Optimization of the real space projectors (new method)

 maximal supplied QI-value         = 15.12
 optimisation between [QCUT,QGAM] = [ 11.34, 22.83] = [ 36.00,145.93] Ry 
 Optimized for a Real-space Cutoff    1.39 Angstroem

   l    n(q)    QCUT    max X(q) W(low)/X(q) W(high)/X(q)  e(spline) 
   2      9    11.338    60.898    0.39E-03    0.42E-03    0.21E-06
   2      9    11.338    58.894    0.40E-03    0.42E-03    0.22E-06
   0      9    11.338   109.617    0.13E-03    0.20E-04    0.13E-06
   0      9    11.338    75.026    0.13E-03    0.20E-04    0.13E-06
   1      9    11.338    16.344    0.33E-04    0.24E-03    0.18E-06
   1      9    11.338    10.160    0.26E-04    0.19E-03    0.15E-06
 Optimization of the real space projectors (new method)

 maximal supplied QI-value         = 15.68
 optimisation between [QCUT,QGAM] = [ 11.45, 22.90] = [ 36.71,146.85] Ry 
 Optimized for a Real-space Cutoff    1.56 Angstroem

   l    n(q)    QCUT    max X(q) W(low)/X(q) W(high)/X(q)  e(spline) 
   0     11    11.450    10.201    0.21E-04    0.96E-05    0.78E-07
   0     11    11.450     8.174    0.31E-04    0.18E-04    0.14E-06
   1     10    11.450     3.488    0.27E-04    0.12E-04    0.96E-07
   1     10    11.450     4.917    0.11E-03    0.11E-03    0.37E-06
   2     10    11.450   153.744    0.37E-03    0.81E-03    0.10E-05
   2     10    11.450   126.342    0.37E-03    0.81E-03    0.10E-05
 Optimization of the real space projectors (new method)

 maximal supplied QI-value         = 34.20
 optimisation between [QCUT,QGAM] = [ 11.29, 22.57] = [ 35.68,142.71] Ry 
 Optimized for a Real-space Cutoff    1.16 Angstroem

   l    n(q)    QCUT    max X(q) W(low)/X(q) W(high)/X(q)  e(spline) 
   0      8    11.287    19.460    0.40E-03    0.73E-03    0.16E-06
   0      8    11.287    12.209    0.38E-03    0.70E-03    0.15E-06
   1      7    11.287     4.655    0.22E-03    0.25E-04    0.22E-06
  PAW_PBE Au 04Oct2007                  :
 energy of atom  1       EATOM= -926.0867
 kinetic energy error for atom=    0.0042 (will be added to EATOM!!)
  PAW_PBE Nb_sv 25May2007               :
 energy of atom  2       EATOM=-1555.1913
 kinetic energy error for atom=    0.0069 (will be added to EATOM!!)
  PAW_PBE H 15Jun2001                   :
 energy of atom  3       EATOM=  -12.4884
 kinetic energy error for atom=    0.0020 (will be added to EATOM!!)
 
 
 POSCAR: Au-Nb-H2
  positions in direct lattice
  velocities in cartesian coordinates
 exchange correlation table for  LEXCH =        8
   RHO(1)=    0.500       N(1)  =     2000
   RHO(2)=  100.500       N(2)  =     4000

 VTST: version 3.2, (02/03/18)

 CHAIN: initializing optimizer
 
 OPT: Using VASP Conjugate-Gradient optimizer
 CHAIN: Read ICHAIN            0
 
 POSCAR: Au-Nb-H2
  positions in direct lattice
  velocities in cartesian coordinates
 


--------------------------------------------------------------------------------------------------------


 ion  position               nearest neighbor table
   1  0.000  0.000  0.238-  16 2.94  12 2.94   6 2.94   8 2.94   7 2.94   3 2.94  10 2.94   4 2.94
                             2 2.94
   2  0.333  0.000  0.238-   9 2.94  11 2.94  17 2.94  10 2.94   8 2.94   4 2.94   5 2.94   1 2.94
                             3 2.94
   3  0.667  0.000  0.238-   7 2.94  18 2.94  12 2.94   1 2.94  11 2.94   5 2.94   6 2.94   9 2.94
                             2 2.94
   4  0.000  0.333  0.238-  10 2.94   6 2.94   5 2.94  13 2.94   2 2.94  15 2.94   9 2.94   1 2.94
                             7 2.94
   5  0.333  0.333  0.238-  13 2.94   7 2.94  11 2.94   4 2.94   2 2.94  14 2.94   3 2.94   8 2.94
                             6 2.94
   6  0.667  0.333  0.238-  15 2.94  14 2.94   1 2.94  12 2.94   4 2.94   9 2.94   8 2.94   3 2.94
                             5 2.94
   7  0.000  0.667  0.238-  18 2.94   3 2.94  16 2.94   5 2.94   1 2.94  13 2.94   8 2.94   4 2.94
                             9 2.94
   8  0.333  0.667  0.238-   9 2.94  17 2.94   1 2.94   2 2.94  14 2.94  16 2.94   6 2.94   7 2.94
                             5 2.94
   9  0.667  0.667  0.238-   2 2.94   8 2.94  17 2.94   6 2.94  15 2.94   4 2.94   3 2.94  18 2.94
                             7 2.94
  10  0.111  0.111  0.346-  20 2.91  11 2.94  17 2.94   2 2.94   4 2.94   1 2.94  12 2.94  16 2.94
                            13 2.94  15 2.94  26 2.95  19 2.95
  11  0.444  0.111  0.346-  20 2.91  21 2.91  13 2.94   2 2.94  10 2.94  17 2.94   5 2.94   3 2.94
                            18 2.94  14 2.94  12 2.94  27 2.94
  12  0.778  0.111  0.346-  21 2.91  16 2.94  18 2.94   1 2.94  14 2.94  15 2.94   3 2.94   6 2.94
                            10 2.94  11 2.94  25 2.95  19 2.95
  13  0.111  0.444  0.346-  23 2.91  20 2.91   5 2.94  18 2.94  11 2.94   7 2.94   4 2.94  16 2.94
                            10 2.94  14 2.94  15 2.94  22 2.94
  14  0.444  0.444  0.346-  21 2.91  23 2.91  15 2.94   6 2.94  12 2.94   8 2.94  17 2.94   5 2.94
                            16 2.94  13 2.94  11 2.94  24 2.94
  15  0.778  0.444  0.346-  24 2.93  22 2.93  14 2.94   6 2.94  17 2.94  12 2.94   9 2.94   4 2.94
                            10 2.94  13 2.94  18 2.94  19 2.94
  16  0.111  0.778  0.346-  23 2.91  18 2.94  12 2.94   7 2.94   1 2.94   8 2.94  13 2.94  10 2.94
                            14 2.94  17 2.94  25 2.95  26 2.95
  17  0.444  0.778  0.346-  27 2.93  24 2.93   9 2.94  15 2.94   2 2.94  10 2.94  11 2.94   8 2.94
                            14 2.94  16 2.94  18 2.94  26 2.94
  18  0.778  0.778  0.346-  22 2.93  27 2.93  16 2.94   7 2.94  13 2.94  12 2.94   3 2.94  11 2.94
                             9 2.94  15 2.94  17 2.94  25 2.94
  19  0.889  0.223  0.454-  24 2.93  22 2.93  21 2.94  20 2.94  15 2.94  26 2.94  25 2.94  10 2.95
                            12 2.95  28 2.95  32 3.04  31 3.04
  20  0.222  0.222  0.453-  36 2.78  10 2.91  11 2.91  13 2.91  26 2.94  19 2.94  23 2.94  21 2.94
                            27 2.95  22 2.95  29 2.99  31 2.99
  21  0.556  0.222  0.453-  36 2.78  12 2.91  14 2.91  11 2.91  25 2.94  19 2.94  20 2.94  23 2.94
                            27 2.95  24 2.95  30 2.99  32 2.99
  22  0.887  0.557  0.454-  24 2.91  27 2.91  18 2.93  15 2.93  25 2.93  19 2.93  13 2.94  23 2.95
                            20 2.95  35 2.96  33 3.02  31 3.02
  23  0.222  0.556  0.453-  36 2.78  16 2.91  13 2.91  14 2.91  25 2.94  26 2.94  20 2.94  21 2.94
                            22 2.95  24 2.95  33 2.99  34 2.99
  24  0.557  0.557  0.454-  27 2.91  22 2.91  15 2.93  17 2.93  26 2.93  19 2.93  14 2.94  21 2.95
                            23 2.95  35 2.96  32 3.02  34 3.02
  25  0.889  0.889  0.454-  22 2.93  27 2.93  23 2.94  21 2.94  18 2.94  19 2.94  26 2.94  16 2.95
                            12 2.95  28 2.95  33 3.04  30 3.04
  26  0.223  0.889  0.454-  27 2.93  24 2.93  20 2.94  23 2.94  17 2.94  19 2.94  25 2.94  10 2.95
                            16 2.95  28 2.95  29 3.04  34 3.04
  27  0.557  0.887  0.454-  24 2.91  22 2.91  17 2.93  18 2.93  26 2.93  25 2.93  11 2.94  20 2.95
                            21 2.95  35 2.96  29 3.02  30 3.02
  28  0.000  0.000  0.563-  25 2.95  19 2.95  26 2.95  34 2.98  32 2.98  33 2.98  30 2.98  31 2.98
                            29 2.98
  29  0.334  0.009  0.566-  30 2.85  31 2.86  36 2.87  35 2.98  28 2.98  20 2.99  27 3.02  26 3.04
                            34 3.10
  30  0.657  0.009  0.566-  29 2.85  32 2.86  36 2.87  35 2.98  28 2.98  21 2.99  27 3.02  25 3.04
                            33 3.10
  31  0.009  0.334  0.566-  33 2.85  29 2.86  36 2.87  35 2.98  28 2.98  20 2.99  22 3.02  19 3.04
                            32 3.10
  32  0.657  0.334  0.566-  34 2.85  30 2.86  36 2.87  35 2.98  28 2.98  21 2.99  24 3.02  19 3.04
                            31 3.10
  33  0.009  0.657  0.566-  31 2.85  34 2.86  36 2.87  35 2.98  28 2.98  23 2.99  22 3.02  25 3.04
                            30 3.10
  34  0.334  0.657  0.566-  32 2.85  33 2.86  36 2.87  35 2.98  28 2.98  23 2.99  24 3.02  26 3.04
                            29 3.10
  35  0.667  0.667  0.563-  24 2.96  27 2.96  22 2.96  29 2.98  34 2.98  32 2.98  31 2.98  30 2.98
                            33 2.98
  36  0.333  0.333  0.552-  20 2.78  23 2.78  21 2.78  33 2.87  31 2.87  29 2.87  30 2.87  34 2.87
                            32 2.87
  37  0.287  0.333  0.639-  38 0.82
  38  0.380  0.333  0.639-  37 0.82
 
  LATTYP: Found a hexagonal cell.
 ALAT       =     8.8135128021
 C/A-ratio  =     2.5184286595
  
  Lattice vectors:
  
 A1 = (  -4.4067569092,  -7.6327256898,   0.0000000000)
 A2 = (   8.8135128021,   0.0000000000,   0.0000000000)
 A3 = (   0.0000000000,   0.0000000000,  22.1962032318)


Analysis of symmetry for initial positions (statically):
=====================================================================
 Subroutine PRICEL returns:
 Original cell was already a primitive cell.
 

 Routine SETGRP: Setting up the symmetry group for a 
 hexagonal supercell.


 Subroutine GETGRP returns: Found  2 space group operations
 (whereof  2 operations were pure point group operations)
 out of a pool of 24 trial point group operations.


The static configuration has the point symmetry C_1h.


Analysis of symmetry for dynamics (positions and initial velocities):
=====================================================================
 Subroutine PRICEL returns:
 Original cell was already a primitive cell.
 

 Routine SETGRP: Setting up the symmetry group for a 
 hexagonal supercell.


 Subroutine GETGRP returns: Found  2 space group operations
 (whereof  2 operations were pure point group operations)
 out of a pool of 24 trial point group operations.


The dynamic configuration has the point symmetry C_1h.


Analysis of constrained symmetry for selective dynamics:
=====================================================================
 Subroutine PRICEL returns:
 Original cell was already a primitive cell.
 

 Routine SETGRP: Setting up the symmetry group for a 
 hexagonal supercell.


 Subroutine GETGRP returns: Found  2 space group operations
 (whereof  2 operations were pure point group operations)
 out of a pool of 24 trial point group operations.


The constrained configuration has the point symmetry C_1h.


 Subroutine INISYM returns: Found  2 space group operations
 (whereof  2 operations are pure point group operations),
 and found     1 'primitive' translations


----------------------------------------------------------------------------------------

                                     Primitive cell                                     

  volume of cell :    1493.1636

  direct lattice vectors                    reciprocal lattice vectors
     8.813512802  0.000000000  0.000000000     0.113462137 -0.065507406  0.000000000
     4.406756909  7.632725690  0.000000000     0.000000000  0.131014796  0.000000000
     0.000000000  0.000000000 22.196203232     0.000000000  0.000000000  0.045052750

  length of vectors
     8.813512802  8.813512802 22.196203232     0.131014796  0.131014796  0.045052750

  position of ions in fractional coordinates (direct lattice)
     0.000000000  0.000000000  0.237895638
     0.333333343  0.000000000  0.237895638
     0.666666687  0.000000000  0.237895638
     1.000000000  0.333333343  0.237895638
     0.333333313  0.333333343  0.237895638
     0.666666687  0.333333343  0.237895638
     1.000000000  0.666666687  0.237895638
     0.333333343  0.666666687  0.237895638
     0.666666627  0.666666687  0.237895638
     0.111111119  0.111111112  0.345965207
     0.444444418  0.111111112  0.345965207
     0.777777791  0.111111112  0.345965207
     0.111111127  0.444444448  0.345965207
     0.444444478  0.444444448  0.345965207
     0.777777731  0.444444448  0.345965207
     0.111111090  0.777777791  0.345965207
     0.444444448  0.777777791  0.345965207
     0.777777851  0.777777791  0.345965207
     0.888618023  0.222763970  0.454446333
     0.222009851  0.222009836  0.452661401
     0.555980358  0.222009836  0.452661401
     0.886669919  0.556665071  0.453631222
     0.222009806  0.555980358  0.452661401
     0.556665071  0.556665071  0.453631222
     0.888618023  0.888618023  0.454446333
     0.222764000  0.888618023  0.454446333
     0.556665011  0.886669919  0.453631222
     0.000000000  0.000000000  0.563133560
     0.333745784  0.009183304  0.565704203
     0.657070942  0.009183304  0.565704203
     0.009183304  0.333745784  0.565704203
     0.657070942  0.333745784  0.565704203
     0.009183304  0.657070942  0.565704203
     0.333745784  0.657070942  0.565704203
     0.666666627  0.666666687  0.563383642
     0.333333313  0.333333343  0.551633869
     0.286536188  0.333359838  0.639329679
     0.380103943  0.333359838  0.639329679

  ion indices of the primitive-cell ions
   primitive index   ion index
                 1           1
                 2           2
                 3           3
                 4           4
                 5           5
                 6           6
                 7           7
                 8           8
                 9           9
                10          10
                11          11
                12          12
                13          13
                14          14
                15          15
                16          16
                17          17
                18          18
                19          19
                20          20
                21          21
                22          22
                23          23
                24          24
                25          25
                26          26
                27          27
                28          28
                29          29
                30          30
                31          31
                32          32
                33          33
                34          34
                35          35
                36          36
                37          37
                38          38

----------------------------------------------------------------------------------------

 
 
 KPOINTS: Automatic mesh                          

Automatic generation of k-mesh.
 Grid dimensions read from file:
 generate k-points for:    8    8    1

 Generating k-lattice:

  Cartesian coordinates                     Fractional coordinates (reciprocal lattice)
     0.014182767 -0.008188426  0.000000000     0.125000000 -0.000000000  0.000000000
     0.000000000  0.016376850  0.000000000     0.000000000  0.125000000  0.000000000
     0.000000000  0.000000000  0.045052750     0.000000000  0.000000000  1.000000000

  Length of vectors
     0.016376850  0.016376850  0.045052750

  Shift w.r.t. Gamma in fractional coordinates (k-lattice)
     0.000000000  0.000000000  0.000000000

 TETIRR: Found    100 inequivalent tetrahedra from      384
 
 Subroutine IBZKPT returns following result:
 ===========================================
 
 Found     21 irreducible k-points:
 
 Following reciprocal coordinates:
            Coordinates               Weight
  0.000000  0.000000  0.000000      1.000000
  0.125000 -0.000000  0.000000      4.000000
  0.000000  0.125000  0.000000      2.000000
  0.250000 -0.000000  0.000000      4.000000
  0.000000  0.250000  0.000000      2.000000
  0.375000  0.000000  0.000000      4.000000
  0.000000  0.375000  0.000000      2.000000
  0.500000 -0.000000  0.000000      2.000000
  0.000000  0.500000  0.000000      1.000000
  0.250000  0.125000  0.000000      2.000000
  0.125000  0.250000  0.000000      4.000000
  0.375000  0.125000  0.000000      4.000000
  0.250000  0.375000  0.000000      4.000000
 -0.125000  0.250000  0.000000      4.000000
  0.500000  0.125000  0.000000      4.000000
  0.375000  0.500000  0.000000      4.000000
 -0.125000  0.375000  0.000000      4.000000
  0.500000  0.250000  0.000000      2.000000
  0.250000  0.500000  0.000000      4.000000
 -0.375000  0.250000  0.000000      4.000000
 -0.250000  0.375000  0.000000      2.000000
 
 Following cartesian coordinates:
            Coordinates               Weight
  0.000000  0.000000  0.000000      1.000000
  0.014183 -0.008188  0.000000      4.000000
  0.000000  0.016377  0.000000      2.000000
  0.028366 -0.016377  0.000000      4.000000
  0.000000  0.032754  0.000000      2.000000
  0.042548 -0.024565  0.000000      4.000000
  0.000000  0.049131  0.000000      2.000000
  0.056731 -0.032754  0.000000      2.000000
  0.000000  0.065507  0.000000      1.000000
  0.028366 -0.000000  0.000000      2.000000
  0.014183  0.024565  0.000000      4.000000
  0.042548 -0.008188  0.000000      4.000000
  0.028366  0.032754  0.000000      4.000000
 -0.014183  0.040942  0.000000      4.000000
  0.056731 -0.016377  0.000000      4.000000
  0.042548  0.040942  0.000000      4.000000
 -0.014183  0.057319  0.000000      4.000000
  0.056731 -0.000000  0.000000      2.000000
  0.028366  0.049131  0.000000      4.000000
 -0.042548  0.057319  0.000000      4.000000
 -0.028366  0.065507  0.000000      2.000000
 


--------------------------------------------------------------------------------------------------------




 Dimension of arrays:
   k-points           NKPTS =     21   k-points in BZ     NKDIM =     21   number of bands    NBANDS=    252
   number of dos      NEDOS =    301   number of ions     NIONS =     38
   non local maximal  LDIM  =      6   non local SUM 2l+1 LMDIM =     18
   total plane-waves  NPLWV = 290304
   max r-space proj   IRMAX =   3166   max aug-charges    IRDMAX=  12088
   dimension x,y,z NGX =    48 NGY =   48 NGZ =  126
   dimension x,y,z NGXF=    96 NGYF=   96 NGZF=  252
   support grid    NGXF=    96 NGYF=   96 NGZF=  252
   ions per type =              35   1   2
   NGX,Y,Z   is equivalent  to a cutoff of   9.05,  9.05,  9.44 a.u.
   NGXF,Y,Z  is equivalent  to a cutoff of  18.11, 18.11, 18.87 a.u.

 SYSTEM =  unknown system                          
 POSCAR =  Au-Nb-H2                                

 Startparameter for this run:
   NWRITE =      2    write-flag & timer
   PREC   = normal    normal or accurate (medium, high low for compatibility)
   ISTART =      0    job   : 0-new  1-cont  2-samecut
   ICHARG =     11    charge: 1-file 2-atom 10-const
   ISPIN  =      1    spin polarized calculation?
   LNONCOLLINEAR =      F non collinear calculations
   LSORBIT =      F    spin-orbit coupling
   INIWAV =      1    electr: 0-lowe 1-rand  2-diag
   LASPH  =      F    aspherical Exc in radial PAW
   METAGGA=      F    non-selfconsistent MetaGGA calc.

 Electronic Relaxation 1
   ENCUT  =  500.0 eV  36.75 Ry    6.06 a.u.  16.07 16.07 40.47*2*pi/ulx,y,z
   ENINI  =  500.0     initial cutoff
   ENAUG  =  455.7 eV  augmentation charge cutoff
   NELM   =    150;   NELMIN=  2; NELMDL= -5     # of ELM steps 
   EDIFF  = 0.1E-04   stopping-criterion for ELM
   LREAL  =      T    real-space projection
   NLSPLINE    = F    spline interpolate recip. space projectors
   LCOMPAT=      F    compatible to vasp.4.4
   GGA_COMPAT  = T    GGA compatible to vasp.4.4-vasp.4.6
   LMAXPAW     = -100 max onsite density
   LMAXMIX     =    2 max onsite mixed and CHGCAR
   VOSKOWN=      0    Vosko Wilk Nusair interpolation
   ROPT   =   -0.00050  -0.00050  -0.00050
 Ionic relaxation
   EDIFFG = -.1E-01   stopping-criterion for IOM
   NSW    =      0    number of steps for IOM
   NBLOCK =      1;   KBLOCK =      1    inner block; outer block 
   IBRION =     -1    ionic relax: 0-MD 1-quasi-New 2-CG
   NFREE  =      1    steps in history (QN), initial steepest desc. (CG)
   ISIF   =      2    stress and relaxation
   IWAVPR =     10    prediction:  0-non 1-charg 2-wave 3-comb
   ISYM   =      2    0-nonsym 1-usesym 2-fastsym
   LCORR  =      T    Harris-Foulkes like correction to forces

   POTIM  = 0.5000    time-step for ionic-motion
   TEIN   =    0.0    initial temperature
   TEBEG  =    0.0;   TEEND  =   0.0 temperature during run
   SMASS  =  -3.00    Nose mass-parameter (am)
   estimated Nose-frequenzy (Omega)   =  0.10E-29 period in steps = 0.13E+47 mass=  -0.178E-26a.u.
   SCALEE = 1.0000    scale energy and forces
   NPACO  =    256;   APACO  = 16.0  distance and # of slots for P.C.
   PSTRESS=    0.0 pullay stress

  Mass of Ions in am
   POMASS = 196.97 92.91  1.00
  Ionic Valenz
   ZVAL   =  11.00 13.00  1.00
  Atomic Wigner-Seitz radii
   RWIGS  =  -1.00 -1.00 -1.00
  virtual crystal weights 
   VCA    =   1.00  1.00  1.00
   NELECT =     400.0000    total number of electrons
   NUPDOWN=      -1.0000    fix difference up-down

 DOS related values:
   EMIN   =  10.00;   EMAX   =-10.00  energy-range for DOS
   EFERMI =   0.00
   ISMEAR =    -5;   SIGMA  =   0.10  broadening in eV -4-tet -1-fermi 0-gaus

 Electronic relaxation 2 (details)
   IALGO  =     68    algorithm
   LDIAG  =      T    sub-space diagonalisation (order eigenvalues)
   LSUBROT=      F    optimize rotation matrix (better conditioning)
   TURBO    =      0    0=normal 1=particle mesh
   IRESTART =      0    0=no restart 2=restart with 2 vectors
   NREBOOT  =      0    no. of reboots
   NMIN     =      0    reboot dimension
   EREF     =   0.00    reference energy to select bands
   IMIX   =      4    mixing-type and parameters
     AMIX     =   0.40;   BMIX     =  1.00
     AMIX_MAG =   1.60;   BMIX_MAG =  1.00
     AMIN     =   0.10
     WC   =   100.;   INIMIX=   1;  MIXPRE=   1;  MAXMIX= -45

 Intra band minimization:
   WEIMIN = 0.0000     energy-eigenvalue tresh-hold
   EBREAK =  0.99E-08  absolut break condition
   DEPER  =   0.30     relativ break condition  

   TIME   =   0.40     timestep for ELM

  volume/ion in A,a.u.               =      39.29       265.17
  Fermi-wavevector in a.u.,A,eV,Ry     =   1.055340  1.994303 15.153385  1.113742
  Thomas-Fermi vector in A             =   2.190534
 
 Write flags
   LWAVE        =      F    write WAVECAR
   LDOWNSAMPLE  =      F    k-point downsampling of WAVECAR
   LCHARG       =      F    write CHGCAR
   LVTOT        =      F    write LOCPOT, total local potential
   LVHAR        =      F    write LOCPOT, Hartree potential only
   LELF         =      F    write electronic localiz. function (ELF)
   LORBIT       =     10    0 simple, 1 ext, 2 COOP (PROOUT), +10 PAW based schemes


 Dipole corrections
   LMONO  =      F    monopole corrections only (constant potential shift)
   LDIPOL =      F    correct potential (dipole corrections)
   IDIPOL =      0    1-x, 2-y, 3-z, 4-all directions 
   EPSILON=  1.0000000 bulk dielectric constant

 Exchange correlation treatment:
   GGA     =    --    GGA type
   LEXCH   =     8    internal setting for exchange type
   VOSKOWN=      0    Vosko Wilk Nusair interpolation
   LHFCALC =     F    Hartree Fock is set to
   LHFONE  =     F    Hartree Fock one center treatment
   AEXX    =    0.0000 exact exchange contribution

 Linear response parameters
   LEPSILON=     F    determine dielectric tensor
   LRPA    =     F    only Hartree local field effects (RPA)
   LNABLA  =     F    use nabla operator in PAW spheres
   LVEL    =     F    velocity operator in full k-point grid
   LINTERFAST=   F  fast interpolation
   KINTER  =     0    interpolate to denser k-point grid
   CSHIFT  =0.1000    complex shift for real part using Kramers Kronig
   OMEGAMAX=  -1.0    maximum frequency
   DEG_THRESHOLD= 0.2000000E-02 threshold for treating states as degnerate
   RTIME   =   -0.100 relaxation time in fs
  (WPLASMAI=    0.000 imaginary part of plasma frequency in eV, 0.658/RTIME)
   DFIELD  = 0.0000000 0.0000000 0.0000000 field for delta impulse in time
 
 Orbital magnetization related:
   ORBITALMAG=     F  switch on orbital magnetization
   LCHIMAG   =     F  perturbation theory with respect to B field
   DQ        =  0.001000  dq finite difference perturbation B field
   LLRAUG    =     F  two centre corrections for induced B field



--------------------------------------------------------------------------------------------------------


 Static calculation
 charge density and potential remain constant during run
 non-spin polarized calculation
 RMM-DIIS sequential band-by-band and
  variant of blocked Davidson during initial phase
 perform sub-space diagonalisation
    before iterative eigenvector-optimisation
 no mixing
 using additional bands           52
 real space projection scheme for non local part
 use partial core corrections
 calculate Harris-corrections to forces 
   (improved forces if not selfconsistent)
 use gradient corrections 
 WARNING: stress and forces are not correct
  (second derivative of E(xc) not defined)
 use of overlap-Matrix (Vanderbilt PP)
 Fermi weights with tetrahedron method with Bloechl corrections


--------------------------------------------------------------------------------------------------------


  energy-cutoff  :      500.00
  volume of cell :     1493.16
      direct lattice vectors                 reciprocal lattice vectors
     8.813512802  0.000000000  0.000000000     0.113462137 -0.065507406  0.000000000
     4.406756909  7.632725690  0.000000000     0.000000000  0.131014796  0.000000000
     0.000000000  0.000000000 22.196203232     0.000000000  0.000000000  0.045052750

  length of vectors
     8.813512802  8.813512802 22.196203232     0.131014796  0.131014796  0.045052750


 
 k-points in units of 2pi/SCALE and weight: Automatic mesh                          
   0.00000000  0.00000000  0.00000000       0.016
   0.01418277 -0.00818843  0.00000000       0.062
   0.00000000  0.01637685  0.00000000       0.031
   0.02836553 -0.01637685  0.00000000       0.062
   0.00000000  0.03275370  0.00000000       0.031
   0.04254830 -0.02456528  0.00000000       0.062
   0.00000000  0.04913055  0.00000000       0.031
   0.05673107 -0.03275370  0.00000000       0.031
   0.00000000  0.06550740  0.00000000       0.016
   0.02836553 -0.00000000  0.00000000       0.031
   0.01418277  0.02456527  0.00000000       0.062
   0.04254830 -0.00818843  0.00000000       0.062
   0.02836553  0.03275370  0.00000000       0.062
  -0.01418277  0.04094212  0.00000000       0.062
   0.05673107 -0.01637685  0.00000000       0.062
   0.04254830  0.04094212  0.00000000       0.062
  -0.01418277  0.05731897  0.00000000       0.062
   0.05673107 -0.00000000  0.00000000       0.031
   0.02836553  0.04913055  0.00000000       0.062
  -0.04254830  0.05731898  0.00000000       0.062
  -0.02836553  0.06550740  0.00000000       0.031
 
 k-points in reciprocal lattice and weights: Automatic mesh                          
   0.00000000  0.00000000  0.00000000       0.016
   0.12500000 -0.00000000  0.00000000       0.062
   0.00000000  0.12500000  0.00000000       0.031
   0.25000000 -0.00000000  0.00000000       0.062
   0.00000000  0.25000000  0.00000000       0.031
   0.37500000  0.00000000  0.00000000       0.062
   0.00000000  0.37500000  0.00000000       0.031
   0.50000000 -0.00000000  0.00000000       0.031
   0.00000000  0.50000000  0.00000000       0.016
   0.25000000  0.12500000  0.00000000       0.031
   0.12500000  0.25000000  0.00000000       0.062
   0.37500000  0.12500000  0.00000000       0.062
   0.25000000  0.37500000  0.00000000       0.062
  -0.12500000  0.25000000  0.00000000       0.062
   0.50000000  0.12500000  0.00000000       0.062
   0.37500000  0.50000000  0.00000000       0.062
  -0.12500000  0.37500000  0.00000000       0.062
   0.50000000  0.25000000  0.00000000       0.031
   0.25000000  0.50000000  0.00000000       0.062
  -0.37500000  0.25000000  0.00000000       0.062
  -0.25000000  0.37500000  0.00000000       0.031
 
 position of ions in fractional coordinates (direct lattice) 
   0.00000000  0.00000000  0.23789564
   0.33333334  0.00000000  0.23789564
   0.66666669  0.00000000  0.23789564
   0.00000000  0.33333334  0.23789564
   0.33333331  0.33333334  0.23789564
   0.66666669  0.33333334  0.23789564
   0.00000000  0.66666669  0.23789564
   0.33333334  0.66666669  0.23789564
   0.66666663  0.66666669  0.23789564
   0.11111112  0.11111111  0.34596521
   0.44444442  0.11111111  0.34596521
   0.77777779  0.11111111  0.34596521
   0.11111113  0.44444445  0.34596521
   0.44444448  0.44444445  0.34596521
   0.77777773  0.44444445  0.34596521
   0.11111109  0.77777779  0.34596521
   0.44444445  0.77777779  0.34596521
   0.77777785  0.77777779  0.34596521
   0.88861802  0.22276397  0.45444633
   0.22200985  0.22200984  0.45266140
   0.55598036  0.22200984  0.45266140
   0.88666992  0.55666507  0.45363122
   0.22200981  0.55598036  0.45266140
   0.55666507  0.55666507  0.45363122
   0.88861802  0.88861802  0.45444633
   0.22276400  0.88861802  0.45444633
   0.55666501  0.88666992  0.45363122
   0.00000000  0.00000000  0.56313356
   0.33374578  0.00918330  0.56570420
   0.65707094  0.00918330  0.56570420
   0.00918330  0.33374578  0.56570420
   0.65707094  0.33374578  0.56570420
   0.00918330  0.65707094  0.56570420
   0.33374578  0.65707094  0.56570420
   0.66666663  0.66666669  0.56338364
   0.33333331  0.33333334  0.55163387
   0.28653619  0.33335984  0.63932968
   0.38010394  0.33335984  0.63932968
 
 position of ions in cartesian coordinates  (Angst):
   0.00000000  0.00000000  5.28037993
   2.93783769  0.00000000  5.28037993
   5.87567538  0.00000000  5.28037993
   1.46891901  2.54424197  5.28037993
   4.40675643  2.54424197  5.28037993
   7.34459439  2.54424197  5.28037993
   2.93783803  5.08848395  5.28037993
   5.87567571  5.08848395  5.28037993
   8.81351288  5.08848395  5.28037993
   1.46891893  0.84808064  7.67911405
   4.40675623  0.84808064  7.67911405
   7.34459418  0.84808064  7.67911405
   2.93783798  3.39232256  7.67911405
   5.87567574  3.39232256  7.67911405
   8.81351263  3.39232256  7.67911405
   4.40675667  5.93656453  7.67911405
   7.34459449  5.93656453  7.67911405
  10.28243270  5.93656453  7.67911405
   8.81351299  1.70029628 10.08698316
   2.93503004  1.69454018 10.04736446
   5.87848338  1.69454018 10.04736446
  10.26776433  4.24887178 10.06889079
   4.40675655  4.24364556 10.04736446
   7.35926237  4.24887178 10.06889079
  11.74776993  6.78257761 10.08698316
   5.87925698  6.78257761 10.08698316
   8.81351299  6.76770827 10.06889079
   0.00000000  0.00000000 12.49942695
   2.98194133  0.07009364 12.55648547
   5.83157175  0.07009364 12.55648547
   1.55167371  2.54739002 12.55648547
   7.26183970  2.54739002 12.55648547
   2.97648908  5.01524226 12.55648547
   5.83702465  5.01524226 12.55648547
   8.81351288  5.08848395 12.50497782
   4.40675643  2.54424197 12.24417747
   3.99442613  2.54444420 14.19069149
   4.81908674  2.54444420 14.19069149
 


--------------------------------------------------------------------------------------------------------


 k-point   1 :   0.0000 0.0000 0.0000  plane waves:   37827
 k-point   2 :   0.1250-0.0000 0.0000  plane waves:   37876
 k-point   3 :   0.0000 0.1250 0.0000  plane waves:   37876
 k-point   4 :   0.2500-0.0000 0.0000  plane waves:   37924
 k-point   5 :   0.0000 0.2500 0.0000  plane waves:   37924
 k-point   6 :   0.3750 0.0000 0.0000  plane waves:   37904
 k-point   7 :   0.0000 0.3750 0.0000  plane waves:   37904
 k-point   8 :   0.5000-0.0000 0.0000  plane waves:   37912
 k-point   9 :   0.0000 0.5000 0.0000  plane waves:   37912
 k-point  10 :   0.2500 0.1250 0.0000  plane waves:   37858
 k-point  11 :   0.1250 0.2500 0.0000  plane waves:   37858
 k-point  12 :   0.3750 0.1250 0.0000  plane waves:   37928
 k-point  13 :   0.2500 0.3750 0.0000  plane waves:   37928
 k-point  14 :  -0.1250 0.2500 0.0000  plane waves:   37928
 k-point  15 :   0.5000 0.1250 0.0000  plane waves:   37924
 k-point  16 :   0.3750 0.5000 0.0000  plane waves:   37924
 k-point  17 :  -0.1250 0.3750 0.0000  plane waves:   37924
 k-point  18 :   0.5000 0.2500 0.0000  plane waves:   37926
 k-point  19 :   0.2500 0.5000 0.0000  plane waves:   37926
 k-point  20 :  -0.3750 0.2500 0.0000  plane waves:   37916
 k-point  21 :  -0.2500 0.3750 0.0000  plane waves:   37916

 maximum and minimum number of plane-waves per node :     37928    37827

 maximum number of plane-waves:     37928
 maximum index in each direction: 
   IXMAX=   16   IYMAX=   16   IZMAX=   40
   IXMIN=  -16   IYMIN=  -16   IZMIN=  -40


 serial   3D FFT for wavefunctions
 parallel 3D FFT for charge:
    minimum data exchange during FFTs selected (reduces bandwidth)


 total amount of memory used by VASP MPI-rank0   183916. kBytes
=======================================================================

   base      :      30000. kBytes
   nonlr-proj:      14355. kBytes
   fftplans  :       4330. kBytes
   grid      :      17879. kBytes
   one-center:        590. kBytes
   wavefun   :     116762. kBytes
 
     INWAV:  cpu time    0.0000: real time    0.0001
 initial charge density was supplied:
 number of electron     400.0000069 magnetization 
 keeping initial charge density in first step


--------------------------------------------------------------------------------------------------------


 Maximum index for non-local projection operator         3066
 Maximum index for augmentation-charges          863 (set IRDMAX)


--------------------------------------------------------------------------------------------------------


 First call to EWALD:  gamma=   0.155
 Maximum number of real-space cells 4x 4x 2
 Maximum number of reciprocal cells 2x 2x 5

    FEWALD:  cpu time    0.0013: real time    0.0014


--------------------------------------- Iteration      1(   1)  ---------------------------------------


    POTLOK:  cpu time    0.0455: real time    0.0459
    SETDIJ:  cpu time    0.0051: real time    0.0051
     EDDAV:  cpu time   15.0073: real time   15.0088
 BZINTS: Fermi energy:   11.537490;  400.000000 electrons
         Band energy: 0.138812E+04;  BLOECHL correction:   -0.025585
       DOS:  cpu time    0.0287: real time    0.0287
    --------------------------------------------
      LOOP:  cpu time   15.0865: real time   15.0886

 eigenvalue-minimisations  : 10640
 total energy-change (2. order) : 0.2697230E+04  (-0.1832130E+05)
 number of electron     400.0000069 magnetization 
 augmentation part      400.0000069 magnetization 

 Free energy of the ion-electron system (eV)
  ---------------------------------------------------
  alpha Z        PSCENC =      1024.85740717
  Ewald energy   TEWEN  =     97231.11515553
  -Hartree energ DENC   =   -132265.26056386
  -exchange      EXHF   =         0.00000000
  -V(xc)+E(xc)   XCENC  =       578.31743544
  PAW double counting   =     36478.93425459   -35731.89821431
  entropy T*S    EENTRO =         0.00000000
  eigenvalues    EBANDS =      1388.12127377
  atomic energy  EATOM  =     33993.04351118
  Solvation  Ediel_sol  =         0.00000000
  ---------------------------------------------------
  free energy    TOTEN  =      2697.23025950 eV

  energy without entropy =     2697.23025950  energy(sigma->0) =     2697.23025950


--------------------------------------------------------------------------------------------------------




--------------------------------------- Iteration      1(   2)  ---------------------------------------


     EDDAV:  cpu time   16.3411: real time   16.3412
 BZINTS: Fermi energy:    1.701118;  400.000000 electrons
         Band energy:-0.129197E+04;  BLOECHL correction:   -0.028504
       DOS:  cpu time    0.0274: real time    0.0274
    --------------------------------------------
      LOOP:  cpu time   16.3685: real time   16.3687

 eigenvalue-minimisations  : 11760
 total energy-change (2. order) :-0.2680090E+04  (-0.2488592E+04)
 number of electron     400.0000069 magnetization 
 augmentation part      400.0000069 magnetization 

 Free energy of the ion-electron system (eV)
  ---------------------------------------------------
  alpha Z        PSCENC =      1024.85740717
  Ewald energy   TEWEN  =     97231.11515553
  -Hartree energ DENC   =   -132265.26056386
  -exchange      EXHF   =         0.00000000
  -V(xc)+E(xc)   XCENC  =       578.31743544
  PAW double counting   =     36478.93425459   -35731.89821431
  entropy T*S    EENTRO =         0.00000000
  eigenvalues    EBANDS =     -1291.96871770
  atomic energy  EATOM  =     33993.04351118
  Solvation  Ediel_sol  =         0.00000000
  ---------------------------------------------------
  free energy    TOTEN  =        17.14026802 eV

  energy without entropy =       17.14026802  energy(sigma->0) =       17.14026802


--------------------------------------------------------------------------------------------------------




--------------------------------------- Iteration      1(   3)  ---------------------------------------


     EDDAV:  cpu time   18.3547: real time   18.3548
 BZINTS: Fermi energy:    0.892986;  400.000000 electrons
         Band energy:-0.142831E+04;  BLOECHL correction:   -0.032341
       DOS:  cpu time    0.0278: real time    0.0278
    --------------------------------------------
      LOOP:  cpu time   18.3825: real time   18.3826

 eigenvalue-minimisations  : 13524
 total energy-change (2. order) :-0.1363368E+03  (-0.1316827E+03)
 number of electron     400.0000069 magnetization 
 augmentation part      400.0000069 magnetization 

 Free energy of the ion-electron system (eV)
  ---------------------------------------------------
  alpha Z        PSCENC =      1024.85740717
  Ewald energy   TEWEN  =     97231.11515553
  -Hartree energ DENC   =   -132265.26056386
  -exchange      EXHF   =         0.00000000
  -V(xc)+E(xc)   XCENC  =       578.31743544
  PAW double counting   =     36478.93425459   -35731.89821431
  entropy T*S    EENTRO =         0.00000000
  eigenvalues    EBANDS =     -1428.30553049
  atomic energy  EATOM  =     33993.04351118
  Solvation  Ediel_sol  =         0.00000000
  ---------------------------------------------------
  free energy    TOTEN  =      -119.19654477 eV

  energy without entropy =     -119.19654477  energy(sigma->0) =     -119.19654477


--------------------------------------------------------------------------------------------------------




--------------------------------------- Iteration      1(   4)  ---------------------------------------


     EDDAV:  cpu time   20.6063: real time   20.6065
 BZINTS: Fermi energy:    0.860043;  400.000000 electrons
         Band energy:-0.143248E+04;  BLOECHL correction:   -0.033100
       DOS:  cpu time    0.0304: real time    0.0304
    --------------------------------------------
      LOOP:  cpu time   20.6367: real time   20.6369

 eigenvalue-minimisations  : 15540
 total energy-change (2. order) :-0.4176612E+01  (-0.4149209E+01)
 number of electron     400.0000069 magnetization 
 augmentation part      400.0000069 magnetization 

 Free energy of the ion-electron system (eV)
  ---------------------------------------------------
  alpha Z        PSCENC =      1024.85740717
  Ewald energy   TEWEN  =     97231.11515553
  -Hartree energ DENC   =   -132265.26056386
  -exchange      EXHF   =         0.00000000
  -V(xc)+E(xc)   XCENC  =       578.31743544
  PAW double counting   =     36478.93425459   -35731.89821431
  entropy T*S    EENTRO =         0.00000000
  eigenvalues    EBANDS =     -1432.48214213
  atomic energy  EATOM  =     33993.04351118
  Solvation  Ediel_sol  =         0.00000000
  ---------------------------------------------------
  free energy    TOTEN  =      -123.37315641 eV

  energy without entropy =     -123.37315641  energy(sigma->0) =     -123.37315641


--------------------------------------------------------------------------------------------------------




--------------------------------------- Iteration      1(   5)  ---------------------------------------


     EDDAV:  cpu time   18.7816: real time   18.7816
 BZINTS: Fermi energy:    0.859031;  400.000000 electrons
         Band energy:-0.143260E+04;  BLOECHL correction:   -0.032976
       DOS:  cpu time    0.0304: real time    0.0304
    --------------------------------------------
      LOOP:  cpu time   18.8120: real time   18.8119

 eigenvalue-minimisations  : 13972
 total energy-change (2. order) :-0.1143829E+00  (-0.1144550E+00)
 number of electron     400.0000069 magnetization 
 augmentation part      400.0000069 magnetization 

 Free energy of the ion-electron system (eV)
  ---------------------------------------------------
  alpha Z        PSCENC =      1024.85740717
  Ewald energy   TEWEN  =     97231.11515553
  -Hartree energ DENC   =   -132265.26056386
  -exchange      EXHF   =         0.00000000
  -V(xc)+E(xc)   XCENC  =       578.31743544
  PAW double counting   =     36478.93425459   -35731.89821431
  entropy T*S    EENTRO =         0.00000000
  eigenvalues    EBANDS =     -1432.59652501
  atomic energy  EATOM  =     33993.04351118
  Solvation  Ediel_sol  =         0.00000000
  ---------------------------------------------------
  free energy    TOTEN  =      -123.48753929 eV

  energy without entropy =     -123.48753929  energy(sigma->0) =     -123.48753929


--------------------------------------------------------------------------------------------------------




--------------------------------------- Iteration      1(   6)  ---------------------------------------


    EDDIAG:  cpu time    3.0183: real time    3.0184
  RMM-DIIS:  cpu time   12.2729: real time   12.2729
    ORTHCH:  cpu time    0.5533: real time    0.5533
 BZINTS: Fermi energy:    0.859017;  400.000000 electrons
         Band energy:-0.143260E+04;  BLOECHL correction:   -0.032972
       DOS:  cpu time    0.0297: real time    0.0297
    --------------------------------------------
      LOOP:  cpu time   15.8743: real time   15.8744

 eigenvalue-minimisations  : 15296
 total energy-change (2. order) :-0.1949051E-02  (-0.1952523E-02)
 number of electron     400.0000069 magnetization 
 augmentation part      400.0000069 magnetization 

 Free energy of the ion-electron system (eV)
  ---------------------------------------------------
  alpha Z        PSCENC =      1024.85740717
  Ewald energy   TEWEN  =     97231.11515553
  -Hartree energ DENC   =   -132265.26056386
  -exchange      EXHF   =         0.00000000
  -V(xc)+E(xc)   XCENC  =       578.31743544
  PAW double counting   =     36478.93425459   -35731.89821431
  entropy T*S    EENTRO =         0.00000000
  eigenvalues    EBANDS =     -1432.59847406
  atomic energy  EATOM  =     33993.04351118
  Solvation  Ediel_sol  =         0.00000000
  ---------------------------------------------------
  free energy    TOTEN  =      -123.48948834 eV

  energy without entropy =     -123.48948834  energy(sigma->0) =     -123.48948834


--------------------------------------------------------------------------------------------------------




--------------------------------------- Iteration      1(   7)  ---------------------------------------


    EDDIAG:  cpu time    3.0108: real time    3.0108
  RMM-DIIS:  cpu time   15.6272: real time   15.6271
    ORTHCH:  cpu time    0.5525: real time    0.5525
 BZINTS: Fermi energy:    0.859011;  400.000000 electrons
         Band energy:-0.143260E+04;  BLOECHL correction:   -0.032970
       DOS:  cpu time    0.0303: real time    0.0303
    --------------------------------------------
      LOOP:  cpu time   19.2207: real time   19.2207

 eigenvalue-minimisations  : 19851
 total energy-change (2. order) :-0.1077970E-02  (-0.1049934E-02)
 number of electron     400.0000069 magnetization 
 augmentation part      400.0000069 magnetization 

 Free energy of the ion-electron system (eV)
  ---------------------------------------------------
  alpha Z        PSCENC =      1024.85740717
  Ewald energy   TEWEN  =     97231.11515553
  -Hartree energ DENC   =   -132265.26056386
  -exchange      EXHF   =         0.00000000
  -V(xc)+E(xc)   XCENC  =       578.31743544
  PAW double counting   =     36478.93425459   -35731.89821431
  entropy T*S    EENTRO =         0.00000000
  eigenvalues    EBANDS =     -1432.59955203
  atomic energy  EATOM  =     33993.04351118
  Solvation  Ediel_sol  =         0.00000000
  ---------------------------------------------------
  free energy    TOTEN  =      -123.49056631 eV

  energy without entropy =     -123.49056631  energy(sigma->0) =     -123.49056631


--------------------------------------------------------------------------------------------------------




--------------------------------------- Iteration      1(   8)  ---------------------------------------


    EDDIAG:  cpu time    3.0212: real time    3.0214
  RMM-DIIS:  cpu time   14.6990: real time   14.6990
    ORTHCH:  cpu time    0.5526: real time    0.5526
 BZINTS: Fermi energy:    0.859010;  400.000000 electrons
         Band energy:-0.143260E+04;  BLOECHL correction:   -0.032970
       DOS:  cpu time    0.0303: real time    0.0303
    --------------------------------------------
      LOOP:  cpu time   18.3031: real time   18.3033

 eigenvalue-minimisations  : 18377
 total energy-change (2. order) :-0.2331712E-03  (-0.2107480E-03)
 number of electron     400.0000069 magnetization 
 augmentation part      400.0000069 magnetization 

 Free energy of the ion-electron system (eV)
  ---------------------------------------------------
  alpha Z        PSCENC =      1024.85740717
  Ewald energy   TEWEN  =     97231.11515553
  -Hartree energ DENC   =   -132265.26056386
  -exchange      EXHF   =         0.00000000
  -V(xc)+E(xc)   XCENC  =       578.31743544
  PAW double counting   =     36478.93425459   -35731.89821431
  entropy T*S    EENTRO =         0.00000000
  eigenvalues    EBANDS =     -1432.59978520
  atomic energy  EATOM  =     33993.04351118
  Solvation  Ediel_sol  =         0.00000000
  ---------------------------------------------------
  free energy    TOTEN  =      -123.49079948 eV

  energy without entropy =     -123.49079948  energy(sigma->0) =     -123.49079948


--------------------------------------------------------------------------------------------------------




--------------------------------------- Iteration      1(   9)  ---------------------------------------


    EDDIAG:  cpu time    3.0146: real time    3.0148
  RMM-DIIS:  cpu time   13.1261: real time   13.1261
    ORTHCH:  cpu time    0.5532: real time    0.5532
 BZINTS: Fermi energy:    0.859009;  400.000000 electrons
         Band energy:-0.143260E+04;  BLOECHL correction:   -0.032970
       DOS:  cpu time    0.0278: real time    0.0278
    --------------------------------------------
      LOOP:  cpu time   16.7218: real time   16.7220

 eigenvalue-minimisations  : 15821
 total energy-change (2. order) :-0.8132818E-04  (-0.7549457E-04)
 number of electron     400.0000069 magnetization 
 augmentation part      400.0000069 magnetization 

 Free energy of the ion-electron system (eV)
  ---------------------------------------------------
  alpha Z        PSCENC =      1024.85740717
  Ewald energy   TEWEN  =     97231.11515553
  -Hartree energ DENC   =   -132265.26056386
  -exchange      EXHF   =         0.00000000
  -V(xc)+E(xc)   XCENC  =       578.31743544
  PAW double counting   =     36478.93425459   -35731.89821431
  entropy T*S    EENTRO =         0.00000000
  eigenvalues    EBANDS =     -1432.59986653
  atomic energy  EATOM  =     33993.04351118
  Solvation  Ediel_sol  =         0.00000000
  ---------------------------------------------------
  free energy    TOTEN  =      -123.49088081 eV

  energy without entropy =     -123.49088081  energy(sigma->0) =     -123.49088081


--------------------------------------------------------------------------------------------------------




--------------------------------------- Iteration      1(  10)  ---------------------------------------


    EDDIAG:  cpu time    3.0106: real time    3.0107
  RMM-DIIS:  cpu time   11.9182: real time   11.9181
    ORTHCH:  cpu time    0.5529: real time    0.5529
 BZINTS: Fermi energy:    0.859008;  400.000000 electrons
         Band energy:-0.143260E+04;  BLOECHL correction:   -0.032970
       DOS:  cpu time    0.0303: real time    0.0303
    --------------------------------------------
      LOOP:  cpu time   15.5119: real time   15.5147

 eigenvalue-minimisations  : 14021
 total energy-change (2. order) :-0.3470268E-04  (-0.3212808E-04)
 number of electron     400.0000069 magnetization 
 augmentation part      400.0000069 magnetization 

 Free energy of the ion-electron system (eV)
  ---------------------------------------------------
  alpha Z        PSCENC =      1024.85740717
  Ewald energy   TEWEN  =     97231.11515553
  -Hartree energ DENC   =   -132265.26056386
  -exchange      EXHF   =         0.00000000
  -V(xc)+E(xc)   XCENC  =       578.31743544
  PAW double counting   =     36478.93425459   -35731.89821431
  entropy T*S    EENTRO =         0.00000000
  eigenvalues    EBANDS =     -1432.59990123
  atomic energy  EATOM  =     33993.04351118
  Solvation  Ediel_sol  =         0.00000000
  ---------------------------------------------------
  free energy    TOTEN  =      -123.49091551 eV

  energy without entropy =     -123.49091551  energy(sigma->0) =     -123.49091551


--------------------------------------------------------------------------------------------------------




--------------------------------------- Iteration      1(  11)  ---------------------------------------


    EDDIAG:  cpu time    3.0105: real time    3.0134
WARNING in EDDRMM: call to ZHEGV failed, returncode =   6  3      3
  RMM-DIIS:  cpu time   10.9698: real time   10.9698
    ORTHCH:  cpu time    0.5523: real time    0.5523
 BZINTS: Fermi energy:    0.859008;  400.000000 electrons
         Band energy:-0.143260E+04;  BLOECHL correction:   -0.032970
       DOS:  cpu time    0.0297: real time    0.0297
    --------------------------------------------
      LOOP:  cpu time   14.5622: real time   14.5624

 eigenvalue-minimisations  : 12686
 total energy-change (2. order) :-0.1458195E-04  (-0.1414114E-04)
 number of electron     400.0000069 magnetization 
 augmentation part      400.0000069 magnetization 

 Free energy of the ion-electron system (eV)
  ---------------------------------------------------
  alpha Z        PSCENC =      1024.85740717
  Ewald energy   TEWEN  =     97231.11515553
  -Hartree energ DENC   =   -132265.26056386
  -exchange      EXHF   =         0.00000000
  -V(xc)+E(xc)   XCENC  =       578.31743544
  PAW double counting   =     36478.93425459   -35731.89821431
  entropy T*S    EENTRO =         0.00000000
  eigenvalues    EBANDS =     -1432.59991581
  atomic energy  EATOM  =     33993.04351118
  Solvation  Ediel_sol  =         0.00000000
  ---------------------------------------------------
  free energy    TOTEN  =      -123.49093009 eV

  energy without entropy =     -123.49093009  energy(sigma->0) =     -123.49093009


--------------------------------------------------------------------------------------------------------




--------------------------------------- Iteration      1(  12)  ---------------------------------------


    EDDIAG:  cpu time    3.0190: real time    3.0193
  RMM-DIIS:  cpu time    9.9312: real time    9.9312
    ORTHCH:  cpu time    0.5532: real time    0.5532
 BZINTS: Fermi energy:    0.859008;  400.000000 electrons
         Band energy:-0.143260E+04;  BLOECHL correction:   -0.032970
       DOS:  cpu time    0.0303: real time    0.0303
    --------------------------------------------
      LOOP:  cpu time   13.5337: real time   13.5340

 eigenvalue-minimisations  : 11190
 total energy-change (2. order) :-0.6963586E-05  (-0.6774473E-05)
 number of electron     400.0000069 magnetization 
 augmentation part      400.0000069 magnetization 

 Free energy of the ion-electron system (eV)
  ---------------------------------------------------
  alpha Z        PSCENC =      1024.85740717
  Ewald energy   TEWEN  =     97231.11515553
  -Hartree energ DENC   =   -132265.26056386
  -exchange      EXHF   =         0.00000000
  -V(xc)+E(xc)   XCENC  =       578.31743544
  PAW double counting   =     36478.93425459   -35731.89821431
  entropy T*S    EENTRO =         0.00000000
  eigenvalues    EBANDS =     -1432.59992278
  atomic energy  EATOM  =     33993.04351118
  Solvation  Ediel_sol  =         0.00000000
  ---------------------------------------------------
  free energy    TOTEN  =      -123.49093705 eV

  energy without entropy =     -123.49093705  energy(sigma->0) =     -123.49093705


--------------------------------------------------------------------------------------------------------




 average (electrostatic) potential at core
  the test charge radii are     1.2098  1.0703  0.5201
  (the norm of the test charge is              1.0000)
       1 -72.1748       2 -72.1633       3 -72.1633       4 -72.1601       5 -72.1507
       6 -72.1598       7 -72.1610       8 -72.1608       9 -72.1598      10 -72.5208
      11 -72.4683      12 -72.5206      13 -72.4665      14 -72.4662      15 -72.4909
      16 -72.5243      17 -72.4860      18 -72.4861      19 -72.4624      20 -72.7740
      21 -72.7738      22 -72.4520      23 -72.7764      24 -72.4518      25 -72.4581
      26 -72.4581      27 -72.4380      28 -72.1828      29 -72.3204      30 -72.3204
      31 -72.3279      32 -72.3277      33 -72.3298      34 -72.3296      35 -72.1720
      36 -88.7864      37 -37.5838      38 -37.5838
 
 
 
 E-fermi :   0.8590     XC(G=0):  -6.1790     alpha+bet : -5.8352

 Fermi energy:         0.8590082724

 k-point     1 :       0.0000    0.0000    0.0000
  band No.  band energies     occupation 
      1     -54.8848      2.00000
      2     -31.0014      2.00000
      3     -30.9142      2.00000
      4     -30.8560      2.00000
      5      -7.9687      2.00000
      6      -7.1602      2.00000
      7      -6.6581      2.00000
      8      -5.8530      2.00000
      9      -5.8278      2.00000
     10      -5.8264      2.00000
     11      -5.8068      2.00000
     12      -5.7698      2.00000
     13      -5.7519      2.00000
     14      -5.7516      2.00000
     15      -5.7314      2.00000
     16      -5.3405      2.00000
     17      -5.3395      2.00000
     18      -5.3333      2.00000
     19      -5.2734      2.00000
     20      -5.2728      2.00000
     21      -5.2541      2.00000
     22      -4.9659      2.00000
     23      -4.9645      2.00000
     24      -4.9560      2.00000
     25      -4.9338      2.00000
     26      -4.9130      2.00000
     27      -4.9125      2.00000
     28      -4.7740      2.00000
     29      -4.7718      2.00000
     30      -4.7652      2.00000
     31      -4.7652      2.00000
     32      -4.7634      2.00000
     33      -4.7193      2.00000
     34      -4.6277      2.00000
     35      -4.6168      2.00000
     36      -4.6160      2.00000
     37      -4.5905      2.00000
     38      -4.5892      2.00000
     39      -4.5854      2.00000
     40      -4.5840      2.00000
     41      -4.5494      2.00000
     42      -4.5479      2.00000
     43      -4.5474      2.00000
     44      -4.5458      2.00000
     45      -4.5267      2.00000
     46      -4.0929      2.00000
     47      -4.0917      2.00000
     48      -4.0741      2.00000
     49      -4.0740      2.00000
     50      -4.0677      2.00000
     51      -4.0361      2.00000
     52      -4.0296      2.00000
     53      -4.0291      2.00000
     54      -3.9972      2.00000
     55      -3.9969      2.00000
     56      -3.9142      2.00000
     57      -3.9123      2.00000
     58      -3.8651      2.00000
     59      -3.8164      2.00000
     60      -3.5877      2.00000
     61      -3.5498      2.00000
     62      -3.5496      2.00000
     63      -3.5251      2.00000
     64      -3.5237      2.00000
     65      -3.5208      2.00000
     66      -3.5107      2.00000
     67      -3.4397      2.00000
     68      -3.4397      2.00000
     69      -3.3838      2.00000
     70      -3.3835      2.00000
     71      -3.3678      2.00000
     72      -3.3394      2.00000
     73      -3.3392      2.00000
     74      -3.3113      2.00000
     75      -3.3108      2.00000
     76      -3.3098      2.00000
     77      -3.2595      2.00000
     78      -3.2536      2.00000
     79      -3.2535      2.00000
     80      -3.2384      2.00000
     81      -3.2383      2.00000
     82      -3.2341      2.00000
     83      -3.2274      2.00000
     84      -3.2268      2.00000
     85      -3.1824      2.00000
     86      -3.1784      2.00000
     87      -3.1551      2.00000
     88      -3.1412      2.00000
     89      -3.1400      2.00000
     90      -3.1211      2.00000
     91      -3.0770      2.00000
     92      -3.0766      2.00000
     93      -3.0638      2.00000
     94      -3.0608      2.00000
     95      -3.0419      2.00000
     96      -3.0128      2.00000
     97      -2.9881      2.00000
     98      -2.9868      2.00000
     99      -2.9855      2.00000
    100      -2.8056      2.00000
    101      -2.8052      2.00000
    102      -2.8011      2.00000
    103      -2.8009      2.00000
    104      -2.6753      2.00000
    105      -2.6681      2.00000
    106      -2.6643      2.00000
    107      -2.6414      2.00000
    108      -2.6374      2.00000
    109      -2.6296      2.00000
    110      -2.5480      2.00000
    111      -2.5456      2.00000
    112      -2.4718      2.00000
    113      -2.4295      2.00000
    114      -2.4254      2.00000
    115      -2.4253      2.00000
    116      -2.4010      2.00000
    117      -2.3991      2.00000
    118      -2.3485      2.00000
    119      -2.3344      2.00000
    120      -2.3067      2.00000
    121      -2.2249      2.00000
    122      -2.2146      2.00000
    123      -2.1848      2.00000
    124      -2.1454      2.00000
    125      -2.1451      2.00000
    126      -2.1243      2.00000
    127      -2.1193      2.00000
    128      -2.1104      2.00000
    129      -2.0759      2.00000
    130      -2.0755      2.00000
    131      -2.0373      2.00000
    132      -2.0368      2.00000
    133      -1.9476      2.00000
    134      -1.9423      2.00000
    135      -1.9197      2.00000
    136      -1.8951      2.00000
    137      -1.8923      2.00000
    138      -1.8914      2.00000
    139      -1.8736      2.00000
    140      -1.8722      2.00000
    141      -1.8708      2.00000
    142      -1.8642      2.00000
    143      -1.8632      2.00000
    144      -1.7547      2.00000
    145      -1.7541      2.00000
    146      -1.7012      2.00000
    147      -1.6874      2.00000
    148      -1.6836      2.00000
    149      -1.6616      2.00000
    150      -1.6598      2.00000
    151      -1.6461      2.00000
    152      -1.6455      2.00000
    153      -1.6124      2.00000
    154      -1.6122      2.00000
    155      -1.5952      2.00000
    156      -1.5818      2.00000
    157      -1.5379      2.00000
    158      -1.5370      2.00000
    159      -1.5288      2.00000
    160      -1.5013      2.00000
    161      -1.5006      2.00000
    162      -1.4847      2.00000
    163      -1.4728      2.00000
    164      -1.4522      2.00000
    165      -1.4457      2.00000
    166      -1.4112      2.00000
    167      -1.4109      2.00000
    168      -1.4094      2.00000
    169      -1.3917      2.00000
    170      -1.3863      2.00000
    171      -1.3846      2.00000
    172      -1.3773      2.00000
    173      -1.3722      2.00000
    174      -1.3721      2.00000
    175      -1.3089      2.00000
    176      -1.3086      2.00000
    177      -1.2877      2.00000
    178      -1.2823      2.00000
    179      -1.2778      2.00000
    180      -1.2777      2.00000
    181      -1.2774      2.00000
    182      -1.2542      2.00000
    183      -1.2534      2.00000
    184      -1.2228      2.00000
    185      -1.1954      2.00000
    186      -1.1944      2.00000
    187      -1.1768      2.00000
    188      -1.1423      2.00000
    189      -1.1408      2.00000
    190      -1.0391      2.00000
    191      -1.0385      2.00000
    192      -1.0370      2.00000
    193      -1.0018      2.00000
    194      -1.0010      2.00000
    195      -0.9957      2.00000
    196      -0.1866      2.00000
    197      -0.0598      2.00000
    198       0.0292      2.00000
    199       0.1092      2.00000
    200       0.2122      2.00000
    201       0.2133      2.00000
    202       0.2801      2.00000
    203       0.9478      0.00000
    204       1.0413      0.00000
    205       1.2237      0.00000
    206       1.3988      0.00000
    207       1.4112      0.00000
    208       1.8928      0.00000
    209       2.3537      0.00000
    210       2.3909      0.00000
    211       2.3912      0.00000
    212       2.8661      0.00000
[...]
  0.000   0.000   0.000   0.000   0.000   0.000   0.000   0.000   0.000   0.000   0.000   0.000   0.000   0.000   0.000   0.000
  0.000   0.000   0.000   0.000   0.000   0.000   0.000   0.000   0.000   0.000   0.000   0.000   0.000   0.000   0.000   0.000
  0.000   0.000   0.000   0.000   0.000   0.000   0.000   0.000   0.000   0.000   1.000   0.000   0.000   0.000   0.000   0.000
  0.000   0.000   0.000   0.000   0.000   0.000   0.000   0.000   0.000   0.000   0.000   0.000   0.000   0.000   0.000   0.000
  0.000   0.000   0.000   0.000   0.000   0.000   0.000   0.000   0.000   0.000   0.000   0.000   0.000   0.000   0.000   0.000
  0.000   0.000   0.000   0.000   0.000   0.000   0.000   0.000   0.000   0.000   0.000   0.000   0.000   0.000   0.000   0.000
  0.000   0.000   0.000   0.000   0.000   0.000   0.000   0.000   0.000   0.000   0.000   0.000   0.000   0.000   0.000   0.000
  0.000   0.000   0.000   0.000   0.000   0.000   0.000   0.000   0.000   0.000   0.000   0.000   0.000   0.000   0.000   0.000
  0.000   0.000   0.000   0.000   0.000   0.000   0.000   0.000   0.000   0.000   0.000   0.000   0.000   0.000   0.000   0.000
  0.000   0.000   0.000   0.000   0.000   0.000   0.000   0.000   0.000   0.000   0.000   0.000   0.000   0.000   0.000   0.000


------------------------ aborting loop because EDIFF is reached ----------------------------------------





 total charge

# of ion       s       p       d       tot
------------------------------------------
    1        0.548   0.236   8.769   9.552
    2        0.542   0.241   8.765   9.548
    3        0.542   0.241   8.765   9.548
    4        0.541   0.241   8.767   9.548
    5        0.548   0.240   8.760   9.549
    6        0.541   0.241   8.767   9.548
    7        0.541   0.241   8.766   9.548
    8        0.541   0.241   8.766   9.548
    9        0.542   0.239   8.769   9.550
   10        0.528   0.307   8.767   9.601
   11        0.523   0.306   8.780   9.609
   12        0.528   0.307   8.767   9.601
   13        0.523   0.306   8.780   9.609
   14        0.523   0.306   8.780   9.609
   15        0.515   0.308   8.775   9.598
   16        0.528   0.307   8.766   9.601
   17        0.516   0.307   8.775   9.598
   18        0.516   0.307   8.775   9.598
   19        0.519   0.297   8.769   9.584
   20        0.576   0.338   8.727   9.640
   21        0.576   0.338   8.727   9.640
   22        0.506   0.306   8.778   9.589
   23        0.578   0.337   8.727   9.641
   24        0.506   0.306   8.778   9.589
   25        0.519   0.296   8.770   9.585
   26        0.519   0.296   8.770   9.585
   27        0.508   0.305   8.779   9.592
   28        0.539   0.229   8.755   9.523
   29        0.590   0.248   8.730   9.568
   30        0.590   0.248   8.730   9.568
   31        0.585   0.251   8.731   9.567
   32        0.585   0.251   8.731   9.567
   33        0.589   0.248   8.731   9.568
   34        0.589   0.248   8.731   9.568
   35        0.540   0.229   8.758   9.526
   36        2.166   5.999   2.293  10.458
   37        0.563   0.030   0.000   0.592
   38        0.563   0.030   0.000   0.592
--------------------------------------------------
tot         22.290  15.747 308.871 346.909
 
    CHARGE:  cpu time    0.6685: real time    0.6687
    FORLOC:  cpu time    0.0102: real time    0.0102
    FORNL :  cpu time    3.0012: real time    3.0015
    STRESS:  cpu time    9.0067: real time    9.0069
    FORCOR:  cpu time    0.0542: real time    0.0543
    FORHAR:  cpu time    0.0167: real time    0.0167
    OFIELD:  cpu time    0.0002: real time    0.0002

  FORCE on cell =-STRESS in cart. coord.  units (eV):
  Direction    XX          YY          ZZ          XY          YZ          ZX
  --------------------------------------------------------------------------------------
  Alpha Z  1024.85741  1024.85741  1024.85741
  Ewald  120346.04904120323.73058************    -0.00032     0.01015    -0.00014
  Hartree129194.49789129187.98504************     0.00001    -0.05506    -0.00004
  E(xc)   -1792.17123 -1792.44770 -1799.77809     0.00000     0.00151    -0.00000
  Local  ************************262276.29762     0.00177     0.34334     0.00010
  n-local   -56.40337   -55.77249   -22.12872     4.44339    -0.18397     0.09770
  augment  2382.07524  2381.70049  2403.35186    -0.00133    -0.00120     0.00003
  Kinetic  5599.38826  5602.33086  5666.36682     1.45482    -0.20740     0.05707
  Fock        0.00000     0.00000     0.00000     0.00000     0.00000     0.00000
  -------------------------------------------------------------------------------------
  Total     -22.01671   -21.93235     3.57295    -0.00000    -0.09263    -0.00000
  in kB     -23.62412   -23.53360     3.83381    -0.00000    -0.09939    -0.00000
  external pressure =      -14.44 kB  Pullay stress =        0.00 kB


 VOLUME and BASIS-vectors are now :
 -----------------------------------------------------------------------------
  energy-cutoff  :      500.00
  volume of cell :     1493.16
      direct lattice vectors                 reciprocal lattice vectors
     8.813512802  0.000000000  0.000000000     0.113462137 -0.065507406  0.000000000
     4.406756909  7.632725690  0.000000000     0.000000000  0.131014796  0.000000000
     0.000000000  0.000000000 22.196203232     0.000000000  0.000000000  0.045052750

  length of vectors
     8.813512802  8.813512802 22.196203232     0.131014796  0.131014796  0.045052750


 FORCES acting on ions
    electron-ion (+dipol)            ewald-force                    non-local-force                 convergence-correction
 -----------------------------------------------------------------------------------------------
   -.200E-04 -.962E-02 0.250E+04   0.520E-04 -.142E-02 -.250E+04   -.701E-09 -.105E-01 -.814E+00   -.240E-03 0.144E-01 -.237E+00
   0.796E+00 0.629E+00 0.250E+04   -.837E+00 -.845E+00 -.250E+04   0.725E-01 0.167E+00 -.280E+00   -.321E-01 0.357E-01 -.249E+00
   -.796E+00 0.629E+00 0.250E+04   0.837E+00 -.845E+00 -.250E+04   -.725E-01 0.167E+00 -.280E+00   0.324E-01 0.376E-01 -.249E+00
   0.969E+00 0.390E+00 0.250E+04   -.115E+01 -.303E+00 -.250E+04   0.171E+00 -.447E-01 -.319E+00   0.107E-02 -.373E-01 -.270E+00
   0.774E-05 -.164E-01 0.250E+04   0.951E-04 -.812E-05 -.250E+04   0.248E-09 0.372E-02 0.197E+00   0.428E-02 0.750E-02 -.232E+00
   -.969E+00 0.390E+00 0.250E+04   0.115E+01 -.303E+00 -.250E+04   -.171E+00 -.447E-01 -.319E+00   -.261E-02 -.364E-01 -.269E+00
   0.140E+00 -.100E+01 0.250E+04   -.312E+00 0.115E+01 -.250E+04   0.127E+00 -.134E+00 -.289E+00   0.316E-01 -.895E-03 -.258E+00
   -.140E+00 -.100E+01 0.250E+04   0.312E+00 0.115E+01 -.250E+04   -.127E+00 -.134E+00 -.289E+00   -.297E-01 -.200E-02 -.258E+00
   0.197E-04 0.106E-01 0.250E+04   0.166E-03 0.145E-02 -.250E+04   0.783E-09 0.118E-01 -.479E+00   -.459E-02 -.220E-01 -.208E+00
   0.865E+01 0.500E+01 0.854E+03   -.824E+01 -.477E+01 -.853E+03   -.397E+00 -.237E+00 -.684E+00   -.367E-01 -.660E-02 0.175E-02
   0.161E-04 0.942E+01 0.866E+03   0.147E-03 -.938E+01 -.866E+03   -.885E-09 -.133E-01 -.450E-01   0.402E-02 -.703E-01 0.342E-01
   -.865E+01 0.500E+01 0.854E+03   0.824E+01 -.477E+01 -.853E+03   0.397E+00 -.237E+00 -.684E+00   0.352E-01 -.543E-02 0.162E-02
   0.814E+01 -.470E+01 0.866E+03   -.811E+01 0.469E+01 -.866E+03   0.236E-01 0.681E-02 -.560E-01   -.804E-01 0.288E-01 0.357E-01
   -.814E+01 -.470E+01 0.866E+03   0.811E+01 0.469E+01 -.866E+03   -.236E-01 0.681E-02 -.560E-01   0.880E-01 0.279E-01 0.349E-01
   0.304E-04 0.259E+01 0.855E+03   0.236E-03 -.263E+01 -.854E+03   -.509E-09 -.765E-02 -.557E+00   -.230E-02 -.253E-01 -.808E-02
   -.218E-04 -.100E+02 0.854E+03   0.163E-03 0.952E+01 -.853E+03   0.326E-07 0.490E+00 -.629E+00   -.673E-04 0.611E-01 0.118E-01
   0.222E+01 -.129E+01 0.855E+03   -.228E+01 0.132E+01 -.854E+03   0.198E-01 -.214E-02 -.529E+00   -.124E-01 -.272E-02 -.177E-02
   -.222E+01 -.129E+01 0.855E+03   0.228E+01 0.132E+01 -.854E+03   -.198E-01 -.214E-02 -.529E+00   0.127E-01 -.712E-03 -.116E-02
   -.425E-04 0.264E+01 -.835E+03   0.518E-04 -.253E+01 0.834E+03   -.106E-08 -.159E-01 0.586E+00   -.651E-03 -.835E-01 0.378E+00
   0.551E+02 0.318E+02 -.743E+03   -.539E+02 -.312E+02 0.744E+03   -.124E+01 -.659E+00 -.154E+01   0.291E-01 0.108E-01 0.504E+00
   -.551E+02 0.318E+02 -.743E+03   0.539E+02 -.312E+02 0.744E+03   0.124E+01 -.659E+00 -.154E+01   -.283E-01 0.113E-01 0.504E+00
   0.125E+02 -.732E+01 -.814E+03   -.130E+02 0.758E+01 0.813E+03   0.419E+00 -.251E+00 0.585E+00   0.479E-01 -.215E-01 0.330E+00
   -.943E-05 -.637E+02 -.744E+03   0.144E-03 0.624E+02 0.744E+03   0.977E-07 0.147E+01 -.152E+01   0.452E-03 -.409E-01 0.509E+00
   -.125E+02 -.732E+01 -.814E+03   0.130E+02 0.758E+01 0.813E+03   -.419E+00 -.251E+00 0.585E+00   -.482E-01 -.219E-01 0.330E+00
   -.223E+01 -.127E+01 -.835E+03   0.215E+01 0.121E+01 0.834E+03   0.763E-02 0.168E-01 0.569E+00   0.608E-01 0.432E-01 0.390E+00
   0.223E+01 -.127E+01 -.835E+03   -.215E+01 0.121E+01 0.834E+03   -.763E-02 0.168E-01 0.569E+00   -.604E-01 0.425E-01 0.390E+00
   0.156E-04 0.145E+02 -.815E+03   0.194E-03 -.150E+02 0.814E+03   0.328E-07 0.492E+00 0.591E+00   -.330E-03 0.531E-01 0.342E+00
   -.156E-04 0.290E+00 -.245E+04   0.303E-04 -.294E+00 0.245E+04   -.505E-09 -.758E-02 0.554E+00   -.777E-04 -.394E-02 0.208E+00
   0.529E+02 0.872E+02 -.248E+04   -.516E+02 -.855E+02 0.248E+04   -.131E+01 -.196E+01 -.457E+00   0.154E-01 0.135E+00 0.185E+00
   -.529E+02 0.872E+02 -.248E+04   0.516E+02 -.855E+02 0.248E+04   0.131E+01 -.196E+01 -.457E+00   -.151E-01 0.136E+00 0.185E+00
   0.103E+03 0.260E+01 -.247E+04   -.101E+03 -.247E+01 0.247E+04   -.227E+01 -.722E-01 -.364E+00   0.135E+00 -.497E-01 0.186E+00
   -.103E+03 0.260E+01 -.247E+04   0.101E+03 -.247E+01 0.247E+04   0.227E+01 -.722E-01 -.364E+00   -.137E+00 -.489E-01 0.185E+00
   0.483E+02 -.898E+02 -.248E+04   -.474E+02 0.879E+02 0.248E+04   -.113E+01 0.203E+01 -.431E+00   0.107E+00 -.811E-01 0.189E+00
   -.483E+02 -.898E+02 -.248E+04   0.474E+02 0.879E+02 0.248E+04   0.113E+01 0.203E+01 -.431E+00   -.105E+00 -.820E-01 0.189E+00
   0.329E-04 -.316E+00 -.245E+04   0.141E-03 0.297E+00 0.245E+04   0.262E-08 0.394E-01 0.646E+00   -.445E-02 -.186E-02 0.238E+00
   0.230E-03 -.479E-01 -.270E+04   0.135E-03 -.906E-02 0.270E+04   0.369E-09 0.554E-02 0.142E+01   0.695E-02 0.239E-02 0.293E+00
   0.202E+02 0.273E-02 -.284E+03   -.242E+02 -.205E-02 0.285E+03   0.397E+01 0.165E-02 -.980E+00   0.387E-02 0.528E-03 -.251E-01
   -.202E+02 0.274E-02 -.284E+03   0.242E+02 -.205E-02 0.285E+03   -.397E+01 0.165E-02 -.980E+00   -.371E-02 0.535E-03 -.251E-01
 -----------------------------------------------------------------------------------------------
   -.511E-03 -.192E+00 0.649E+01   0.568E-13 0.630E-13 0.409E-11   0.125E-07 0.188E+00 -.960E+01   0.116E-01 0.355E-02 0.336E+01
 
 
 POSITION                                       TOTAL-FORCE (eV/Angst)
 -----------------------------------------------------------------------------------
      0.00000      0.00000      5.28038        -0.000000     -0.007185     -0.170514
      2.93784      0.00000      5.28038        -0.000382     -0.012757     -0.058664
      5.87568      0.00000      5.28038         0.000382     -0.012757     -0.058664
      1.46892      2.54424      5.28038        -0.006732      0.005661     -0.062164
      4.40676      2.54424      5.28038        -0.000000     -0.005220     -0.085957
      7.34459      2.54424      5.28038         0.006732      0.005661     -0.062164
      2.93784      5.08848      5.28038        -0.015051      0.009611     -0.055735
      5.87568      5.08848      5.28038         0.015051      0.009611     -0.055735
      8.81351      5.08848      5.28038         0.000000      0.001834     -0.080493
      1.46892      0.84808      7.67911        -0.026972     -0.011090      0.097124
      4.40676      0.84808      7.67911        -0.000000     -0.041517      0.002957
      7.34459      0.84808      7.67911         0.026972     -0.011090      0.097124
      2.93784      3.39232      7.67911        -0.036122      0.029759     -0.005014
      5.87568      3.39232      7.67911         0.036122      0.029759     -0.005014
      8.81351      3.39232      7.67911        -0.000000     -0.070860      0.102127
      4.40676      5.93656      7.67911         0.000000      0.033714      0.094333
      7.34459      5.93656      7.67911        -0.058643      0.028049      0.108499
     10.28243      5.93656      7.67911         0.058643      0.028049      0.108499
      8.81351      1.70030     10.08698         0.000000      0.013738      0.047575
      2.93503      1.69454     10.04736        -0.040632     -0.026641     -0.129069
      5.87848      1.69454     10.04736         0.040632     -0.026641     -0.129069
     10.26776      4.24887     10.06889         0.015601     -0.014394      0.028487
      4.40676      4.24365     10.04736         0.000000      0.066183     -0.100546
      7.35926      4.24887     10.06889        -0.015601     -0.014394      0.028487
     11.74777      6.78258     10.08698        -0.006642     -0.000302      0.010032
      5.87926      6.78258     10.08698         0.006642     -0.000302      0.010032
      8.81351      6.76771     10.06889         0.000000      0.036801      0.025294
      0.00000      0.00000     12.49943        -0.000000     -0.015732     -0.020013
      2.98194      0.07009     12.55649        -0.031829     -0.077144     -0.021234
      5.83157      0.07009     12.55649         0.031829     -0.077144     -0.021234
      1.55167      2.54739     12.55649        -0.041435      0.009027      0.017405
      7.26184      2.54739     12.55649         0.041435      0.009027      0.017405
      2.97649      5.01524     12.55649        -0.049895      0.067018     -0.041930
      5.83702      5.01524     12.55649         0.049895      0.067018     -0.041930
      8.81351      5.08848     12.50498         0.000000      0.017935      0.001295
      4.40676      2.54424     12.24418        -0.000000     -0.049025      0.397091
      3.99443      2.54444     14.19069         0.007068      0.002870      0.005688
      4.81909      2.54444     14.19069        -0.007068      0.002870      0.005688
 -----------------------------------------------------------------------------------
    total drift:                                0.011049     -0.000266      0.261091


--------------------------------------------------------------------------------------------------------



  FREE ENERGIE OF THE ION-ELECTRON SYSTEM (eV)
  ---------------------------------------------------
  free  energy   TOTEN  =      -123.49093705 eV

  energy  without entropy=     -123.49093705  energy(sigma->0) =     -123.49093705
 


--------------------------------------------------------------------------------------------------------


    POTLOK:  cpu time    0.0435: real time    0.0435


--------------------------------------------------------------------------------------------------------


 stress matrix after NEB project (eV)
    -22.01671     -0.00000     -0.00000
     -0.00000    -21.93235     -0.09263
     -0.00000     -0.09263      3.57295
  FORCES: max atom, RMS     0.009516    0.002183
  FORCE total and by dimension    0.013458    0.007068
  Stress total and by dimension   31.281735   22.016712
     LOOP+:  cpu time  215.8981: real time  215.9089
 -----------------------------------------------------------------------------
|                                                                             |
|           W    W    AA    RRRRR   N    N  II  N    N   GGGG   !!!           |
|           W    W   A  A   R    R  NN   N  II  NN   N  G    G  !!!           |
|           W    W  A    A  R    R  N N  N  II  N N  N  G       !!!           |
|           W WW W  AAAAAA  RRRRR   N  N N  II  N  N N  G  GGG   !            |
|           WW  WW  A    A  R   R   N   NN  II  N   NN  G    G                |
|           W    W  A    A  R    R  N    N  II  N    N   GGGG   !!!           |
|                                                                             |
|     Tetrahedron method does not include variations of the Fermi             |
|     occupations, so forces and stress will be inaccurate. We suggest        |
|     using a different smearing scheme ISMEAR = 1 or 2 for metals in         |
|     relaxations.                                                            |
|                                                                             |
 -----------------------------------------------------------------------------

    4ORBIT:  cpu time    0.0000: real time    0.0000



 total charge

# of ion       s       p       d       tot
------------------------------------------
    1        0.548   0.236   8.769   9.552
    2        0.542   0.241   8.765   9.548
    3        0.542   0.241   8.765   9.548
    4        0.541   0.241   8.767   9.548
    5        0.548   0.240   8.760   9.549
    6        0.541   0.241   8.767   9.548
    7        0.541   0.241   8.766   9.548
    8        0.541   0.241   8.766   9.548
    9        0.542   0.239   8.769   9.550
   10        0.528   0.307   8.767   9.601
   11        0.523   0.306   8.780   9.609
   12        0.528   0.307   8.767   9.601
   13        0.523   0.306   8.780   9.609
   14        0.523   0.306   8.780   9.609
   15        0.515   0.308   8.775   9.598
   16        0.528   0.307   8.766   9.601
   17        0.516   0.307   8.775   9.598
   18        0.516   0.307   8.775   9.598
   19        0.519   0.297   8.769   9.584
   20        0.576   0.338   8.727   9.640
   21        0.576   0.338   8.727   9.640
   22        0.506   0.306   8.778   9.589
   23        0.578   0.337   8.727   9.641
   24        0.506   0.306   8.778   9.589
   25        0.519   0.296   8.770   9.585
   26        0.519   0.296   8.770   9.585
   27        0.508   0.305   8.779   9.592
   28        0.539   0.229   8.755   9.523
   29        0.590   0.248   8.730   9.568
   30        0.590   0.248   8.730   9.568
   31        0.585   0.251   8.731   9.567
   32        0.585   0.251   8.731   9.567
   33        0.589   0.248   8.731   9.568
   34        0.589   0.248   8.731   9.568
   35        0.540   0.229   8.758   9.526
   36        2.166   5.999   2.293  10.458
   37        0.563   0.030   0.000   0.592
   38        0.563   0.030   0.000   0.592
--------------------------------------------------
tot         22.290  15.747 308.871 346.909
 
 BZINTS: Fermi energy:    0.859008;  400.000000 electrons
         Band energy:-0.143260E+04;  BLOECHL correction:   -0.032970

 total amount of memory used by VASP MPI-rank0   183916. kBytes
=======================================================================

   base      :      30000. kBytes
   nonlr-proj:      14355. kBytes
   fftplans  :       4330. kBytes
   grid      :      17879. kBytes
   one-center:        590. kBytes
   wavefun   :     116762. kBytes
 
  
  
 General timing and accounting informations for this job:
 ========================================================
  
                  Total CPU time used (sec):      229.622
                            User time (sec):      222.623
                          System time (sec):        6.999
                         Elapsed time (sec):      230.275
  
                   Maximum memory used (kb):      459440.
                   Average memory used (kb):          N/A
  
                          Minor page faults:       108742
                          Major page faults:            0
                 Voluntary context switches:         6266
