PROCAR new format
# of k-points:   10         # of bands:  252         # of ions:   36

 k-point     1 :    0.00000000 0.00000000 0.00000000     weight = 0.01562500

band     1 # energy   -8.06081872 # occ.  2.00000000
 
ion      s      p      d    tot
    1  0.006  0.001  0.000  0.007
    2  0.006  0.000  0.000  0.006
    3  0.006  0.000  0.000  0.006
    4  0.006  0.000  0.000  0.006
    5  0.006  0.000  0.000  0.006
    6  0.006  0.000  0.000  0.006
    7  0.006  0.000  0.000  0.006
    8  0.006  0.000  0.000  0.006
    9  0.006  0.000  0.000  0.006
   10  0.025  0.000  0.000  0.025
   11  0.026  0.000  0.000  0.026
   12  0.025  0.000  0.000  0.025
   13  0.026  0.000  0.000  0.026
   14  0.026  0.000  0.000  0.026
   15  0.024  0.000  0.000  0.024
   16  0.025  0.000  0.000  0.025
   17  0.024  0.000  0.000  0.024
   18  0.024  0.000  0.000  0.024
   19  0.023  0.000  0.000  0.024
   20  0.030  0.000  0.000  0.030
   21  0.030  0.000  0.000  0.030
   22  0.024  0.000  0.000  0.024
   23  0.030  0.000  0.000  0.030
   24  0.024  0.000  0.000  0.024
   25  0.023  0.000  0.000  0.024
   26  0.023  0.000  0.000  0.024
   27  0.024  0.000  0.000  0.024
   28  0.005  0.000  0.000  0.006
   29  0.006  0.000  0.000  0.006
   30  0.006  0.000  0.000  0.006
   31  0.006  0.000  0.000  0.006
   32  0.006  0.000  0.000  0.006
   33  0.006  0.000  0.000  0.006
   34  0.006  0.000  0.000  0.006
   35  0.005  0.000  0.000  0.006
   36  0.012  0.002  0.000  0.013
tot    0.567  0.012  0.004  0.583
 
band     2 # energy   -6.92960425 # occ.  2.00000000
 
ion      s      p      d    tot
    1  0.016  0.000  0.001  0.017
    2  0.016  0.000  0.001  0.017
    3  0.016  0.000  0.001  0.017
    4  0.016  0.000  0.001  0.017
    5  0.016  0.000  0.001  0.017
    6  0.016  0.000  0.001  0.017
    7  0.016  0.000  0.001  0.017
    8  0.016  0.000  0.001  0.017
    9  0.016  0.001  0.001  0.017
   10  0.012  0.001  0.003  0.016
   11  0.011  0.001  0.003  0.015
   12  0.012  0.001  0.003  0.016
   13  0.011  0.001  0.003  0.015
   14  0.011  0.001  0.003  0.015
   15  0.013  0.001  0.002  0.016
   16  0.012  0.001  0.003  0.016
   17  0.013  0.001  0.002  0.016
   18  0.013  0.001  0.002  0.016
   19  0.009  0.001  0.003  0.013
   20  0.014  0.002  0.002  0.018
   21  0.014  0.002  0.002  0.018
   22  0.010  0.001  0.002  0.013
   23  0.014  0.002  0.002  0.018
   24  0.009  0.001  0.002  0.013
   25  0.009  0.001  0.003  0.013
   26  0.009  0.001  0.003  0.013
   27  0.010  0.001  0.002  0.013
   28  0.014  0.000  0.001  0.015
   29  0.017  0.000  0.002  0.019
   30  0.017  0.000  0.002  0.019
   31  0.017  0.000  0.002  0.019
   32  0.017  0.000  0.002  0.019
   33  0.017  0.000  0.002  0.019
   34  0.017  0.000  0.002  0.019
   35  0.014  0.000  0.001  0.016
   36  0.029  0.001  0.001  0.031
tot    0.508  0.032  0.064  0.604
 
band     3 # energy   -6.00143733 # occ.  2.00000000
 
ion      s      p      d    tot
    1  0.004  0.000  0.003  0.008
    2  0.006  0.000  0.003  0.009
    3  0.006  0.000  0.003  0.009
    4  0.006  0.000  0.003  0.009
    5  0.006  0.000  0.003  0.009
    6  0.006  0.000  0.003  0.009
    7  0.006  0.000  0.003  0.009
    8  0.006  0.000  0.003  0.009
    9  0.007  0.000  0.003  0.010
   10  0.001  0.001  0.000  0.002
   11  0.000  0.001  0.000  0.001
   12  0.001  0.001  0.000  0.002
   13  0.000  0.001  0.000  0.001
   14  0.000  0.001  0.000  0.001
   15  0.000  0.001  0.000  0.001
   16  0.001  0.001  0.000  0.002
   17  0.000  0.001  0.000  0.001
   18  0.000  0.001  0.000  0.001
   19  0.009  0.001  0.014  0.024
   20  0.010  0.001  0.027  0.038
   21  0.010  0.001  0.027  0.038
   22  0.004  0.001  0.014  0.019
   23  0.010  0.001  0.027  0.038
   24  0.004  0.001  0.014  0.019
   25  0.009  0.001  0.014  0.024
   26  0.009  0.001  0.014  0.024
   27  0.004  0.001  0.014  0.019
   28  0.016  0.000  0.015  0.031
   29  0.024  0.000  0.020  0.044
   30  0.024  0.000  0.020  0.044
   31  0.024  0.000  0.020  0.044
   32  0.024  0.000  0.020  0.044
   33  0.024  0.000  0.020  0.044
   34  0.024  0.000  0.020  0.044
   35  0.023  0.000  0.016  0.039
   36  0.025  0.001  0.018  0.044
tot    0.331  0.017  0.363  0.711
 
band     4 # energy   -5.93890557 # occ.  2.00000000
 
ion      s      p      d    tot
    1  0.008  0.001  0.001  0.010
    2  0.000  0.000  0.004  0.005
    3  0.000  0.000  0.004  0.005
    4  0.000  0.000  0.004  0.005
    5  0.002  0.000  0.000  0.003
    6  0.000  0.000  0.004  0.005
    7  0.000  0.000  0.004  0.005
    8  0.000  0.000  0.004  0.005
    9  0.007  0.001  0.002  0.011
   10  0.006  0.000  0.025  0.032
   11  0.005  0.002  0.011  0.018
   12  0.006  0.000  0.025  0.031
   13  0.005  0.002  0.011  0.018
   14  0.004  0.002  0.011  0.017
   15  0.026  0.002  0.005  0.034
   16  0.006  0.000  0.025  0.031
   17  0.026  0.002  0.005  0.034
   18  0.027  0.002  0.005  0.034
   19  0.001  0.001  0.024  0.027
   20  0.022  0.001  0.031  0.055
   21  0.022  0.001  0.031  0.054
   22  0.025  0.003  0.002  0.030
   23  0.022  0.001  0.031  0.054
   24  0.025  0.003  0.002  0.030
   25  0.001  0.001  0.024  0.026
   26  0.001  0.001  0.024  0.027
   27  0.025  0.003  0.002  0.030
   28  0.001  0.000  0.001  0.002
   29  0.000  0.001  0.006  0.007
   30  0.000  0.001  0.006  0.007
   31  0.000  0.001  0.006  0.007
   32  0.000  0.001  0.006  0.007
   33  0.000  0.001  0.006  0.007
   34  0.000  0.001  0.006  0.007
   35  0.007  0.001  0.001  0.009
   36  0.024  0.005  0.002  0.031
tot    0.309  0.043  0.362  0.714
 
band     5 # energy   -5.92847606 # occ.  2.00000000
 
ion      s      p      d    tot
    1  0.000  0.001  0.008  0.008
    2  0.003  0.001  0.002  0.006
    3  0.000  0.000  0.003  0.003
    4  0.003  0.001  0.002  0.006
    5  0.000  0.001  0.005  0.006
    6  0.006  0.001  0.003  0.010
    7  0.000  0.000  0.003  0.003
    8  0.006  0.001  0.003  0.010
    9  0.000  0.000  0.001  0.001
   10  0.039  0.002  0.005  0.046
   11  0.011  0.003  0.018  0.032
   12  0.010  0.001  0.026  0.037
   13  0.011  0.003  0.018  0.032
   14  0.044  0.001  0.012  0.056
   15  0.000  0.002  0.007  0.009
   16  0.010  0.001  0.026  0.037
   17  0.000  0.002  0.007  0.009
   18  0.000  0.000  0.010  0.011
   19  0.004  0.003  0.006  0.013
   20  0.067  0.001  0.011  0.079
   21  0.017  0.002  0.035  0.054
   22  0.003  0.001  0.019  0.023
   23  0.017  0.002  0.035  0.054
   24  0.012  0.002  0.006  0.019
   25  0.015  0.000  0.014  0.028
   26  0.004  0.003  0.006  0.013
   27  0.003  0.001  0.019  0.023
   28  0.000  0.000  0.001  0.002
   29  0.007  0.001  0.005  0.013
   30  0.002  0.001  0.003  0.006
   31  0.007  0.001  0.005  0.013
   32  0.001  0.000  0.003  0.005
   33  0.002  0.001  0.003  0.006
   34  0.001  0.000  0.003  0.004
   35  0.000  0.000  0.004  0.004
   36  0.000  0.004  0.009  0.013
tot    0.305  0.044  0.346  0.695
 
band     6 # energy   -5.92843129 # occ.  2.00000000
 
ion      s      p      d    tot
    1  0.000  0.001  0.008  0.008
    2  0.003  0.001  0.003  0.007
    3  0.006  0.001  0.003  0.009
    4  0.003  0.001  0.003  0.007
    5  0.000  0.001  0.005  0.006
    6  0.001  0.000  0.002  0.003
    7  0.006  0.001  0.003  0.009
    8  0.001  0.000  0.002  0.003
    9  0.000  0.000  0.001  0.001
   10  0.000  0.000  0.033  0.033
   11  0.033  0.001  0.014  0.048
   12  0.029  0.002  0.012  0.043
   13  0.033  0.001  0.014  0.048
   14  0.000  0.004  0.020  0.024
   15  0.000  0.001  0.009  0.010
   16  0.029  0.002  0.012  0.043
   17  0.000  0.001  0.009  0.010
   18  0.000  0.003  0.006  0.009
   19  0.011  0.001  0.011  0.023
   20  0.000  0.002  0.043  0.045
   21  0.051  0.001  0.019  0.071
   22  0.009  0.001  0.010  0.021
   23  0.051  0.001  0.019  0.071
   24  0.000  0.001  0.024  0.025
   25  0.000  0.004  0.004  0.008
   26  0.011  0.001  0.011  0.023
   27  0.009  0.001  0.010  0.021
   28  0.000  0.000  0.001  0.002
   29  0.000  0.000  0.003  0.003
   30  0.005  0.001  0.004  0.009
   31  0.000  0.000  0.003  0.003
   32  0.006  0.001  0.004  0.011
   33  0.005  0.001  0.004  0.009
   34  0.006  0.001  0.004  0.011
   35  0.000  0.000  0.004  0.004
   36  0.000  0.004  0.008  0.013
tot    0.305  0.044  0.346  0.695
 
band     7 # energy   -5.89042735 # occ.  2.00000000
 
ion      s      p      d    tot
    1  0.019  0.000  0.018  0.038
    2  0.017  0.000  0.018  0.035
    3  0.017  0.000  0.018  0.035
    4  0.017  0.000  0.018  0.035
    5  0.012  0.000  0.019  0.031
    6  0.017  0.000  0.018  0.035
    7  0.017  0.000  0.018  0.035
    8  0.017  0.000  0.018  0.035
    9  0.020  0.000  0.015  0.035
   10  0.005  0.000  0.029  0.034
   11  0.014  0.000  0.024  0.038
   12  0.005  0.000  0.029  0.034
   13  0.014  0.000  0.024  0.038
   14  0.014  0.000  0.024  0.038
   15  0.006  0.000  0.026  0.032
   16  0.005  0.000  0.029  0.034
   17  0.006  0.000  0.026  0.032
   18  0.006  0.000  0.026  0.032
   19  0.004  0.000  0.007  0.011
   20  0.000  0.000  0.016  0.016
   21  0.000  0.000  0.016  0.016
   22  0.001  0.000  0.008  0.009
   23  0.000  0.000  0.016  0.016
   24  0.001  0.000  0.008  0.009
   25  0.004  0.000  0.007  0.011
   26  0.004  0.000  0.007  0.011
   27  0.001  0.000  0.008  0.009
   28  0.000  0.000  0.001  0.001
   29  0.000  0.000  0.001  0.001
   30  0.000  0.000  0.001  0.001
   31  0.000  0.000  0.001  0.001
   32  0.000  0.000  0.001  0.001
   33  0.000  0.000  0.001  0.001
   34  0.000  0.000  0.001  0.001
   35  0.000  0.000  0.000  0.001
   36  0.001  0.000  0.001  0.002
tot    0.243  0.006  0.497  0.746
 
band     8 # energy   -5.87058746 # occ.  2.00000000
 
ion      s      p      d    tot
    1  0.006  0.001  0.001  0.008
    2  0.000  0.001  0.006  0.007
    3  0.000  0.001  0.006  0.007
    4  0.000  0.001  0.006  0.007
    5  0.017  0.002  0.000  0.019
    6  0.000  0.001  0.006  0.007
    7  0.000  0.001  0.006  0.007
    8  0.000  0.001  0.006  0.007
    9  0.000  0.000  0.002  0.002
   10  0.025  0.003  0.002  0.030
   11  0.019  0.001  0.022  0.042
   12  0.025  0.003  0.002  0.029
   13  0.019  0.001  0.022  0.042
   14  0.019  0.001  0.022  0.042
   15  0.000  0.001  0.022  0.024
   16  0.025  0.003  0.002  0.029
   17  0.000  0.001  0.022  0.024
   18  0.000  0.001  0.022  0.024
   19  0.023  0.002  0.007  0.032
   20  0.007  0.002  0.019  0.028
   21  0.007  0.002  0.019  0.028
   22  0.009  0.000  0.025  0.034
   23  0.007  0.002  0.019  0.028
   24  0.009  0.000  0.025  0.034
   25  0.023  0.002  0.007  0.032
   26  0.023  0.002  0.007  0.032
   27  0.009  0.000  0.025  0.034
   28  0.015  0.001  0.000  0.016
   29  0.000  0.000  0.005  0.006
   30  0.000  0.000  0.005  0.006
   31  0.000  0.000  0.005  0.006
   32  0.000  0.000  0.005  0.006
   33  0.000  0.000  0.005  0.006
   34  0.000  0.000  0.005  0.006
   35  0.003  0.001  0.003  0.006
   36  0.000  0.000  0.000  0.000
tot    0.295  0.039  0.361  0.696
 
band     9 # energy   -5.83786391 # occ.  2.00000000
 
ion      s      p      d    tot
    1  0.000  0.001  0.003  0.003
    2  0.005  0.001  0.003  0.009
    3  0.000  0.000  0.003  0.004
    4  0.005  0.001  0.003  0.009
    5  0.000  0.000  0.005  0.005
    6  0.007  0.001  0.004  0.013
    7  0.000  0.000  0.004  0.004
    8  0.007  0.001  0.004  0.012
    9  0.000  0.001  0.010  0.011
   10  0.000  0.005  0.003  0.007
   11  0.010  0.001  0.012  0.022
   12  0.015  0.001  0.013  0.029
   13  0.009  0.001  0.012  0.023
   14  0.000  0.001  0.028  0.029
   15  0.047  0.001  0.014  0.062
   16  0.015  0.001  0.013  0.030
   17  0.046  0.001  0.014  0.062
   18  0.000  0.001  0.039  0.040
   19  0.028  0.002  0.011  0.041
   20  0.000  0.003  0.009  0.012
   21  0.000  0.001  0.014  0.015
   22  0.030  0.001  0.012  0.043
   23  0.000  0.001  0.014  0.016
   24  0.000  0.003  0.018  0.021
   25  0.000  0.000  0.037  0.037
   26  0.028  0.002  0.012  0.041
   27  0.030  0.001  0.012  0.044
   28  0.000  0.000  0.007  0.007
   29  0.005  0.001  0.003  0.008
   30  0.003  0.001  0.003  0.006
   31  0.005  0.001  0.003  0.008
   32  0.000  0.000  0.002  0.002
   33  0.003  0.001  0.003  0.006
   34  0.000  0.000  0.002  0.002
   35  0.000  0.001  0.005  0.005
   36  0.000  0.000  0.001  0.001
tot    0.298  0.041  0.354  0.693
 
band    10 # energy   -5.83783671 # occ.  2.00000000
 
ion      s      p      d    tot
    1  0.000  0.001  0.003  0.003
    2  0.004  0.001  0.004  0.008
    3  0.008  0.001  0.004  0.013
    4  0.003  0.001  0.004  0.008
    5  0.000  0.000  0.005  0.005
    6  0.001  0.000  0.003  0.004
    7  0.008  0.001  0.004  0.013
    8  0.001  0.000  0.003  0.004
    9  0.000  0.001  0.010  0.011
   10  0.020  0.000  0.017  0.037
   11  0.003  0.001  0.023  0.027
   12  0.005  0.003  0.006  0.015
   13  0.003  0.001  0.023  0.027
   14  0.013  0.001  0.006  0.020
   15  0.015  0.001  0.031  0.047
   16  0.005  0.004  0.006  0.015
   17  0.016  0.001  0.030  0.048
   18  0.062  0.002  0.006  0.069
   19  0.009  0.001  0.029  0.038
   20  0.000  0.001  0.016  0.017
   21  0.000  0.002  0.011  0.013
   22  0.010  0.003  0.016  0.029
   23  0.000  0.002  0.011  0.013
   24  0.040  0.001  0.010  0.051
   25  0.038  0.002  0.003  0.043
   26  0.010  0.001  0.028  0.038
   27  0.010  0.003  0.016  0.029
   28  0.000  0.000  0.007  0.007
   29  0.000  0.000  0.002  0.003
   30  0.002  0.000  0.002  0.005
   31  0.000  0.000  0.002  0.003
   32  0.005  0.001  0.003  0.009
   33  0.003  0.001  0.002  0.005
   34  0.005  0.001  0.003  0.009
   35  0.000  0.001  0.005  0.005
   36  0.000  0.000  0.001  0.001
tot    0.298  0.041  0.354  0.693
 
band    11 # energy   -5.45020477 # occ.  2.00000000
 
ion      s      p      d    tot
    1  0.000  0.001  0.004  0.004
    2  0.001  0.001  0.004  0.006
    3  0.008  0.001  0.004  0.014
    4  0.001  0.001  0.004  0.006
    5  0.000  0.001  0.009  0.011
    6  0.004  0.001  0.003  0.008
    7  0.008  0.001  0.004  0.014
    8  0.004  0.001  0.003  0.008
    9  0.000  0.000  0.007  0.007
   10  0.000  0.001  0.050  0.051
   11  0.018  0.001  0.019  0.038
   12  0.008  0.001  0.018  0.027
   13  0.018  0.001  0.019  0.038
   14  0.000  0.000  0.045  0.045
   15  0.002  0.000  0.018  0.020
   16  0.008  0.001  0.018  0.027
   17  0.002  0.000  0.018  0.020
   18  0.000  0.001  0.010  0.012
   19  0.003  0.000  0.018  0.022
   20  0.000  0.000  0.092  0.092
   21  0.014  0.001  0.028  0.043
   22  0.003  0.001  0.019  0.023
   23  0.014  0.001  0.028  0.043
   24  0.000  0.001  0.029  0.029
   25  0.000  0.001  0.011  0.012
   26  0.003  0.000  0.018  0.022
   27  0.003  0.001  0.019  0.023
   28  0.000  0.000  0.009  0.010
   29  0.004  0.001  0.006  0.011
   30  0.009  0.001  0.006  0.016
   31  0.004  0.001  0.006  0.011
   32  0.001  0.000  0.004  0.006
   33  0.009  0.001  0.006  0.016
   34  0.001  0.000  0.004  0.006
   35  0.000  0.000  0.003  0.003
   36  0.000  0.004  0.007  0.012
tot    0.151  0.032  0.570  0.753
 
band    12 # energy   -5.45015388 # occ.  2.00000000
 
ion      s      p      d    tot
    1  0.000  0.001  0.004  0.004
    2  0.008  0.001  0.003  0.013
    3  0.000  0.000  0.004  0.005
    4  0.008  0.001  0.003  0.013
    5  0.000  0.001  0.009  0.011
    6  0.005  0.001  0.005  0.011
    7  0.000  0.000  0.004  0.005
    8  0.005  0.001  0.005  0.011
    9  0.000  0.000  0.007  0.007
   10  0.010  0.002  0.007  0.019
   11  0.006  0.000  0.036  0.043
   12  0.003  0.001  0.039  0.043
   13  0.006  0.000  0.036  0.043
   14  0.024  0.001  0.010  0.035
   15  0.001  0.001  0.013  0.014
   16  0.003  0.001  0.039  0.043
   17  0.001  0.001  0.013  0.014
   18  0.002  0.000  0.020  0.023
   19  0.001  0.001  0.014  0.015
   20  0.019  0.001  0.007  0.027
   21  0.005  0.000  0.070  0.075
   22  0.001  0.001  0.025  0.027
   23  0.005  0.000  0.070  0.075
   24  0.004  0.002  0.015  0.021
   25  0.005  0.000  0.021  0.025
   26  0.001  0.001  0.014  0.015
   27  0.001  0.001  0.025  0.027
   28  0.000  0.000  0.009  0.010
   29  0.005  0.001  0.005  0.011
   30  0.000  0.000  0.005  0.006
   31  0.005  0.001  0.005  0.011
   32  0.009  0.001  0.006  0.016
   33  0.000  0.000  0.005  0.006
   34  0.009  0.001  0.006  0.016
   35  0.000  0.000  0.003  0.003
   36  0.000  0.004  0.007  0.012
tot    0.151  0.032  0.570  0.753
 
band    13 # energy   -5.43249030 # occ.  2.00000000
 
ion      s      p      d    tot
    1  0.014  0.002  0.002  0.018
    2  0.000  0.001  0.006  0.007
    3  0.000  0.001  0.006  0.007
    4  0.000  0.001  0.006  0.007
    5  0.000  0.000  0.002  0.002
    6  0.000  0.001  0.006  0.007
    7  0.000  0.001  0.006  0.007
    8  0.000  0.001  0.006  0.007
    9  0.011  0.001  0.000  0.012
   10  0.010  0.001  0.011  0.023
   11  0.004  0.000  0.041  0.046
   12  0.010  0.001  0.011  0.023
   13  0.004  0.000  0.041  0.046
   14  0.004  0.000  0.041  0.045
   15  0.002  0.001  0.021  0.024
   16  0.010  0.001  0.011  0.023
   17  0.002  0.001  0.021  0.024
   18  0.002  0.001  0.021  0.024
   19  0.004  0.001  0.011  0.016
   20  0.000  0.000  0.060  0.060
   21  0.000  0.000  0.060  0.060
   22  0.011  0.001  0.019  0.030
   23  0.000  0.000  0.060  0.060
   24  0.010  0.001  0.019  0.030
   25  0.004  0.001  0.011  0.016
   26  0.004  0.001  0.011  0.016
   27  0.011  0.001  0.019  0.030
   28  0.018  0.001  0.000  0.019
   29  0.000  0.001  0.009  0.010
   30  0.000  0.001  0.009  0.009
   31  0.000  0.001  0.009  0.010
   32  0.000  0.001  0.009  0.009
   33  0.000  0.001  0.009  0.009
   34  0.000  0.001  0.009  0.009
   35  0.004  0.001  0.003  0.008
   36  0.003  0.000  0.001  0.004
tot    0.142  0.026  0.591  0.759
 
band    14 # energy   -5.41845290 # occ.  2.00000000
 
ion      s      p      d    tot
    1  0.002  0.000  0.001  0.002
    2  0.000  0.001  0.008  0.009
    3  0.000  0.001  0.008  0.009
    4  0.000  0.001  0.008  0.009
    5  0.017  0.002  0.000  0.019
    6  0.000  0.001  0.008  0.009
    7  0.000  0.001  0.008  0.009
    8  0.000  0.001  0.008  0.009
    9  0.009  0.001  0.002  0.012
   10  0.001  0.000  0.044  0.045
   11  0.007  0.002  0.007  0.016
   12  0.001  0.000  0.044  0.045
   13  0.007  0.002  0.007  0.016
   14  0.007  0.002  0.007  0.016
   15  0.014  0.001  0.020  0.036
   16  0.001  0.000  0.044  0.045
   17  0.014  0.001  0.020  0.036
   18  0.014  0.001  0.020  0.036
   19  0.009  0.001  0.028  0.038
   20  0.007  0.002  0.017  0.027
   21  0.007  0.002  0.017  0.027
   22  0.000  0.001  0.030  0.030
   23  0.007  0.002  0.017  0.027
   24  0.000  0.001  0.030  0.030
   25  0.009  0.001  0.028  0.038
   26  0.009  0.001  0.028  0.038
   27  0.000  0.001  0.030  0.030
   28  0.003  0.001  0.002  0.005
   29  0.000  0.001  0.008  0.009
   30  0.000  0.001  0.008  0.009
   31  0.000  0.001  0.008  0.009
   32  0.000  0.001  0.008  0.009
   33  0.000  0.001  0.008  0.009
   34  0.000  0.001  0.008  0.009
   35  0.007  0.000  0.000  0.008
   36  0.025  0.005  0.001  0.031
tot    0.176  0.039  0.542  0.756
 
band    15 # energy   -5.36236790 # occ.  2.00000000
 
ion      s      p      d    tot
    1  0.000  0.001  0.013  0.013
    2  0.009  0.001  0.004  0.014
    3  0.001  0.000  0.005  0.006
    4  0.009  0.001  0.004  0.014
    5  0.000  0.000  0.005  0.005
    6  0.004  0.001  0.005  0.010
    7  0.001  0.000  0.005  0.006
    8  0.004  0.001  0.005  0.010
    9  0.000  0.001  0.006  0.007
   10  0.000  0.001  0.030  0.030
   11  0.000  0.001  0.019  0.020
   12  0.009  0.000  0.021  0.030
   13  0.000  0.001  0.019  0.020
   14  0.000  0.001  0.017  0.019
   15  0.011  0.002  0.019  0.032
   16  0.009  0.000  0.021  0.030
   17  0.011  0.002  0.019  0.032
   18  0.000  0.000  0.060  0.060
   19  0.013  0.001  0.019  0.033
   20  0.000  0.002  0.020  0.022
   21  0.000  0.001  0.025  0.026
   22  0.016  0.001  0.019  0.036
   23  0.000  0.001  0.025  0.026
   24  0.000  0.000  0.031  0.032
   25  0.000  0.000  0.063  0.064
   26  0.013  0.001  0.019  0.033
   27  0.016  0.001  0.019  0.036
   28  0.000  0.001  0.005  0.006
   29  0.007  0.001  0.004  0.012
   30  0.000  0.001  0.007  0.007
   31  0.007  0.001  0.004  0.012
   32  0.006  0.001  0.004  0.011
   33  0.000  0.001  0.007  0.007
   34  0.006  0.001  0.004  0.011
   35  0.000  0.001  0.010  0.011
   36  0.000  0.000  0.004  0.004
tot    0.153  0.029  0.564  0.746
 
band    16 # energy   -5.36234957 # occ.  2.00000000
 
ion      s      p      d    tot
    1  0.000  0.001  0.013  0.013
    2  0.001  0.001  0.005  0.006
    3  0.009  0.001  0.004  0.014
    4  0.001  0.001  0.005  0.006
    5  0.000  0.000  0.005  0.005
    6  0.005  0.001  0.004  0.010
    7  0.009  0.001  0.004  0.014
    8  0.005  0.001  0.004  0.010
    9  0.000  0.001  0.006  0.007
   10  0.012  0.000  0.018  0.031
   11  0.000  0.001  0.018  0.019
   12  0.003  0.001  0.027  0.030
   13  0.000  0.001  0.018  0.019
   14  0.000  0.001  0.020  0.021
   15  0.004  0.001  0.047  0.051
   16  0.003  0.001  0.027  0.030
   17  0.004  0.001  0.047  0.051
   18  0.015  0.002  0.005  0.022
   19  0.004  0.001  0.049  0.053
   20  0.000  0.000  0.026  0.027
   21  0.000  0.001  0.022  0.023
   22  0.005  0.001  0.027  0.033
   23  0.000  0.001  0.022  0.023
   24  0.021  0.001  0.015  0.037
   25  0.017  0.002  0.004  0.022
   26  0.004  0.001  0.049  0.053
   27  0.005  0.001  0.027  0.033
   28  0.000  0.001  0.005  0.006
   29  0.002  0.000  0.006  0.008
   30  0.009  0.001  0.003  0.013
   31  0.002  0.000  0.006  0.008
   32  0.003  0.001  0.006  0.009
   33  0.009  0.001  0.003  0.013
   34  0.003  0.001  0.006  0.009
   35  0.000  0.001  0.010  0.011
   36  0.000  0.000  0.004  0.004
tot    0.153  0.029  0.564  0.746
 
band    17 # energy   -5.07800355 # occ.  2.00000000
 
ion      s      p      d    tot
    1  0.000  0.000  0.019  0.019
    2  0.003  0.001  0.006  0.010
    3  0.001  0.000  0.009  0.011
    4  0.003  0.001  0.006  0.010
    5  0.000  0.001  0.013  0.015
    6  0.009  0.001  0.008  0.017
    7  0.001  0.000  0.009  0.011
    8  0.009  0.001  0.008  0.017
    9  0.000  0.001  0.005  0.006
   10  0.000  0.000  0.021  0.021
   11  0.000  0.000  0.040  0.040
   12  0.000  0.000  0.013  0.013
   13  0.000  0.000  0.040  0.040
   14  0.001  0.000  0.042  0.044
   15  0.000  0.000  0.007  0.008
   16  0.000  0.000  0.013  0.013
   17  0.000  0.000  0.007  0.008
   18  0.001  0.000  0.012  0.013
   19  0.000  0.000  0.010  0.010
   20  0.001  0.001  0.092  0.094
   21  0.000  0.001  0.061  0.062
   22  0.000  0.000  0.018  0.019
   23  0.000  0.001  0.061  0.062
   24  0.001  0.000  0.014  0.016
   25  0.000  0.000  0.017  0.018
   26  0.000  0.000  0.010  0.010
   27  0.000  0.000  0.018  0.019
   28  0.000  0.001  0.003  0.004
   29  0.013  0.001  0.024  0.039
   30  0.004  0.000  0.017  0.021
   31  0.013  0.001  0.025  0.039
   32  0.003  0.001  0.012  0.015
   33  0.004  0.000  0.017  0.021
   34  0.003  0.001  0.012  0.015
   35  0.000  0.000  0.030  0.030
   36  0.000  0.004  0.016  0.020
tot    0.072  0.019  0.735  0.826
 
band    18 # energy   -5.07797479 # occ.  2.00000000
 
ion      s      p      d    tot
    1  0.000  0.000  0.019  0.019
    2  0.006  0.000  0.009  0.015
    3  0.007  0.001  0.006  0.014
    4  0.006  0.000  0.009  0.015
    5  0.000  0.001  0.013  0.015
    6  0.000  0.000  0.008  0.008
    7  0.007  0.001  0.006  0.014
    8  0.000  0.000  0.008  0.008
    9  0.000  0.001  0.005  0.006
   10  0.000  0.000  0.010  0.010
   11  0.001  0.000  0.041  0.043
   12  0.000  0.000  0.018  0.018
   13  0.001  0.000  0.041  0.043
   14  0.000  0.000  0.039  0.039
   15  0.001  0.000  0.010  0.011
   16  0.000  0.000  0.018  0.018
   17  0.001  0.000  0.010  0.011
   18  0.000  0.000  0.006  0.006
   19  0.000  0.000  0.015  0.015
   20  0.000  0.001  0.051  0.051
   21  0.001  0.001  0.082  0.083
   22  0.001  0.000  0.016  0.017
   23  0.001  0.001  0.081  0.083
   24  0.000  0.000  0.019  0.020
   25  0.000  0.000  0.007  0.007
   26  0.000  0.000  0.015  0.015
   27  0.001  0.000  0.016  0.017
   28  0.000  0.001  0.003  0.004
   29  0.000  0.000  0.011  0.011
   30  0.010  0.001  0.018  0.029
   31  0.000  0.000  0.011  0.011
   32  0.010  0.001  0.024  0.035
   33  0.010  0.001  0.018  0.029
   34  0.010  0.001  0.024  0.035
   35  0.000  0.000  0.030  0.030
   36  0.000  0.004  0.016  0.020
tot    0.072  0.019  0.735  0.826
 
band    19 # energy   -5.07527062 # occ.  2.00000000
 
ion      s      p      d    tot
    1  0.011  0.000  0.005  0.016
    2  0.000  0.001  0.012  0.012
    3  0.000  0.001  0.012  0.012
    4  0.000  0.001  0.012  0.012
    5  0.000  0.000  0.004  0.004
    6  0.000  0.001  0.012  0.013
    7  0.000  0.001  0.012  0.012
    8  0.000  0.001  0.012  0.013
    9  0.015  0.001  0.000  0.017
   10  0.001  0.000  0.018  0.019
   11  0.000  0.000  0.023  0.024
   12  0.001  0.000  0.018  0.019
   13  0.000  0.000  0.023  0.024
   14  0.000  0.000  0.023  0.024
   15  0.000  0.000  0.025  0.026
   16  0.001  0.000  0.018  0.019
   17  0.000  0.000  0.025  0.026
   18  0.000  0.000  0.026  0.026
   19  0.000  0.000  0.024  0.024
   20  0.001  0.000  0.041  0.042
   21  0.001  0.000  0.042  0.043
   22  0.000  0.000  0.028  0.029
   23  0.001  0.000  0.042  0.043
   24  0.000  0.000  0.028  0.029
   25  0.000  0.000  0.024  0.024
   26  0.000  0.000  0.024  0.024
   27  0.000  0.000  0.028  0.029
   28  0.001  0.001  0.005  0.006
   29  0.000  0.001  0.026  0.027
   30  0.000  0.001  0.026  0.027
   31  0.000  0.001  0.026  0.027
   32  0.000  0.001  0.026  0.027
   33  0.000  0.001  0.026  0.027
   34  0.000  0.001  0.026  0.027
   35  0.028  0.001  0.003  0.032
   36  0.011  0.000  0.008  0.019
tot    0.073  0.016  0.735  0.825
 
band    20 # energy   -5.06226598 # occ.  2.00000000
 
ion      s      p      d    tot
    1  0.000  0.000  0.001  0.001
    2  0.000  0.000  0.013  0.014
    3  0.000  0.000  0.013  0.013
    4  0.000  0.000  0.013  0.014
    5  0.009  0.000  0.004  0.013
    6  0.000  0.000  0.013  0.014
    7  0.000  0.000  0.013  0.013
    8  0.000  0.000  0.013  0.014
    9  0.010  0.000  0.007  0.016
   10  0.000  0.000  0.012  0.013
   11  0.000  0.000  0.020  0.020
   12  0.000  0.000  0.012  0.013
   13  0.000  0.000  0.020  0.020
   14  0.000  0.000  0.020  0.020
   15  0.001  0.000  0.024  0.025
   16  0.000  0.000  0.012  0.013
   17  0.001  0.000  0.024  0.025
   18  0.001  0.000  0.024  0.025
   19  0.000  0.000  0.028  0.028
   20  0.000  0.000  0.035  0.035
   21  0.000  0.000  0.035  0.035
   22  0.000  0.000  0.026  0.026
   23  0.000  0.000  0.035  0.035
   24  0.000  0.000  0.026  0.026
   25  0.000  0.000  0.028  0.028
   26  0.000  0.000  0.028  0.028
   27  0.000  0.000  0.026  0.026
   28  0.029  0.000  0.013  0.042
   29  0.000  0.001  0.033  0.034
   30  0.000  0.000  0.034  0.034
   31  0.000  0.001  0.033  0.034
   32  0.000  0.000  0.034  0.034
   33  0.000  0.000  0.034  0.034
   34  0.000  0.000  0.034  0.034
   35  0.006  0.000  0.007  0.013
   36  0.011  0.002  0.000  0.013
tot    0.069  0.013  0.745  0.827
 
band    21 # energy   -5.01387012 # occ.  2.00000000
 
ion      s      p      d    tot
    1  0.000  0.002  0.008  0.010
    2  0.011  0.001  0.017  0.029
    3  0.009  0.001  0.012  0.021
    4  0.011  0.001  0.017  0.029
    5  0.000  0.001  0.024  0.025
    6  0.000  0.000  0.013  0.014
    7  0.009  0.001  0.012  0.021
    8  0.000  0.000  0.013  0.014
    9  0.000  0.000  0.037  0.037
   10  0.001  0.001  0.037  0.039
   11  0.000  0.000  0.016  0.016
   12  0.000  0.000  0.019  0.020
   13  0.000  0.000  0.016  0.016
   14  0.000  0.000  0.010  0.011
   15  0.000  0.000  0.029  0.029
   16  0.000  0.000  0.019  0.019
   17  0.000  0.000  0.029  0.029
   18  0.000  0.000  0.032  0.033
   19  0.000  0.000  0.022  0.023
   20  0.000  0.000  0.016  0.016
   21  0.000  0.000  0.017  0.017
   22  0.000  0.000  0.023  0.023
   23  0.000  0.000  0.017  0.017
   24  0.001  0.001  0.031  0.032
   25  0.000  0.000  0.023  0.024
   26  0.000  0.000  0.022  0.023
   27  0.000  0.000  0.023  0.023
   28  0.000  0.000  0.034  0.034
   29  0.000  0.000  0.015  0.015
   30  0.011  0.001  0.011  0.022
   31  0.000  0.000  0.015  0.015
   32  0.012  0.001  0.021  0.034
   33  0.011  0.001  0.011  0.023
   34  0.012  0.001  0.021  0.034
   35  0.000  0.001  0.004  0.005
   36  0.000  0.002  0.013  0.014
tot    0.090  0.018  0.700  0.808
 
band    22 # energy   -5.01386111 # occ.  2.00000000
 
ion      s      p      d    tot
    1  0.000  0.002  0.008  0.010
    2  0.002  0.000  0.011  0.014
    3  0.005  0.000  0.016  0.021
    4  0.002  0.000  0.011  0.014
    5  0.000  0.001  0.024  0.025
    6  0.013  0.001  0.015  0.029
    7  0.005  0.000  0.016  0.022
    8  0.013  0.001  0.015  0.029
    9  0.000  0.000  0.037  0.037
   10  0.000  0.000  0.013  0.013
   11  0.000  0.000  0.012  0.012
   12  0.001  0.000  0.031  0.033
   13  0.000  0.000  0.012  0.013
   14  0.000  0.000  0.017  0.018
   15  0.000  0.000  0.031  0.032
   16  0.001  0.001  0.031  0.033