PROCAR new format
# of k-points:   10         # of bands:  252         # of ions:   37

 k-point     1 :    0.00000000 0.00000000 0.00000000     weight = 0.01562500

band     1 # energy   -8.69491238 # occ.  2.00000000
 
ion      s      p      d    tot
    1  0.007  0.001  0.000  0.007
    2  0.007  0.001  0.000  0.007
    3  0.007  0.001  0.000  0.007
    4  0.007  0.001  0.000  0.007
    5  0.007  0.001  0.000  0.007
    6  0.007  0.001  0.000  0.007
    7  0.007  0.001  0.000  0.007
    8  0.007  0.001  0.000  0.007
    9  0.007  0.001  0.000  0.007
   10  0.025  0.000  0.000  0.025
   11  0.024  0.000  0.000  0.025
   12  0.025  0.000  0.000  0.025
   13  0.024  0.000  0.000  0.025
   14  0.024  0.000  0.000  0.025
   15  0.025  0.000  0.000  0.025
   16  0.025  0.000  0.000  0.025
   17  0.025  0.000  0.000  0.025
   18  0.025  0.000  0.000  0.025
   19  0.025  0.000  0.000  0.026
   20  0.024  0.000  0.000  0.024
   21  0.024  0.000  0.000  0.024
   22  0.025  0.000  0.000  0.025
   23  0.024  0.000  0.000  0.024
   24  0.025  0.000  0.000  0.025
   25  0.025  0.000  0.000  0.026
   26  0.025  0.000  0.000  0.026
   27  0.025  0.000  0.000  0.025
   28  0.007  0.001  0.000  0.008
   29  0.007  0.001  0.000  0.007
   30  0.007  0.001  0.000  0.007
   31  0.007  0.001  0.000  0.007
   32  0.007  0.001  0.000  0.007
   33  0.007  0.001  0.000  0.007
   34  0.007  0.001  0.000  0.007
   35  0.007  0.001  0.000  0.008
   36  0.008  0.001  0.000  0.009
   37  0.000  0.000  0.000  0.000
tot    0.567  0.017  0.001  0.585
 
band     2 # energy   -7.38524512 # occ.  2.00000000
 
ion      s      p      d    tot
    1  0.018  0.001  0.000  0.019
    2  0.018  0.001  0.001  0.019
    3  0.018  0.001  0.001  0.019
    4  0.018  0.001  0.001  0.019
    5  0.018  0.001  0.000  0.019
    6  0.018  0.001  0.001  0.019
    7  0.018  0.001  0.001  0.019
    8  0.018  0.001  0.001  0.019
    9  0.018  0.001  0.001  0.019
   10  0.010  0.002  0.001  0.013
   11  0.010  0.002  0.001  0.013
   12  0.010  0.002  0.001  0.013
   13  0.010  0.002  0.001  0.013
   14  0.010  0.002  0.001  0.013
   15  0.010  0.002  0.001  0.013
   16  0.010  0.002  0.001  0.013
   17  0.010  0.002  0.001  0.013
   18  0.010  0.002  0.001  0.013
   19  0.011  0.002  0.001  0.014
   20  0.009  0.002  0.001  0.012
   21  0.009  0.002  0.001  0.012
   22  0.011  0.002  0.001  0.013
   23  0.009  0.002  0.001  0.012
   24  0.011  0.002  0.001  0.013
   25  0.011  0.002  0.001  0.014
   26  0.011  0.002  0.001  0.014
   27  0.011  0.002  0.001  0.013
   28  0.020  0.001  0.001  0.021
   29  0.018  0.001  0.000  0.019
   30  0.018  0.001  0.000  0.019
   31  0.018  0.001  0.000  0.019
   32  0.018  0.001  0.000  0.019
   33  0.018  0.001  0.000  0.019
   34  0.018  0.001  0.000  0.019
   35  0.019  0.001  0.001  0.021
   36  0.021  0.001  0.000  0.022
   37  0.001  0.000  0.000  0.001
tot    0.513  0.054  0.019  0.586
 
band     3 # energy   -5.78460345 # occ.  2.00000000
 
ion      s      p      d    tot
    1  0.015  0.000  0.005  0.020
    2  0.013  0.000  0.005  0.018
    3  0.013  0.000  0.005  0.018
    4  0.013  0.000  0.005  0.018
    5  0.004  0.001  0.006  0.011
    6  0.013  0.000  0.005  0.018
    7  0.013  0.000  0.005  0.018
    8  0.013  0.000  0.005  0.018
    9  0.025  0.000  0.003  0.028
   10  0.002  0.003  0.003  0.009
   11  0.014  0.005  0.001  0.020
   12  0.002  0.003  0.003  0.009
   13  0.014  0.005  0.001  0.020
   14  0.014  0.005  0.001  0.020
   15  0.000  0.002  0.004  0.007
   16  0.002  0.003  0.003  0.009
   17  0.000  0.002  0.004  0.007
   18  0.000  0.002  0.004  0.007
   19  0.000  0.003  0.006  0.009
   20  0.022  0.005  0.003  0.029
   21  0.021  0.005  0.003  0.029
   22  0.000  0.004  0.004  0.008
   23  0.021  0.005  0.003  0.029
   24  0.000  0.004  0.004  0.008
   25  0.000  0.003  0.006  0.009
   26  0.000  0.003  0.006  0.009
   27  0.000  0.004  0.004  0.008
   28  0.021  0.000  0.004  0.025
   29  0.015  0.000  0.007  0.022
   30  0.015  0.000  0.007  0.022
   31  0.015  0.000  0.007  0.022
   32  0.015  0.000  0.007  0.022
   33  0.015  0.000  0.007  0.022
   34  0.015  0.000  0.007  0.022
   35  0.027  0.000  0.005  0.031
   36  0.001  0.001  0.043  0.045
   37  0.001  0.000  0.000  0.001
tot    0.372  0.072  0.200  0.644
 
band     4 # energy   -5.72598578 # occ.  2.00000000
 
ion      s      p      d    tot
    1  0.000  0.003  0.005  0.008
    2  0.007  0.002  0.002  0.011
    3  0.006  0.002  0.002  0.010
    4  0.007  0.002  0.002  0.011
    5  0.000  0.001  0.002  0.003
    6  0.000  0.001  0.002  0.003
    7  0.006  0.002  0.002  0.010
    8  0.000  0.001  0.002  0.003
    9  0.000  0.001  0.004  0.005
   10  0.051  0.002  0.006  0.059
   11  0.000  0.008  0.003  0.012
   12  0.013  0.007  0.008  0.028
   13  0.000  0.008  0.003  0.012
   14  0.002  0.001  0.005  0.007
   15  0.008  0.001  0.012  0.021
   16  0.012  0.007  0.008  0.027
   17  0.009  0.001  0.011  0.022
   18  0.035  0.005  0.002  0.041
   19  0.015  0.006  0.009  0.030
   20  0.035  0.005  0.003  0.043
   21  0.009  0.002  0.012  0.023
   22  0.001  0.010  0.003  0.013
   23  0.009  0.002  0.013  0.023
   24  0.004  0.000  0.006  0.010
   25  0.060  0.002  0.006  0.069
   26  0.016  0.006  0.009  0.031
   27  0.001  0.010  0.003  0.013
   28  0.000  0.004  0.006  0.010
   29  0.008  0.002  0.003  0.013
   30  0.012  0.003  0.003  0.017
   31  0.008  0.002  0.003  0.013
   32  0.000  0.001  0.003  0.004
   33  0.012  0.002  0.003  0.017
   34  0.000  0.001  0.003  0.004
   35  0.000  0.001  0.003  0.004
   36  0.000  0.001  0.016  0.018
   37  0.000  0.000  0.000  0.000
tot    0.347  0.114  0.186  0.647
 
band     5 # energy   -5.72582551 # occ.  2.00000000
 
ion      s      p      d    tot
    1  0.000  0.003  0.005  0.008
    2  0.002  0.001  0.002  0.005
    3  0.003  0.001  0.002  0.006
    4  0.002  0.001  0.002  0.005
    5  0.000  0.001  0.002  0.003
    6  0.009  0.002  0.002  0.013
    7  0.003  0.001  0.002  0.006
    8  0.009  0.002  0.002  0.013
    9  0.000  0.001  0.004  0.005
   10  0.000  0.008  0.009  0.017
   11  0.001  0.003  0.004  0.009
   12  0.038  0.004  0.006  0.048
   13  0.001  0.003  0.004  0.009
   14  0.000  0.011  0.003  0.014
   15  0.026  0.003  0.005  0.035
   16  0.039  0.004  0.006  0.049
   17  0.026  0.003  0.005  0.034
   18  0.000  0.000  0.015  0.015
   19  0.046  0.004  0.007  0.056
   20  0.000  0.001  0.016  0.016
   21  0.026  0.004  0.006  0.036
   22  0.003  0.004  0.005  0.011
   23  0.027  0.004  0.006  0.036
   24  0.000  0.013  0.002  0.015
   25  0.000  0.008  0.010  0.018
   26  0.045  0.004  0.007  0.056
   27  0.003  0.003  0.005  0.011
   28  0.000  0.004  0.006  0.010
   29  0.005  0.002  0.003  0.010
   30  0.001  0.001  0.003  0.006
   31  0.006  0.002  0.003  0.010
   32  0.013  0.003  0.003  0.019
   33  0.002  0.001  0.003  0.006
   34  0.013  0.003  0.003  0.019
   35  0.000  0.001  0.003  0.004
   36  0.000  0.001  0.016  0.018
   37  0.000  0.000  0.000  0.000
tot    0.347  0.114  0.186  0.647
 
band     6 # energy   -5.70473326 # occ.  2.00000000
 
ion      s      p      d    tot
    1  0.021  0.003  0.001  0.024
    2  0.000  0.002  0.004  0.006
    3  0.000  0.002  0.004  0.006
    4  0.000  0.002  0.004  0.006
    5  0.000  0.000  0.001  0.001
    6  0.000  0.002  0.004  0.006
    7  0.000  0.002  0.004  0.006
    8  0.000  0.002  0.004  0.006
    9  0.009  0.002  0.001  0.011
   10  0.026  0.005  0.007  0.037
   11  0.004  0.001  0.011  0.015
   12  0.027  0.004  0.007  0.039
   13  0.004  0.001  0.011  0.015
   14  0.003  0.001  0.011  0.014
   15  0.015  0.009  0.003  0.026
   16  0.027  0.004  0.007  0.039
   17  0.015  0.009  0.003  0.026
   18  0.017  0.009  0.003  0.028
   19  0.020  0.009  0.002  0.031
   20  0.000  0.002  0.011  0.013
   21  0.000  0.002  0.010  0.012
   22  0.030  0.003  0.008  0.041
   23  0.000  0.002  0.010  0.012
   24  0.026  0.003  0.008  0.038
   25  0.019  0.010  0.002  0.031
   26  0.019  0.009  0.002  0.031
   27  0.030  0.003  0.008  0.041
   28  0.020  0.003  0.000  0.023
   29  0.000  0.002  0.004  0.006
   30  0.000  0.002  0.004  0.006
   31  0.000  0.002  0.004  0.006
   32  0.000  0.002  0.004  0.006
   33  0.000  0.002  0.004  0.006
   34  0.000  0.002  0.004  0.006
   35  0.014  0.003  0.002  0.019
   36  0.000  0.000  0.000  0.000
   37  0.000  0.000  0.000  0.000
tot    0.348  0.116  0.176  0.640
 
band     7 # energy   -5.70235221 # occ.  2.00000000
 
ion      s      p      d    tot
    1  0.000  0.000  0.003  0.003
    2  0.007  0.002  0.002  0.012
    3  0.007  0.002  0.002  0.011
    4  0.007  0.002  0.002  0.012
    5  0.000  0.003  0.005  0.008
    6  0.000  0.001  0.002  0.003
    7  0.007  0.002  0.002  0.011
    8  0.000  0.001  0.002  0.003
    9  0.000  0.002  0.003  0.005
   10  0.000  0.005  0.010  0.014
   11  0.045  0.004  0.006  0.055
   12  0.006  0.003  0.005  0.014
   13  0.043  0.004  0.006  0.054
   14  0.000  0.002  0.015  0.017
   15  0.018  0.003  0.006  0.027
   16  0.006  0.003  0.005  0.014
   17  0.018  0.004  0.005  0.027
   18  0.000  0.013  0.003  0.016
   19  0.004  0.004  0.005  0.012
   20  0.000  0.014  0.002  0.016
   21  0.023  0.004  0.006  0.033
   22  0.045  0.004  0.007  0.056
   23  0.024  0.004  0.006  0.033
   24  0.000  0.001  0.017  0.018
   25  0.000  0.006  0.009  0.015
   26  0.004  0.004  0.005  0.012
   27  0.047  0.004  0.006  0.057
   28  0.000  0.000  0.003  0.003
   29  0.008  0.002  0.002  0.012
   30  0.009  0.003  0.003  0.014
   31  0.007  0.002  0.002  0.012
   32  0.000  0.001  0.003  0.003
   33  0.008  0.003  0.003  0.014
   34  0.000  0.001  0.003  0.004
   35  0.000  0.003  0.006  0.009
   36  0.000  0.004  0.014  0.018
   37  0.000  0.000  0.000  0.000
tot    0.343  0.117  0.185  0.645
 
band     8 # energy   -5.70219786 # occ.  2.00000000
 
ion      s      p      d    tot
    1  0.000  0.000  0.003  0.003
    2  0.002  0.001  0.002  0.005
    3  0.003  0.001  0.002  0.006
    4  0.002  0.001  0.002  0.005
    5  0.000  0.003  0.005  0.008
    6  0.009  0.002  0.002  0.014
    7  0.003  0.001  0.002  0.006
    8  0.009  0.002  0.002  0.014
    9  0.000  0.002  0.003  0.005
   10  0.009  0.003  0.003  0.015
   11  0.014  0.003  0.012  0.028
   12  0.002  0.004  0.008  0.014
   13  0.015  0.003  0.012  0.029
   14  0.059  0.004  0.003  0.067
   15  0.006  0.010  0.004  0.020
   16  0.001  0.004  0.008  0.014
   17  0.007  0.010  0.004  0.020
   18  0.023  0.000  0.006  0.029
   19  0.001  0.006  0.008  0.014
   20  0.032  0.000  0.007  0.039
   21  0.008  0.010  0.004  0.022
   22  0.015  0.002  0.013  0.030
   23  0.007  0.011  0.004  0.022
   24  0.064  0.004  0.003  0.072
   25  0.006  0.002  0.003  0.012
   26  0.001  0.005  0.008  0.014
   27  0.013  0.002  0.013  0.029
   28  0.000  0.000  0.003  0.003
   29  0.003  0.002  0.003  0.008
   30  0.002  0.001  0.002  0.005
   31  0.003  0.002  0.003  0.008
   32  0.011  0.003  0.003  0.016
   33  0.002  0.001  0.002  0.006
   34  0.010  0.003  0.003  0.016
   35  0.000  0.003  0.006  0.009
   36  0.000  0.004  0.014  0.018
   37  0.000  0.000  0.000  0.000
tot    0.343  0.117  0.185  0.645
 
band     9 # energy   -5.66686776 # occ.  2.00000000
 
ion      s      p      d    tot
    1  0.000  0.001  0.002  0.003
    2  0.004  0.001  0.005  0.010
    3  0.004  0.001  0.005  0.010
    4  0.004  0.001  0.005  0.010
    5  0.035  0.002  0.000  0.038
    6  0.004  0.001  0.005  0.010
    7  0.004  0.001  0.005  0.010
    8  0.004  0.001  0.005  0.010
    9  0.000  0.001  0.004  0.006
   10  0.006  0.005  0.006  0.017
   11  0.014  0.007  0.005  0.026
   12  0.006  0.005  0.006  0.017
   13  0.014  0.007  0.005  0.026
   14  0.014  0.007  0.005  0.026
   15  0.020  0.002  0.009  0.031
   16  0.006  0.005  0.006  0.017
   17  0.020  0.002  0.009  0.031
   18  0.020  0.002  0.009  0.031
   19  0.015  0.002  0.009  0.025
   20  0.016  0.006  0.004  0.026
   21  0.016  0.006  0.004  0.026
   22  0.006  0.006  0.005  0.017
   23  0.016  0.006  0.004  0.026
   24  0.006  0.006  0.005  0.017
   25  0.015  0.002  0.009  0.025
   26  0.015  0.002  0.009  0.025
   27  0.006  0.006  0.005  0.017
   28  0.000  0.001  0.004  0.005
   29  0.004  0.001  0.003  0.008
   30  0.004  0.001  0.003  0.008
   31  0.004  0.001  0.003  0.008
   32  0.004  0.001  0.003  0.008
   33  0.004  0.001  0.003  0.008
   34  0.004  0.001  0.003  0.008
   35  0.000  0.001  0.002  0.003
   36  0.047  0.001  0.011  0.059
   37  0.010  0.000  0.000  0.010
tot    0.371  0.100  0.181  0.652
 
band    10 # energy   -5.05478949 # occ.  2.00000000
 
ion      s      p      d    tot
    1  0.011  0.000  0.003  0.014
    2  0.002  0.002  0.008  0.012
    3  0.002  0.002  0.008  0.012
    4  0.002  0.002  0.008  0.012
    5  0.009  0.004  0.006  0.019
    6  0.002  0.002  0.008  0.012
    7  0.002  0.002  0.008  0.012
    8  0.002  0.002  0.008  0.012
    9  0.019  0.000  0.001  0.021
   10  0.001  0.001  0.016  0.018
   11  0.019  0.003  0.008  0.030
   12  0.001  0.001  0.016  0.018
   13  0.019  0.003  0.008  0.030
   14  0.019  0.003  0.008  0.030
   15  0.001  0.001  0.013  0.014
   16  0.001  0.001  0.016  0.018
   17  0.001  0.001  0.013  0.014
   18  0.001  0.001  0.013  0.014
   19  0.000  0.000  0.006  0.006
   20  0.007  0.004  0.025  0.036
   21  0.007  0.004  0.025  0.036
   22  0.001  0.000  0.012  0.012
   23  0.007  0.004  0.025  0.036
   24  0.001  0.000  0.012  0.012
   25  0.000  0.000  0.006  0.006
   26  0.000  0.000  0.006  0.006
   27  0.001  0.000  0.012  0.012
   28  0.005  0.000  0.001  0.006
   29  0.001  0.000  0.004  0.005
   30  0.001  0.000  0.004  0.005
   31  0.001  0.000  0.004  0.005
   32  0.001  0.000  0.004  0.005
   33  0.001  0.000  0.004  0.005
   34  0.001  0.000  0.004  0.005
   35  0.006  0.000  0.001  0.007
   36  0.027  0.000  0.188  0.215
   37  0.044  0.001  0.000  0.045
tot    0.227  0.045  0.511  0.783
 
band    11 # energy   -4.98214319 # occ.  2.00000000
 
ion      s      p      d    tot
    1  0.000  0.004  0.010  0.013
    2  0.003  0.002  0.005  0.010
    3  0.020  0.004  0.005  0.028
    4  0.003  0.002  0.005  0.010
    5  0.000  0.000  0.010  0.010
    6  0.007  0.002  0.005  0.014
    7  0.020  0.004  0.005  0.028
    8  0.007  0.002  0.005  0.014
    9  0.000  0.005  0.008  0.013
   10  0.010  0.001  0.006  0.017
   11  0.001  0.002  0.013  0.016
   12  0.002  0.004  0.015  0.021
   13  0.001  0.002  0.013  0.016
   14  0.004  0.001  0.007  0.013
   15  0.007  0.001  0.017  0.025
   16  0.002  0.004  0.015  0.021
   17  0.007  0.001  0.017  0.025
   18  0.027  0.005  0.005  0.036
   19  0.003  0.002  0.013  0.017
   20  0.000  0.001  0.010  0.011
   21  0.000  0.002  0.013  0.015
   22  0.002  0.002  0.023  0.027
   23  0.000  0.002  0.013  0.015
   24  0.009  0.003  0.003  0.014
   25  0.012  0.006  0.009  0.027
   26  0.003  0.002  0.013  0.017
   27  0.002  0.002  0.023  0.027
   28  0.000  0.004  0.007  0.011
   29  0.005  0.002  0.007  0.015
   30  0.026  0.003  0.007  0.036
   31  0.005  0.002  0.007  0.014
   32  0.008  0.002  0.007  0.017
   33  0.026  0.003  0.007  0.036
   34  0.008  0.002  0.007  0.017
   35  0.000  0.005  0.009  0.015
   36  0.000  0.000  0.049  0.049
   37  0.000  0.000  0.000  0.000
tot    0.229  0.091  0.392  0.712
 
band    12 # energy   -4.98208948 # occ.  2.00000000
 
ion      s      p      d    tot
    1  0.000  0.004  0.010  0.013
    2  0.017  0.003  0.005  0.025
    3  0.000  0.001  0.005  0.006
    4  0.017  0.003  0.005  0.025
    5  0.000  0.000  0.010  0.010
    6  0.013  0.003  0.005  0.021
    7  0.000  0.001  0.005  0.006
    8  0.013  0.003  0.005  0.021
    9  0.000  0.005  0.008  0.013
   10  0.000  0.004  0.018  0.022
   11  0.003  0.002  0.009  0.014
   12  0.007  0.002  0.009  0.018
   13  0.003  0.002  0.009  0.014
   14  0.000  0.002  0.014  0.017
   15  0.020  0.004  0.009  0.032
   16  0.007  0.002  0.009  0.018
   17  0.020  0.004  0.009  0.032
   18  0.000  0.000  0.021  0.022
   19  0.009  0.005  0.010  0.024
   20  0.000  0.002  0.015  0.017
   21  0.000  0.001  0.011  0.012
   22  0.007  0.003  0.010  0.019
   23  0.000  0.001  0.011  0.012
   24  0.000  0.002  0.030  0.032
   25  0.000  0.000  0.014  0.014
   26  0.009  0.005  0.010  0.024
   27  0.007  0.003  0.009  0.019
   28  0.000  0.004  0.007  0.011
   29  0.020  0.003  0.007  0.031
   30  0.000  0.002  0.007  0.009
   31  0.021  0.003  0.007  0.031
   32  0.018  0.002  0.007  0.028
   33  0.000  0.002  0.007  0.009
   34  0.018  0.002  0.007  0.028
   35  0.000  0.005  0.009  0.015
   36  0.000  0.000  0.049  0.049
   37  0.000  0.000  0.000  0.000
tot    0.229  0.091  0.392  0.712
 
band    13 # energy   -4.92983741 # occ.  2.00000000
 
ion      s      p      d    tot
    1  0.033  0.003  0.000  0.037
    2  0.000  0.003  0.010  0.013
    3  0.000  0.003  0.010  0.013
    4  0.000  0.003  0.010  0.013
    5  0.000  0.000  0.000  0.001
    6  0.000  0.003  0.010  0.013
    7  0.000  0.003  0.010  0.013
    8  0.000  0.003  0.010  0.013
    9  0.030  0.004  0.001  0.035
   10  0.008  0.003  0.010  0.022
   11  0.001  0.000  0.015  0.016
   12  0.009  0.003  0.010  0.023
   13  0.001  0.000  0.015  0.016
   14  0.001  0.000  0.015  0.016
   15  0.008  0.004  0.016  0.028
   16  0.009  0.003  0.010  0.023
   17  0.008  0.004  0.016  0.028
   18  0.008  0.004  0.017  0.028
   19  0.004  0.003  0.020  0.027
   20  0.000  0.000  0.013  0.013
   21  0.000  0.000  0.013  0.013
   22  0.011  0.004  0.010  0.025
   23  0.000  0.000  0.013  0.013
   24  0.011  0.004  0.010  0.025
   25  0.004  0.003  0.020  0.028
   26  0.004  0.003  0.020  0.027
   27  0.011  0.004  0.010  0.025
   28  0.037  0.003  0.000  0.040
   29  0.000  0.003  0.010  0.013
   30  0.000  0.003  0.010  0.014
   31  0.000  0.003  0.010  0.013
   32  0.000  0.003  0.010  0.014
   33  0.000  0.003  0.010  0.014
   34  0.000  0.003  0.010  0.014
   35  0.030  0.004  0.001  0.035
   36  0.000  0.000  0.000  0.000
   37  0.000  0.000  0.000  0.000
tot    0.230  0.095  0.380  0.705
 
band    14 # energy   -4.92772386 # occ.  2.00000000
 
ion      s      p      d    tot
    1  0.000  0.002  0.010  0.012
    2  0.003  0.002  0.005  0.010
    3  0.021  0.004  0.006  0.031
    4  0.002  0.002  0.005  0.010
    5  0.000  0.006  0.009  0.015
    6  0.008  0.002  0.005  0.016
    7  0.021  0.004  0.006  0.031
    8  0.009  0.002  0.005  0.017
    9  0.000  0.001  0.012  0.013
   10  0.000  0.000  0.019  0.019
   11  0.016  0.003  0.010  0.029
   12  0.012  0.003  0.011  0.027
   13  0.015  0.003  0.011  0.029
   14  0.000  0.002  0.027  0.029
   15  0.000  0.001  0.011  0.012
   16  0.012  0.004  0.011  0.027
   17  0.000  0.001  0.011  0.012
   18  0.000  0.004  0.018  0.022
   19  0.002  0.001  0.010  0.013
   20  0.000  0.001  0.029  0.030
   21  0.014  0.004  0.011  0.029
   22  0.006  0.003  0.011  0.019
   23  0.015  0.004  0.010  0.029
   24  0.000  0.001  0.013  0.014
   25  0.000  0.003  0.023  0.026
   26  0.002  0.001  0.011  0.014
   27  0.006  0.003  0.011  0.019
   28  0.000  0.002  0.011  0.013
   29  0.004  0.002  0.005  0.010
   30  0.018  0.004  0.006  0.028
   31  0.003  0.002  0.005  0.010
   32  0.005  0.002  0.005  0.013
   33  0.018  0.004  0.006  0.028
   34  0.006  0.002  0.005  0.014
   35  0.000  0.001  0.009  0.010
   36  0.000  0.008  0.031  0.039
   37  0.000  0.000  0.000  0.000
tot    0.219  0.095  0.401  0.715
 
band    15 # energy   -4.92769015 # occ.  2.00000000
 
ion      s      p      d    tot
    1  0.000  0.002  0.010  0.012
    2  0.019  0.004  0.005  0.028
    3  0.001  0.002  0.005  0.007
    4  0.019  0.004  0.005  0.028
    5  0.000  0.006  0.009  0.015
    6  0.014  0.003  0.006  0.022
    7  0.000  0.002  0.005  0.007
    8  0.013  0.003  0.006  0.021
    9  0.000  0.001  0.012  0.013
   10  0.016  0.004  0.009  0.029
   11  0.005  0.002  0.022  0.029
   12  0.004  0.001  0.016  0.022
   13  0.005  0.002  0.021  0.029
   14  0.021  0.004  0.005  0.029
   15  0.000  0.003  0.016  0.019
   16  0.004  0.001  0.016  0.021
   17  0.000  0.003  0.015  0.018
   18  0.000  0.000  0.008  0.009
   19  0.001  0.002  0.019  0.022
   20  0.020  0.006  0.004  0.029
   21  0.005  0.002  0.022  0.029
   22  0.002  0.001  0.012  0.016
   23  0.004  0.002  0.023  0.029
   24  0.008  0.003  0.010  0.021
   25  0.002  0.000  0.007  0.009
   26  0.001  0.002  0.018  0.021
   27  0.002  0.001  0.012  0.015
   28  0.000  0.002  0.011  0.013
   29  0.014  0.003  0.006  0.024
   30  0.000  0.001  0.005  0.006
   31  0.015  0.003  0.006  0.024
   32  0.013  0.003  0.006  0.021
   33  0.000  0.001  0.005  0.006
   34  0.012  0.003  0.006  0.020
   35  0.000  0.001  0.009  0.010
   36  0.000  0.008  0.031  0.039
   37  0.000  0.000  0.000  0.000
tot    0.219  0.095  0.401  0.715
 
band    16 # energy   -4.89483973 # occ.  2.00000000
 
ion      s      p      d    tot
    1  0.001  0.002  0.006  0.009
    2  0.003  0.001  0.009  0.013
    3  0.003  0.001  0.009  0.013
    4  0.003  0.001  0.009  0.013
    5  0.027  0.000  0.004  0.031
    6  0.003  0.001  0.009  0.013
    7  0.003  0.001  0.009  0.013
    8  0.003  0.001  0.009  0.013
    9  0.000  0.001  0.007  0.008
   10  0.008  0.001  0.020  0.028
   11  0.000  0.001  0.019  0.020
   12  0.008  0.001  0.020  0.028
   13  0.000  0.001  0.019  0.020
   14  0.000  0.001  0.019  0.020
   15  0.009  0.000  0.021  0.030
   16  0.008  0.001  0.020  0.028
   17  0.009  0.000  0.021  0.030
   18  0.009  0.000  0.021  0.030
   19  0.013  0.001  0.021  0.035
   20  0.000  0.002  0.021  0.023
   21  0.000  0.002  0.021  0.023
   22  0.005  0.000  0.020  0.025
   23  0.000  0.002  0.021  0.023
   24  0.005  0.000  0.020  0.025
   25  0.013  0.001  0.021  0.035
   26  0.013  0.001  0.021  0.035
   27  0.005  0.000  0.020  0.025
   28  0.000  0.002  0.009  0.011
   29  0.003  0.001  0.007  0.012
   30  0.003  0.001  0.007  0.012
   31  0.003  0.001  0.007  0.012
   32  0.003  0.001  0.007  0.012
   33  0.003  0.001  0.007  0.012
   34  0.003  0.001  0.007  0.012
   35  0.001  0.001  0.007  0.008
   36  0.046  0.000  0.006  0.053
   37  0.014  0.000  0.000  0.015
tot    0.231  0.034  0.500  0.765
 
band    17 # energy   -4.49986118 # occ.  2.00000000
 
ion      s      p      d    tot
    1  0.014  0.001  0.000  0.015
    2  0.000  0.001  0.007  0.008
    3  0.000  0.001  0.007  0.008
    4  0.000  0.001  0.007  0.008
    5  0.015  0.002  0.000  0.017
    6  0.000  0.001  0.007  0.008
    7  0.000  0.001  0.007  0.008
    8  0.000  0.001  0.007  0.008
    9  0.000  0.000  0.000  0.001
   10  0.000  0.001  0.023  0.024
   11  0.001  0.003  0.018  0.021
   12  0.000  0.001  0.023  0.024
   13  0.001  0.003  0.018  0.021
   14  0.001  0.003  0.018  0.021
   15  0.000  0.000  0.002  0.002
   16  0.000  0.001  0.023  0.024
   17  0.000  0.000  0.002  0.002
   18  0.000  0.000  0.002  0.002
   19  0.001  0.000  0.017  0.019
   20  0.009  0.000  0.015  0.024
   21  0.009  0.000  0.015  0.024
   22  0.000  0.001  0.015  0.016
   23  0.009  0.000  0.015  0.024
   24  0.000  0.001  0.015  0.016
   25  0.001  0.000  0.017  0.019
   26  0.001  0.000  0.017  0.019
   27  0.000  0.001  0.015  0.016
   28  0.000  0.000  0.000  0.001
   29  0.000  0.002  0.009  0.010
   30  0.000  0.002  0.009  0.010
   31  0.000  0.002  0.009  0.010
   32  0.000  0.002  0.009  0.010
   33  0.000  0.002  0.009  0.010
   34  0.000  0.002  0.009  0.010
   35  0.009  0.000  0.001  0.010
   36  0.003  0.016  0.264  0.283
   37  0.070  0.002  0.000  0.072
tot    0.144  0.055  0.631  0.829
 
band    18 # energy   -4.34187133 # occ.  2.00000000
 
ion      s      p      d    tot
    1  0.000  0.001  0.026  0.027
    2  0.014  0.001  0.007  0.023
    3  0.006  0.001  0.007  0.014
    4  0.014  0.001  0.007  0.023
    5  0.000  0.001  0.012  0.013
    6  0.002  0.001  0.007  0.010
    7  0.006  0.001  0.007  0.014
    8  0.002  0.001  0.007  0.010
    9  0.000  0.003  0.004  0.007
   10  0.000  0.000  0.058  0.058
   11  0.000  0.003  0.015  0.019
   12  0.000  0.000  0.018  0.018
   13  0.000  0.003  0.015  0.018
   14  0.000  0.000  0.005  0.005
   15  0.000  0.005  0.015  0.020
   16  0.000  0.000  0.017  0.018
   17  0.000  0.005  0.015  0.020
   18  0.000  0.000  0.027  0.027
   19  0.004  0.003  0.013  0.020
   20  0.000  0.000  0.051  0.051
   21  0.000  0.000  0.020  0.021
   22  0.003  0.002  0.015  0.020
   23  0.000  0.000  0.020  0.020
   24  0.000  0.000  0.016  0.016
   25  0.000  0.000  0.019  0.019
   26  0.004  0.003  0.014  0.020
   27  0.003  0.002  0.015  0.020
   28  0.000  0.001  0.006  0.007
   29  0.009  0.000  0.018  0.027
   30  0.000  0.001  0.014  0.015
   31  0.009  0.000  0.018  0.028
   32  0.010  0.000  0.016  0.026
   33  0.000  0.001  0.014  0.015
   34  0.010  0.000  0.016  0.026
   35  0.000  0.001  0.006  0.007
   36  0.000  0.000  0.114  0.114
   37  0.000  0.000  0.000  0.000
tot    0.096  0.043  0.677  0.816
 
band    19 # energy   -4.34182414 # occ.  2.00000000
 
ion      s      p      d    tot
    1  0.000  0.001  0.026  0.027
    2  0.000  0.001  0.007  0.008
    3  0.008  0.001  0.007  0.017
    4  0.001  0.001  0.007  0.008
    5  0.000  0.001  0.012  0.013
    6  0.013  0.001  0.007  0.021
    7  0.009  0.001  0.007  0.017
    8  0.013  0.001  0.007  0.022
    9  0.000  0.003  0.004  0.007
   10  0.000  0.000  0.004  0.005
   11  0.000  0.001  0.008  0.009
   12  0.000  0.000  0.044  0.044
   13  0.000  0.001  0.009  0.010
   14  0.000  0.004  0.019  0.023
   15  0.000  0.002  0.023  0.025
   16  0.000  0.000  0.045  0.045
   17  0.000  0.002  0.023  0.025
   18  0.000  0.006  0.011  0.018
   19  0.001  0.001  0.017  0.020
   20  0.000  0.000  0.010  0.010
   21  0.000  0.000  0.040  0.041
   22  0.001  0.001  0.016  0.017
   23  0.000  0.000  0.041  0.041
   24  0.004  0.002  0.015  0.021
   25  0.005  0.004  0.012  0.021
   26  0.001  0.001  0.017  0.020
   27  0.001  0.001  0.016  0.017
   28  0.000  0.001  0.006  0.007
   29  0.004  0.001  0.014  0.018
   30  0.013  0.000  0.018  0.031
   31  0.004  0.001  0.014  0.018
   32  0.003  0.001  0.016  0.019
   33  0.013  0.000  0.018  0.031
   34  0.003  0.001  0.016  0.020
   35  0.000  0.001  0.006  0.007
   36  0.000  0.000  0.114  0.114
   37  0.000  0.000  0.000  0.000
tot    0.096  0.043  0.677  0.816
 
band    20 # energy   -4.22258002 # occ.  2.00000000
 
ion      s      p      d    tot
    1  0.001  0.000  0.001  0.002
    2  0.000  0.002  0.019  0.021
    3  0.000  0.002  0.019  0.021
    4  0.000  0.002  0.019  0.021
    5  0.020  0.001  0.000  0.021
    6  0.000  0.002  0.019  0.021
    7  0.000  0.002  0.019  0.021
    8  0.000  0.002  0.019  0.021
    9  0.029  0.001  0.002  0.032
   10  0.000  0.001  0.007  0.009
   11  0.000  0.001  0.026  0.027
   12  0.000  0.001  0.007  0.009
   13  0.000  0.001  0.026  0.027
   14  0.000  0.001  0.026  0.027
   15  0.001  0.004  0.041  0.045
   16  0.000  0.001  0.007  0.009
   17  0.001  0.004  0.041  0.045
   18  0.001  0.004  0.041  0.045
   19  0.000  0.001  0.024  0.025
   20  0.001  0.001  0.006  0.008
   21  0.001  0.001  0.006  0.008
   22  0.001  0.003  0.036  0.040
   23  0.001  0.001  0.006  0.008
   24  0.001  0.003  0.036  0.040
   25  0.000  0.001  0.024  0.025
   26  0.000  0.001  0.024  0.025
   27  0.001  0.003  0.036  0.040
   28  0.020  0.001  0.000  0.021
   29  0.000  0.001  0.017  0.018
   30  0.000  0.001  0.017  0.018
   31  0.000  0.001  0.017  0.018
   32  0.000  0.001  0.017  0.018
   33  0.000  0.001  0.017  0.018
   34  0.000  0.001  0.017  0.018
   35  0.022  0.001  0.002  0.025
   36  0.001  0.000  0.002  0.003
   37  0.001  0.000  0.000  0.001
tot    0.101  0.054  0.644  0.800
 
band    21 # energy   -4.21665073 # occ.  2.00000000
 
ion      s      p      d    tot
    1  0.000  0.002  0.001  0.004
    2  0.014  0.001  0.010  0.026
    3  0.008  0.001  0.009  0.019
    4  0.015  0.001  0.010  0.026
    5  0.000  0.002  0.023  0.024
    6  0.001  0.001  0.010  0.011
    7  0.009  0.001  0.009  0.019
    8  0.001  0.001  0.010  0.011
    9  0.000  0.000  0.032  0.033
   10  0.001  0.007  0.021  0.029
   11  0.000  0.001  0.042  0.043
   12  0.000  0.002  0.012  0.014
   13  0.000  0.001  0.042  0.043
   14  0.001  0.002  0.005  0.008
   15  0.000  0.000  0.032  0.033
   16  0.000  0.002  0.012  0.015
   17  0.000  0.000  0.032  0.033
   18  0.000  0.001  0.014  0.015
   19  0.000  0.000  0.046  0.047
   20  0.001  0.007  0.017  0.026
   21  0.000  0.002  0.014  0.017
   22  0.000  0.001  0.026  0.027
   23  0.000  0.002  0.014  0.017
   24  0.000  0.002  0.016  0.019
   25  0.001  0.001  0.004  0.006
   26  0.000  0.000  0.047  0.047
   27  0.000  0.001  0.026  0.027
   28  0.000  0.001  0.028  0.029
   29  0.011  0.001  0.010  0.022
   30  0.000  0.001  0.009  0.010
   31  0.011  0.001  0.010  0.022
   32  0.010  0.001  0.009  0.020
   33  0.000  0.001  0.009  0.010
   34  0.010  0.001  0.009  0.020
   35  0.000  0.000  0.026  0.026
   36  0.000  0.004  0.004  0.007