PROCAR new format
# of k-points:   10         # of bands:  252         # of ions:   36

 k-point     1 :    0.00000000 0.00000000 0.00000000     weight = 0.01562500

band     1 # energy   -6.25508922 # occ.  2.00000000
 
ion      s      p      d    tot
    1  0.006  0.001  0.000  0.007
    2  0.006  0.001  0.000  0.007
    3  0.006  0.001  0.000  0.007
    4  0.006  0.001  0.000  0.007
    5  0.006  0.001  0.000  0.007
    6  0.006  0.001  0.000  0.007
    7  0.006  0.001  0.000  0.007
    8  0.006  0.001  0.000  0.007
    9  0.007  0.001  0.000  0.007
   10  0.024  0.000  0.000  0.025
   11  0.025  0.000  0.000  0.025
   12  0.024  0.000  0.000  0.025
   13  0.025  0.000  0.000  0.025
   14  0.025  0.000  0.000  0.025
   15  0.025  0.000  0.000  0.025
   16  0.024  0.000  0.000  0.025
   17  0.025  0.000  0.000  0.025
   18  0.025  0.000  0.000  0.025
   19  0.022  0.000  0.000  0.023
   20  0.022  0.000  0.000  0.022
   21  0.022  0.000  0.000  0.022
   22  0.023  0.000  0.000  0.023
   23  0.022  0.000  0.000  0.022
   24  0.023  0.000  0.000  0.023
   25  0.022  0.000  0.000  0.023
   26  0.022  0.000  0.000  0.023
   27  0.023  0.000  0.000  0.023
   28  0.005  0.001  0.000  0.006
   29  0.005  0.001  0.000  0.005
   30  0.005  0.001  0.000  0.005
   31  0.005  0.001  0.000  0.005
   32  0.005  0.001  0.000  0.005
   33  0.005  0.001  0.000  0.005
   34  0.005  0.001  0.000  0.005
   35  0.005  0.001  0.000  0.006
   36  0.005  0.001  0.000  0.005
tot    0.524  0.013  0.006  0.544
 
band     2 # energy   -5.37790076 # occ.  2.00000000
 
ion      s      p      d    tot
    1  0.008  0.000  0.000  0.008
    2  0.007  0.000  0.000  0.008
    3  0.007  0.000  0.000  0.008
    4  0.007  0.000  0.000  0.008
    5  0.007  0.000  0.000  0.008
    6  0.007  0.000  0.000  0.008
    7  0.007  0.000  0.000  0.008
    8  0.007  0.000  0.000  0.008
    9  0.007  0.000  0.000  0.008
   10  0.010  0.001  0.015  0.026
   11  0.010  0.001  0.016  0.027
   12  0.010  0.001  0.015  0.026
   13  0.010  0.001  0.016  0.027
   14  0.010  0.001  0.016  0.027
   15  0.009  0.001  0.016  0.026
   16  0.010  0.001  0.015  0.026
   17  0.009  0.001  0.016  0.026
   18  0.009  0.001  0.016  0.026
   19  0.014  0.001  0.017  0.033
   20  0.012  0.001  0.018  0.030
   21  0.012  0.001  0.018  0.030
   22  0.014  0.001  0.017  0.033
   23  0.012  0.001  0.018  0.030
   24  0.014  0.001  0.017  0.033
   25  0.014  0.001  0.017  0.032
   26  0.014  0.001  0.017  0.033
   27  0.014  0.001  0.017  0.033
   28  0.008  0.001  0.000  0.008
   29  0.006  0.000  0.000  0.007
   30  0.006  0.000  0.000  0.007
   31  0.006  0.000  0.000  0.007
   32  0.006  0.000  0.000  0.007
   33  0.006  0.000  0.000  0.007
   34  0.006  0.000  0.000  0.007
   35  0.007  0.001  0.000  0.008
   36  0.005  0.000  0.000  0.005
tot    0.334  0.024  0.301  0.659
 
band     3 # energy   -5.10867082 # occ.  2.00000000
 
ion      s      p      d    tot
    1  0.017  0.000  0.028  0.045
    2  0.017  0.000  0.028  0.045
    3  0.017  0.000  0.028  0.045
    4  0.017  0.000  0.028  0.045
    5  0.017  0.000  0.029  0.045
    6  0.017  0.000  0.028  0.044
    7  0.017  0.000  0.028  0.045
    8  0.017  0.000  0.028  0.044
    9  0.017  0.000  0.028  0.044
   10  0.001  0.001  0.022  0.023
   11  0.001  0.001  0.024  0.025
   12  0.001  0.001  0.022  0.023
   13  0.001  0.001  0.024  0.025
   14  0.001  0.001  0.024  0.025
   15  0.001  0.001  0.023  0.025
   16  0.001  0.001  0.022  0.023
   17  0.001  0.001  0.023  0.025
   18  0.001  0.001  0.023  0.025
   19  0.000  0.000  0.006  0.007
   20  0.000  0.000  0.006  0.006
   21  0.000  0.000  0.006  0.006
   22  0.000  0.000  0.009  0.009
   23  0.000  0.000  0.006  0.006
   24  0.000  0.000  0.009  0.009
   25  0.000  0.000  0.006  0.007
   26  0.000  0.000  0.006  0.007
   27  0.000  0.000  0.009  0.009
   28  0.005  0.000  0.005  0.010
   29  0.004  0.000  0.004  0.009
   30  0.004  0.000  0.004  0.009
   31  0.004  0.000  0.004  0.009
   32  0.004  0.000  0.004  0.009
   33  0.004  0.000  0.004  0.009
   34  0.004  0.000  0.004  0.009
   35  0.005  0.000  0.006  0.011
   36  0.002  0.000  0.001  0.003
tot    0.196  0.006  0.560  0.762
 
band     4 # energy   -4.98613039 # occ.  2.00000000
 
ion      s      p      d    tot
    1  0.001  0.000  0.000  0.001
    2  0.000  0.000  0.005  0.006
    3  0.000  0.000  0.005  0.006
    4  0.000  0.000  0.005  0.006
    5  0.005  0.001  0.006  0.012
    6  0.000  0.000  0.005  0.006
    7  0.000  0.000  0.005  0.006
    8  0.000  0.000  0.005  0.006
    9  0.001  0.000  0.005  0.007
   10  0.008  0.001  0.006  0.015
   11  0.015  0.001  0.044  0.059
   12  0.008  0.001  0.005  0.014
   13  0.014  0.001  0.044  0.059
   14  0.014  0.001  0.044  0.058
   15  0.001  0.000  0.065  0.066
   16  0.008  0.001  0.005  0.014
   17  0.001  0.000  0.065  0.066
   18  0.001  0.000  0.066  0.068
   19  0.010  0.001  0.025  0.036
   20  0.005  0.001  0.011  0.017
   21  0.005  0.001  0.010  0.016
   22  0.001  0.000  0.044  0.045
   23  0.005  0.001  0.010  0.016
   24  0.001  0.000  0.045  0.046
   25  0.009  0.001  0.025  0.035
   26  0.010  0.001  0.025  0.036
   27  0.001  0.000  0.044  0.045
   28  0.003  0.001  0.003  0.008
   29  0.000  0.000  0.004  0.004
   30  0.000  0.000  0.003  0.003
   31  0.000  0.000  0.003  0.004
   32  0.000  0.000  0.003  0.004
   33  0.000  0.000  0.003  0.003
   34  0.000  0.000  0.003  0.004
   35  0.003  0.001  0.004  0.007
   36  0.000  0.000  0.000  0.000
tot    0.130  0.017  0.655  0.802
 
band     5 # energy   -4.98424998 # occ.  2.00000000
 
ion      s      p      d    tot
    1  0.000  0.000  0.000  0.000
    2  0.000  0.000  0.004  0.004
    3  0.002  0.001  0.006  0.009
    4  0.000  0.000  0.005  0.005
    5  0.000  0.000  0.009  0.010
    6  0.001  0.000  0.003  0.005
    7  0.002  0.001  0.007  0.009
    8  0.001  0.000  0.003  0.004
    9  0.000  0.000  0.007  0.007
   10  0.000  0.000  0.030  0.031
   11  0.007  0.000  0.078  0.085
   12  0.000  0.001  0.036  0.037
   13  0.004  0.000  0.090  0.095
   14  0.024  0.001  0.003  0.028
   15  0.007  0.001  0.030  0.039
   16  0.000  0.001  0.035  0.036
   17  0.005  0.001  0.030  0.036
   18  0.024  0.000  0.031  0.056
   19  0.002  0.000  0.033  0.034
   20  0.004  0.000  0.026  0.030
   21  0.001  0.001  0.015  0.017
   22  0.004  0.001  0.036  0.040
   23  0.001  0.001  0.017  0.019
   24  0.021  0.001  0.013  0.035
   25  0.006  0.001  0.009  0.016
   26  0.001  0.000  0.036  0.038
   27  0.006  0.001  0.033  0.040
   28  0.000  0.000  0.003  0.003
   29  0.001  0.000  0.003  0.005
   30  0.000  0.000  0.002  0.002
   31  0.001  0.000  0.003  0.005
   32  0.001  0.000  0.003  0.004
   33  0.000  0.000  0.002  0.002
   34  0.001  0.000  0.003  0.005
   35  0.000  0.000  0.009  0.009
   36  0.000  0.000  0.000  0.001
tot    0.130  0.017  0.653  0.800
 
band     6 # energy   -4.98424171 # occ.  2.00000000
 
ion      s      p      d    tot
    1  0.000  0.000  0.000  0.000
    2  0.002  0.001  0.005  0.008
    3  0.000  0.000  0.003  0.003
    4  0.002  0.001  0.005  0.007
    5  0.000  0.000  0.009  0.010
    6  0.001  0.000  0.006  0.008
    7  0.000  0.000  0.003  0.003
    8  0.001  0.001  0.006  0.008
    9  0.000  0.000  0.007  0.007
   10  0.000  0.001  0.038  0.039
   11  0.016  0.001  0.036  0.053
   12  0.000  0.000  0.032  0.032
   13  0.019  0.001  0.024  0.044
   14  0.000  0.000  0.111  0.111
   15  0.017  0.001  0.031  0.048
   16  0.000  0.000  0.033  0.033
   17  0.020  0.001  0.031  0.052
   18  0.000  0.002  0.028  0.030
   19  0.004  0.000  0.019  0.024
   20  0.000  0.001  0.013  0.014
   21  0.003  0.000  0.023  0.027
   22  0.017  0.001  0.019  0.036
   23  0.003  0.001  0.022  0.025
   24  0.000  0.001  0.041  0.042
   25  0.000  0.000  0.043  0.043
   26  0.005  0.001  0.016  0.021
   27  0.014  0.001  0.022  0.037
   28  0.000  0.000  0.003  0.003
   29  0.000  0.000  0.002  0.002
   30  0.002  0.000  0.004  0.006
   31  0.000  0.000  0.002  0.003
   32  0.001  0.000  0.003  0.003
   33  0.002  0.000  0.003  0.006
   34  0.000  0.000  0.002  0.003
   35  0.000  0.000  0.009  0.009
   36  0.000  0.000  0.000  0.001
tot    0.130  0.017  0.653  0.800
 
band     7 # energy   -4.97764068 # occ.  2.00000000
 
ion      s      p      d    tot
    1  0.001  0.001  0.014  0.016
    2  0.000  0.000  0.005  0.005
    3  0.000  0.000  0.005  0.006
    4  0.000  0.000  0.005  0.005
    5  0.000  0.000  0.000  0.000
    6  0.000  0.000  0.005  0.005
    7  0.000  0.000  0.005  0.006
    8  0.000  0.000  0.005  0.005
    9  0.003  0.001  0.003  0.007
   10  0.007  0.000  0.088  0.095
   11  0.002  0.001  0.034  0.037
   12  0.006  0.000  0.090  0.097
   13  0.002  0.001  0.034  0.037
   14  0.002  0.001  0.033  0.036
   15  0.015  0.001  0.020  0.036
   16  0.006  0.000  0.090  0.097
   17  0.015  0.001  0.020  0.036
   18  0.015  0.001  0.020  0.037
   19  0.001  0.001  0.018  0.020
   20  0.004  0.000  0.022  0.026
   21  0.003  0.000  0.022  0.026
   22  0.006  0.001  0.019  0.025
   23  0.003  0.000  0.023  0.026
   24  0.006  0.001  0.019  0.025
   25  0.001  0.001  0.018  0.020
   26  0.001  0.001  0.018  0.020
   27  0.006  0.001  0.019  0.025
   28  0.001  0.000  0.000  0.001
   29  0.000  0.000  0.004  0.005
   30  0.000  0.000  0.004  0.005
   31  0.000  0.000  0.004  0.005
   32  0.000  0.000  0.004  0.004
   33  0.000  0.000  0.004  0.005
   34  0.000  0.000  0.004  0.004
   35  0.001  0.000  0.000  0.002
   36  0.001  0.000  0.000  0.002
tot    0.112  0.016  0.683  0.811
 
band     8 # energy   -4.97654570 # occ.  2.00000000
 
ion      s      p      d    tot
    1  0.000  0.000  0.010  0.010
    2  0.001  0.001  0.007  0.009
    3  0.000  0.000  0.004  0.004
    4  0.001  0.000  0.004  0.005
    5  0.000  0.000  0.001  0.001
    6  0.000  0.000  0.004  0.004
    7  0.001  0.000  0.004  0.005
    8  0.001  0.001  0.007  0.009
    9  0.000  0.000  0.005  0.005
   10  0.022  0.001  0.034  0.057
   11  0.005  0.001  0.035  0.040
   12  0.000  0.001  0.076  0.076
   13  0.000  0.002  0.009  0.011
   14  0.005  0.001  0.036  0.042
   15  0.007  0.000  0.037  0.045
   16  0.023  0.001  0.032  0.056
   17  0.000  0.000  0.114  0.114
   18  0.007  0.000  0.037  0.044
   19  0.006  0.001  0.023  0.030
   20  0.009  0.001  0.014  0.024
   21  0.000  0.000  0.033  0.033
   22  0.000  0.000  0.036  0.036
   23  0.010  0.001  0.014  0.024
   24  0.000  0.000  0.025  0.026
   25  0.006  0.001  0.023  0.030
   26  0.000  0.001  0.020  0.021
   27  0.000  0.000  0.025  0.026
   28  0.000  0.000  0.005  0.006
   29  0.000  0.000  0.002  0.002
   30  0.001  0.000  0.002  0.003
   31  0.000  0.000  0.003  0.003
   32  0.001  0.000  0.002  0.003
   33  0.000  0.000  0.003  0.003
   34  0.000  0.000  0.002  0.002
   35  0.000  0.000  0.002  0.002
   36  0.000  0.000  0.001  0.001
tot    0.108  0.015  0.688  0.812
 
band     9 # energy   -4.97653590 # occ.  2.00000000
 
ion      s      p      d    tot
    1  0.000  0.000  0.010  0.010
    2  0.000  0.000  0.003  0.003
    3  0.001  0.001  0.006  0.008
    4  0.001  0.000  0.006  0.007
    5  0.000  0.000  0.001  0.001
    6  0.001  0.001  0.006  0.008
    7  0.001  0.000  0.006  0.007
    8  0.000  0.000  0.003  0.003
    9  0.000  0.000  0.005  0.005
   10  0.008  0.001  0.062  0.070
   11  0.002  0.001  0.018  0.021
   12  0.031  0.001  0.019  0.050
   13  0.007  0.000  0.044  0.051
   14  0.002  0.001  0.018  0.021
   15  0.002  0.000  0.088  0.091
   16  0.007  0.001  0.062  0.070
   17  0.009  0.000  0.011  0.021
   18  0.002  0.000  0.088  0.091
   19  0.002  0.001  0.021  0.024
   20  0.003  0.000  0.026  0.030
   21  0.013  0.001  0.007  0.021
   22  0.000  0.000  0.021  0.022
   23  0.003  0.000  0.026  0.030
   24  0.000  0.000  0.032  0.032
   25  0.002  0.001  0.021  0.024
   26  0.008  0.001  0.024  0.033
   27  0.000  0.000  0.032  0.032
   28  0.000  0.000  0.005  0.006
   29  0.001  0.000  0.003  0.004
   30  0.000  0.000  0.002  0.002
   31  0.001  0.000  0.002  0.002
   32  0.000  0.000  0.002  0.002
   33  0.001  0.000  0.002  0.002
   34  0.001  0.000  0.003  0.004
   35  0.000  0.000  0.002  0.002
   36  0.000  0.000  0.001  0.001
tot    0.108  0.015  0.688  0.812
 
band    10 # energy   -4.94678235 # occ.  2.00000000
 
ion      s      p      d    tot
    1  0.000  0.000  0.008  0.009
    2  0.001  0.000  0.011  0.012
    3  0.001  0.000  0.011  0.012
    4  0.001  0.000  0.011  0.012
    5  0.000  0.000  0.002  0.002
    6  0.001  0.000  0.011  0.012
    7  0.001  0.000  0.011  0.012
    8  0.001  0.000  0.011  0.012
    9  0.008  0.000  0.005  0.013
   10  0.003  0.000  0.016  0.019
   11  0.000  0.000  0.042  0.042
   12  0.003  0.000  0.016  0.019
   13  0.000  0.000  0.042  0.042
   14  0.000  0.000  0.042  0.042
   15  0.000  0.000  0.029  0.030
   16  0.003  0.000  0.016  0.019
   17  0.000  0.000  0.029  0.030
   18  0.000  0.000  0.029  0.030
   19  0.003  0.000  0.005  0.009
   20  0.001  0.000  0.038  0.039
   21  0.002  0.000  0.038  0.039
   22  0.004  0.000  0.072  0.076
   23  0.002  0.000  0.038  0.039
   24  0.004  0.000  0.072  0.076
   25  0.003  0.000  0.005  0.009
   26  0.004  0.000  0.005  0.009
   27  0.004  0.000  0.072  0.076
   28  0.008  0.001  0.000  0.009
   29  0.002  0.000  0.009  0.011
   30  0.002  0.000  0.009  0.011
   31  0.002  0.000  0.009  0.011
   32  0.002  0.000  0.009  0.011
   33  0.002  0.000  0.009  0.011
   34  0.002  0.000  0.009  0.011
   35  0.001  0.000  0.027  0.028
   36  0.000  0.000  0.000  0.000
tot    0.065  0.007  0.768  0.840
 
band    11 # energy   -4.93438646 # occ.  2.00000000
 
ion      s      p      d    tot
    1  0.000  0.000  0.011  0.011
    2  0.004  0.000  0.007  0.011
    3  0.000  0.000  0.009  0.010
    4  0.002  0.000  0.008  0.010
    5  0.000  0.000  0.005  0.006
    6  0.002  0.001  0.007  0.010
    7  0.000  0.000  0.010  0.010
    8  0.004  0.001  0.006  0.011
    9  0.000  0.000  0.021  0.021
   10  0.003  0.000  0.029  0.032
   11  0.003  0.000  0.029  0.032
   12  0.000  0.000  0.027  0.027
   13  0.001  0.000  0.043  0.044
   14  0.006  0.000  0.010  0.016
   15  0.000  0.000  0.032  0.033
   16  0.001  0.000  0.028  0.029
   17  0.000  0.000  0.032  0.032
   18  0.001  0.000  0.032  0.033
   19  0.007  0.000  0.058  0.065
   20  0.001  0.000  0.032  0.033
   21  0.000  0.000  0.028  0.028
   22  0.001  0.000  0.037  0.038
   23  0.000  0.000  0.029  0.030
   24  0.009  0.000  0.035  0.044
   25  0.014  0.000  0.007  0.022
   26  0.001  0.000  0.094  0.095
   27  0.004  0.000  0.036  0.041
   28  0.000  0.000  0.007  0.008
   29  0.000  0.000  0.007  0.007
   30  0.002  0.001  0.004  0.007
   31  0.001  0.000  0.004  0.005
   32  0.001  0.001  0.008  0.009
   33  0.002  0.001  0.003  0.005
   34  0.000  0.000  0.009  0.009
   35  0.000  0.000  0.010  0.010
   36  0.000  0.000  0.001  0.001
tot    0.072  0.009  0.755  0.836
 
band    12 # energy   -4.93435633 # occ.  2.00000000
 
ion      s      p      d    tot
    1  0.000  0.000  0.011  0.011
    2  0.000  0.000  0.009  0.010
    3  0.004  0.000  0.007  0.011
    4  0.002  0.001  0.008  0.010
    5  0.000  0.000  0.005  0.006
    6  0.002  0.000  0.008  0.010
    7  0.004  0.001  0.006  0.011
    8  0.000  0.000  0.009  0.010
    9  0.000  0.000  0.021  0.021
   10  0.000  0.000  0.026  0.027
   11  0.004  0.000  0.026  0.029
   12  0.003  0.000  0.029  0.032
   13  0.006  0.000  0.012  0.018
   14  0.000  0.000  0.045  0.045
   15  0.000  0.000  0.032  0.033
   16  0.002  0.000  0.028  0.030
   17  0.001  0.000  0.032  0.033
   18  0.000  0.000  0.032  0.032
   19  0.008  0.000  0.048  0.057
   20  0.000  0.000  0.028  0.028
   21  0.001  0.000  0.032  0.033
   22  0.009  0.000  0.035  0.044
   23  0.000  0.000  0.030  0.030
   24  0.000  0.000  0.037  0.038
   25  0.001  0.000  0.099  0.100
   26  0.014  0.000  0.012  0.026
   27  0.005  0.000  0.036  0.041
   28  0.000  0.000  0.007  0.008
   29  0.002  0.001  0.005  0.007
   30  0.000  0.000  0.007  0.007
   31  0.001  0.001  0.007  0.009
   32  0.001  0.000  0.004  0.005
   33  0.000  0.000  0.009  0.009
   34  0.002  0.000  0.003  0.005
   35  0.000  0.000  0.010  0.010
   36  0.000  0.000  0.001  0.001
tot    0.072  0.009  0.756  0.836
 
band    13 # energy   -4.92516798 # occ.  2.00000000
 
ion      s      p      d    tot
    1  0.000  0.000  0.016  0.016
    2  0.003  0.000  0.008  0.011
    3  0.000  0.000  0.008  0.009
    4  0.002  0.000  0.009  0.011
    5  0.000  0.000  0.020  0.020
    6  0.002  0.000  0.006  0.009
    7  0.000  0.000  0.009  0.009
    8  0.003  0.000  0.006  0.009
    9  0.000  0.000  0.002  0.002
   10  0.000  0.000  0.058  0.058
   11  0.000  0.000  0.038  0.039
   12  0.002  0.000  0.020  0.022
   13  0.000  0.000  0.042  0.043
   14  0.000  0.000  0.026  0.026
   15  0.001  0.000  0.021  0.022
   16  0.002  0.000  0.029  0.031
   17  0.001  0.000  0.022  0.023
   18  0.000  0.000  0.019  0.019
   19  0.003  0.000  0.033  0.036
   20  0.000  0.000  0.094  0.094
   21  0.012  0.000  0.027  0.039
   22  0.003  0.000  0.026  0.029
   23  0.010  0.000  0.043  0.052
   24  0.000  0.000  0.070  0.070
   25  0.000  0.001  0.010  0.011
   26  0.004  0.000  0.041  0.045
   27  0.002  0.000  0.036  0.038
   28  0.000  0.000  0.007  0.007
   29  0.000  0.000  0.006  0.006
   30  0.002  0.000  0.003  0.006
   31  0.000  0.000  0.005  0.005
   32  0.001  0.001  0.007  0.008
   33  0.002  0.000  0.003  0.005
   34  0.001  0.000  0.007  0.008
   35  0.000  0.000  0.003  0.003
   36  0.000  0.000  0.002  0.003
tot    0.055  0.007  0.784  0.846
 
band    14 # energy   -4.92513253 # occ.  2.00000000
 
ion      s      p      d    tot
    1  0.000  0.000  0.016  0.016
    2  0.000  0.000  0.008  0.008
    3  0.003  0.000  0.007  0.011
    4  0.001  0.000  0.007  0.008
    5  0.000  0.000  0.020  0.020
    6  0.001  0.000  0.009  0.011
    7  0.003  0.000  0.007  0.010
    8  0.001  0.000  0.009  0.010
    9  0.000  0.000  0.002  0.002
   10  0.002  0.001  0.013  0.016
   11  0.000  0.000  0.033  0.033
   12  0.000  0.000  0.052  0.052
   13  0.000  0.000  0.029  0.029
   14  0.000  0.000  0.045  0.045
   15  0.001  0.000  0.020  0.021
   16  0.001  0.000  0.042  0.043
   17  0.000  0.000  0.019  0.020
   18  0.001  0.000  0.022  0.024
   19  0.002  0.000  0.024  0.025
   20  0.015  0.000  0.015  0.030
   21  0.002  0.000  0.082  0.085
   22  0.001  0.000  0.062  0.063
   23  0.005  0.000  0.067  0.072
   24  0.004  0.000  0.018  0.021
   25  0.004  0.000  0.045  0.050
   26  0.001  0.000  0.016  0.017
   27  0.001  0.000  0.052  0.053
   28  0.000  0.000  0.007  0.007
   29  0.002  0.001  0.004  0.007
   30  0.000  0.000  0.007  0.007
   31  0.002  0.001  0.005  0.008
   32  0.001  0.000  0.003  0.004
   33  0.000  0.000  0.007  0.008
   34  0.001  0.000  0.003  0.004
   35  0.000  0.000  0.003  0.003
   36  0.000  0.000  0.002  0.003
tot    0.055  0.007  0.784  0.846
 
band    15 # energy   -4.92239867 # occ.  2.00000000
 
ion      s      p      d    tot
    1  0.008  0.000  0.003  0.011
    2  0.000  0.000  0.012  0.012
    3  0.000  0.000  0.012  0.012
    4  0.000  0.000  0.012  0.012
    5  0.003  0.001  0.002  0.006
    6  0.000  0.000  0.012  0.013
    7  0.000  0.000  0.012  0.012
    8  0.000  0.000  0.012  0.012
    9  0.000  0.000  0.003  0.004
   10  0.001  0.000  0.029  0.030
   11  0.001  0.000  0.020  0.022
   12  0.001  0.000  0.029  0.030
   13  0.001  0.000  0.020  0.022
   14  0.001  0.000  0.020  0.022
   15  0.000  0.000  0.026  0.026
   16  0.001  0.000  0.029  0.030
   17  0.000  0.000  0.026  0.026
   18  0.000  0.000  0.026  0.026
   19  0.000  0.000  0.081  0.081
   20  0.008  0.000  0.037  0.044
   21  0.008  0.000  0.036  0.044
   22  0.007  0.001  0.008  0.015
   23  0.008  0.000  0.036  0.044
   24  0.007  0.001  0.008  0.016
   25  0.000  0.000  0.082  0.082
   26  0.000  0.000  0.080  0.081
   27  0.007  0.001  0.008  0.016
   28  0.002  0.000  0.017  0.019
   29  0.001  0.000  0.008  0.009
   30  0.001  0.000  0.008  0.009
   31  0.001  0.000  0.008  0.009
   32  0.001  0.000  0.008  0.009
   33  0.001  0.000  0.008  0.009
   34  0.001  0.000  0.008  0.009
   35  0.002  0.001  0.001  0.004
   36  0.004  0.001  0.001  0.006
tot    0.076  0.009  0.752  0.837
 
band    16 # energy   -4.88560503 # occ.  2.00000000
 
ion      s      p      d    tot
    1  0.002  0.000  0.002  0.004
    2  0.002  0.000  0.010  0.012
    3  0.002  0.000  0.010  0.012
    4  0.002  0.000  0.010  0.012
    5  0.006  0.000  0.011  0.017
    6  0.002  0.000  0.010  0.012
    7  0.002  0.000  0.010  0.012
    8  0.002  0.000  0.010  0.012
    9  0.000  0.000  0.009  0.010
   10  0.000  0.000  0.007  0.007
   11  0.001  0.000  0.020  0.021
   12  0.000  0.000  0.007  0.007
   13  0.001  0.000  0.020  0.021
   14  0.001  0.000  0.020  0.021
   15  0.004  0.000  0.007  0.011
   16  0.000  0.000  0.007  0.007
   17  0.004  0.000  0.007  0.011
   18  0.004  0.000  0.007  0.011
   19  0.002  0.000  0.020  0.023
   20  0.001  0.001  0.022  0.024
   21  0.001  0.001  0.022  0.024
   22  0.000  0.001  0.021  0.022
   23  0.001  0.001  0.022  0.024
   24  0.000  0.001  0.021  0.022
   25  0.002  0.000  0.020  0.023
   26  0.002  0.000  0.020  0.023
   27  0.000  0.001  0.021  0.022
   28  0.010  0.000  0.038  0.048
   29  0.014  0.000  0.027  0.041
   30  0.014  0.000  0.027  0.041
   31  0.014  0.000  0.027  0.041
   32  0.014  0.000  0.027  0.041
   33  0.014  0.000  0.027  0.041
   34  0.014  0.000  0.027  0.041
   35  0.024  0.000  0.023  0.047
   36  0.009  0.000  0.006  0.015
tot    0.167  0.009  0.604  0.780
 
band    17 # energy   -4.76969120 # occ.  2.00000000
 
ion      s      p      d    tot
    1  0.000  0.001  0.019  0.020
    2  0.000  0.000  0.012  0.012
    3  0.001  0.001  0.009  0.011
    4  0.001  0.000  0.005  0.007
    5  0.000  0.000  0.004  0.004
    6  0.002  0.001  0.007  0.010
    7  0.001  0.000  0.006  0.007
    8  0.000  0.000  0.011  0.011
    9  0.000  0.000  0.009  0.009
   10  0.002  0.000  0.051  0.052
   11  0.001  0.001  0.030  0.032
   12  0.000  0.000  0.053  0.054
   13  0.000  0.000  0.001  0.001
   14  0.001  0.001  0.023  0.024
   15  0.001  0.000  0.035  0.036
   16  0.002  0.000  0.049  0.052
   17  0.000  0.000  0.078  0.078
   18  0.001  0.000  0.045  0.046
   19  0.000  0.000  0.031  0.032
   20  0.001  0.001  0.017  0.018
   21  0.000  0.000  0.006  0.006
   22  0.000  0.000  0.046  0.046
   23  0.001  0.001  0.019  0.021
   24  0.002  0.000  0.048  0.050
   25  0.000  0.000  0.040  0.040
   26  0.000  0.000  0.070  0.070
   27  0.003  0.000  0.049  0.052
   28  0.000  0.000  0.006  0.006
   29  0.000  0.000  0.008  0.008
   30  0.000  0.000  0.005  0.006
   31  0.001  0.001  0.004  0.006
   32  0.001  0.000  0.004  0.005
   33  0.001  0.001  0.005  0.007
   34  0.000  0.000  0.008  0.008
   35  0.000  0.001  0.018  0.019
   36  0.000  0.000  0.000  0.000
tot    0.022  0.015  0.829  0.866
 
band    18 # energy   -4.76967403 # occ.  2.00000000
 
ion      s      p      d    tot
    1  0.000  0.001  0.019  0.020
    2  0.002  0.001  0.005  0.008
    3  0.000  0.000  0.008  0.008
    4  0.001  0.001  0.011  0.012
    5  0.000  0.000  0.004  0.004
    6  0.000  0.000  0.009  0.009
    7  0.001  0.001  0.011  0.012
    8  0.002  0.001  0.006  0.008
    9  0.000  0.000  0.009  0.009
   10  0.001  0.000  0.052  0.053
   11  0.000  0.000  0.007  0.007
   12  0.003  0.000  0.049  0.051
   13  0.001  0.001  0.035  0.037
   14  0.000  0.000  0.012  0.013
   15  0.000  0.000  0.070  0.070
   16  0.000  0.000  0.053  0.053
   17  0.001  0.000  0.027  0.028
   18  0.000  0.000  0.061  0.061
   19  0.000  0.000  0.062  0.063
   20  0.000  0.000  0.011  0.012
   21  0.001  0.001  0.022  0.024
   22  0.003  0.000  0.050  0.053
   23  0.000  0.000  0.008  0.009
   24  0.001  0.000  0.047  0.048
   25  0.000  0.000  0.054  0.055
   26  0.000  0.000  0.024  0.025
   27  0.001  0.000  0.046  0.047
   28  0.000  0.000  0.006  0.006
   29  0.001  0.001  0.004  0.005
   30  0.001  0.001  0.006  0.008
   31  0.000  0.000  0.007  0.007
   32  0.001  0.000  0.007  0.008
   33  0.000  0.000  0.006  0.007
   34  0.001  0.000  0.004  0.005
   35  0.000  0.001  0.018  0.019
   36  0.000  0.000  0.000  0.000
tot    0.022  0.015  0.829  0.866
 
band    19 # energy   -4.76838653 # occ.  2.00000000
 
ion      s      p      d    tot
    1  0.001  0.001  0.012  0.013
    2  0.000  0.000  0.009  0.010
    3  0.000  0.000  0.009  0.009
    4  0.000  0.000  0.009  0.010
    5  0.003  0.001  0.003  0.007
    6  0.000  0.000  0.009  0.010
    7  0.000  0.000  0.009  0.010
    8  0.000  0.000  0.009  0.010
    9  0.000  0.000  0.005  0.006
   10  0.001  0.001  0.067  0.069
   11  0.000  0.000  0.024  0.025
   12  0.001  0.001  0.066  0.068
   13  0.000  0.000  0.025  0.025
   14  0.000  0.000  0.025  0.025
   15  0.001  0.000  0.037  0.038
   16  0.001  0.001  0.066  0.068
   17  0.001  0.000  0.036  0.037
   18  0.001  0.000  0.036  0.037
   19  0.002  0.001  0.042  0.044
   20  0.001  0.000  0.016  0.017
   21  0.001  0.000  0.015  0.016
   22  0.000  0.000  0.046  0.047
   23  0.001  0.000  0.015  0.016
   24  0.000  0.000  0.046  0.047
   25  0.002  0.001  0.041  0.043
   26  0.002  0.001  0.041  0.044
   27  0.000  0.000  0.046  0.047
   28  0.000  0.000  0.003  0.003
   29  0.000  0.000  0.008  0.008
   30  0.000  0.000  0.008  0.008
   31  0.000  0.000  0.008  0.008
   32  0.000  0.000  0.008  0.008
   33  0.000  0.000  0.008  0.008
   34  0.000  0.000  0.008  0.008
   35  0.001  0.001  0.008  0.010
   36  0.002  0.000  0.000  0.003
tot    0.024  0.015  0.825  0.864
 
band    20 # energy   -4.76134548 # occ.  2.00000000
 
ion      s      p      d    tot
    1  0.004  0.001  0.000  0.005
    2  0.000  0.001  0.013  0.013
    3  0.000  0.001  0.013  0.013
    4  0.000  0.001  0.013  0.013
    5  0.000  0.000  0.012  0.013
    6  0.000  0.001  0.013  0.013
    7  0.000  0.001  0.013  0.013
    8  0.000  0.001  0.013  0.013
    9  0.004  0.001  0.006  0.011
   10  0.001  0.000  0.020  0.022
   11  0.001  0.000  0.047  0.048
   12  0.001  0.000  0.021  0.022
   13  0.001  0.000  0.046  0.047
   14  0.001  0.000  0.046  0.048
   15  0.000  0.001  0.051  0.052
   16  0.001  0.000  0.021  0.022
   17  0.000  0.001  0.052  0.053
   18  0.000  0.001  0.052  0.052
   19  0.000  0.000  0.032  0.033
   20  0.000  0.001  0.051  0.052
   21  0.000  0.001  0.051  0.052
   22  0.001  0.000  0.023  0.025
   23  0.000  0.001  0.051  0.052
   24  0.001  0.000  0.024  0.025
   25  0.000  0.000  0.033  0.033
   26  0.000  0.000  0.033  0.034
   27  0.001  0.000  0.024  0.025
   28  0.006  0.001  0.000  0.007
   29  0.000  0.000  0.007  0.008
   30  0.000  0.000  0.007  0.008
   31  0.000  0.000  0.007  0.008
   32  0.000  0.000  0.007  0.008
   33  0.000  0.000  0.007  0.008
   34  0.000  0.000  0.007  0.008
   35  0.000  0.000  0.002  0.002
   36  0.000  0.001  0.003  0.004
tot    0.028  0.015  0.821  0.864
 
band    21 # energy   -4.75994383 # occ.  2.00000000
 
ion      s      p      d    tot
    1  0.000  0.000  0.001  0.001
    2  0.000  0.000  0.012  0.013
    3  0.002  0.001  0.009  0.011
    4  0.001  0.000  0.005  0.007
    5  0.000  0.001  0.016  0.017
    6  0.002  0.001  0.007  0.010
    7  0.001  0.000  0.007  0.008
    8  0.000  0.000  0.011  0.011
    9  0.000  0.001  0.015  0.015
   10  0.000  0.001  0.032  0.033
   11  0.000  0.000  0.088  0.088
   12  0.000  0.001  0.023  0.025
   13  0.002  0.000  0.037  0.039
   14  0.001  0.000  0.073  0.074
   15  0.000  0.000  0.021  0.022
   16  0.000  0.000  0.036  0.036
   17  0.002  0.001  0.052  0.055
   18  0.001  0.000  0.030  0.032
   19  0.000  0.000  0.013  0.013
   20  0.001  0.000  0.051  0.052
   21  0.003  0.000  0.031  0.033
   22  0.000  0.001  0.018  0.019
   23  0.000  0.000  0.059  0.060
   24  0.000  0.000  0.032  0.032
   25  0.001  0.000  0.021  0.023
   26  0.003  0.001  0.040  0.045
   27  0.000  0.000  0.038  0.038
   28  0.000  0.000  0.011  0.012
   29  0.000  0.000  0.007  0.007
   30  0.000  0.000  0.005  0.005
   31  0.001  0.001  0.004  0.006
   32  0.001  0.000  0.004  0.005
   33  0.001  0.001  0.005  0.006
   34  0.000  0.000  0.007  0.008
   35  0.000  0.000  0.001  0.001
   36  0.000  0.001  0.003  0.003
tot    0.024  0.015  0.824  0.864
 
band    22 # energy   -4.75993210 # occ.  2.00000000
 
ion      s      p      d    tot
    1  0.000  0.000  0.001  0.001
    2  0.002  0.001  0.005  0.007
    3  0.000  0.000  0.008  0.009
    4  0.001  0.001  0.012  0.013
    5  0.000  0.001  0.016  0.017
    6  0.000  0.000  0.010  0.010
    7  0.001  0.001  0.010  0.012
    8  0.002  0.001  0.006  0.008
    9  0.000  0.001  0.015  0.015
   10  0.000  0.001  0.029  0.029
   11  0.001  0.000  0.044  0.046
   12  0.000  0.000  0.038  0.038
   13  0.000  0.000  0.095  0.095
   14  0.001  0.000  0.059  0.060
   15  0.002  0.001  0.048  0.051
   16  0.000  0.001  0.025  0.026