PROCAR new format
# of k-points:   10         # of bands:  252         # of ions:   36

 k-point     1 :    0.00000000 0.00000000 0.00000000     weight = 0.01562500

band     1 # energy   -6.29998169 # occ.  2.00000000
 
ion      s      p      d    tot
    1  0.006  0.001  0.000  0.007
    2  0.006  0.001  0.000  0.006
    3  0.006  0.001  0.000  0.006
    4  0.006  0.001  0.000  0.006
    5  0.006  0.001  0.000  0.006
    6  0.006  0.001  0.000  0.006
    7  0.006  0.001  0.000  0.006
    8  0.006  0.001  0.000  0.006
    9  0.006  0.001  0.000  0.006
   10  0.023  0.000  0.000  0.024
   11  0.024  0.000  0.000  0.024
   12  0.023  0.000  0.000  0.024
   13  0.024  0.000  0.000  0.024
   14  0.024  0.000  0.000  0.024
   15  0.023  0.000  0.000  0.023
   16  0.023  0.000  0.000  0.024
   17  0.023  0.000  0.000  0.023
   18  0.023  0.000  0.000  0.023
   19  0.023  0.000  0.000  0.023
   20  0.024  0.000  0.000  0.025
   21  0.024  0.000  0.000  0.025
   22  0.023  0.000  0.000  0.023
   23  0.024  0.000  0.000  0.025
   24  0.023  0.000  0.000  0.023
   25  0.023  0.000  0.000  0.023
   26  0.023  0.000  0.000  0.023
   27  0.023  0.000  0.000  0.023
   28  0.006  0.001  0.000  0.006
   29  0.006  0.001  0.000  0.006
   30  0.006  0.001  0.000  0.006
   31  0.006  0.001  0.000  0.006
   32  0.006  0.001  0.000  0.006
   33  0.006  0.001  0.000  0.006
   34  0.006  0.001  0.000  0.006
   35  0.006  0.001  0.000  0.006
   36  0.008  0.001  0.000  0.009
tot    0.526  0.013  0.006  0.545
 
band     2 # energy   -5.43288175 # occ.  2.00000000
 
ion      s      p      d    tot
    1  0.008  0.000  0.000  0.009
    2  0.008  0.000  0.000  0.009
    3  0.008  0.000  0.000  0.009
    4  0.008  0.000  0.000  0.009
    5  0.008  0.000  0.000  0.009
    6  0.008  0.000  0.000  0.009
    7  0.008  0.000  0.000  0.009
    8  0.008  0.000  0.000  0.009
    9  0.008  0.000  0.000  0.009
   10  0.011  0.001  0.015  0.028
   11  0.011  0.001  0.014  0.027
   12  0.011  0.001  0.015  0.028
   13  0.011  0.001  0.014  0.027
   14  0.011  0.001  0.014  0.027
   15  0.011  0.001  0.013  0.025
   16  0.011  0.001  0.015  0.028
   17  0.011  0.001  0.013  0.025
   18  0.011  0.001  0.013  0.025
   19  0.012  0.001  0.015  0.028
   20  0.012  0.001  0.019  0.033
   21  0.012  0.001  0.019  0.033
   22  0.011  0.001  0.014  0.026
   23  0.012  0.001  0.019  0.033
   24  0.011  0.001  0.014  0.026
   25  0.012  0.001  0.015  0.028
   26  0.012  0.001  0.015  0.028
   27  0.011  0.001  0.014  0.026
   28  0.008  0.000  0.000  0.008
   29  0.007  0.000  0.000  0.008
   30  0.007  0.000  0.000  0.008
   31  0.007  0.000  0.000  0.008
   32  0.007  0.000  0.000  0.008
   33  0.007  0.000  0.000  0.008
   34  0.007  0.000  0.000  0.008
   35  0.007  0.000  0.000  0.008
   36  0.009  0.001  0.000  0.010
tot    0.347  0.025  0.280  0.652
 
band     3 # energy   -5.15485618 # occ.  2.00000000
 
ion      s      p      d    tot
    1  0.011  0.000  0.021  0.031
    2  0.012  0.000  0.018  0.030
    3  0.012  0.000  0.018  0.030
    4  0.012  0.000  0.018  0.030
    5  0.012  0.000  0.017  0.029
    6  0.012  0.000  0.018  0.030
    7  0.012  0.000  0.018  0.030
    8  0.012  0.000  0.018  0.030
    9  0.013  0.000  0.017  0.030
   10  0.001  0.000  0.019  0.020
   11  0.000  0.000  0.019  0.020
   12  0.001  0.000  0.019  0.020
   13  0.000  0.000  0.019  0.020
   14  0.000  0.000  0.019  0.020
   15  0.000  0.000  0.017  0.017
   16  0.001  0.000  0.019  0.020
   17  0.000  0.000  0.017  0.017
   18  0.000  0.000  0.017  0.017
   19  0.000  0.000  0.013  0.013
   20  0.000  0.000  0.020  0.020
   21  0.000  0.000  0.020  0.020
   22  0.000  0.000  0.013  0.014
   23  0.000  0.000  0.020  0.020
   24  0.000  0.000  0.013  0.014
   25  0.000  0.000  0.013  0.013
   26  0.000  0.000  0.013  0.013
   27  0.000  0.000  0.013  0.014
   28  0.008  0.000  0.012  0.021
   29  0.009  0.000  0.013  0.022
   30  0.009  0.000  0.013  0.022
   31  0.009  0.000  0.013  0.022
   32  0.009  0.000  0.013  0.022
   33  0.009  0.000  0.013  0.022
   34  0.009  0.000  0.013  0.022
   35  0.009  0.000  0.013  0.022
   36  0.011  0.000  0.002  0.014
tot    0.193  0.005  0.571  0.769
 
band     4 # energy   -5.04182365 # occ.  2.00000000
 
ion      s      p      d    tot
    1  0.008  0.001  0.001  0.010
    2  0.000  0.000  0.005  0.006
    3  0.000  0.000  0.005  0.006
    4  0.000  0.000  0.005  0.006
    5  0.000  0.000  0.003  0.003
    6  0.000  0.000  0.005  0.006
    7  0.000  0.000  0.005  0.006
    8  0.000  0.000  0.005  0.006
    9  0.000  0.000  0.003  0.003
   10  0.006  0.000  0.040  0.046
   11  0.000  0.000  0.024  0.025
   12  0.006  0.000  0.040  0.046
   13  0.000  0.000  0.024  0.025
   14  0.000  0.000  0.024  0.025
   15  0.009  0.001  0.004  0.014
   16  0.006  0.000  0.040  0.046
   17  0.009  0.001  0.004  0.014
   18  0.009  0.001  0.004  0.014
   19  0.001  0.001  0.028  0.030
   20  0.005  0.000  0.087  0.092
   21  0.005  0.000  0.087  0.092
   22  0.016  0.001  0.011  0.028
   23  0.005  0.000  0.087  0.092
   24  0.016  0.001  0.011  0.028
   25  0.001  0.001  0.028  0.030
   26  0.001  0.001  0.028  0.030
   27  0.016  0.001  0.011  0.028
   28  0.000  0.000  0.002  0.002
   29  0.000  0.000  0.005  0.006
   30  0.000  0.000  0.005  0.006
   31  0.000  0.000  0.005  0.006
   32  0.000  0.000  0.005  0.006
   33  0.000  0.000  0.005  0.006
   34  0.000  0.000  0.005  0.006
   35  0.003  0.001  0.004  0.008
   36  0.007  0.002  0.002  0.011
tot    0.130  0.016  0.664  0.811
 
band     5 # energy   -5.02372157 # occ.  2.00000000
 
ion      s      p      d    tot
    1  0.000  0.000  0.007  0.007
    2  0.001  0.000  0.003  0.005
    3  0.000  0.000  0.003  0.003
    4  0.001  0.000  0.003  0.005
    5  0.000  0.000  0.002  0.002
    6  0.000  0.000  0.002  0.003
    7  0.000  0.000  0.003  0.003
    8  0.001  0.000  0.002  0.003
    9  0.000  0.000  0.005  0.005
   10  0.010  0.001  0.027  0.038
   11  0.000  0.000  0.034  0.034
   12  0.002  0.001  0.020  0.023
   13  0.000  0.000  0.035  0.036
   14  0.000  0.000  0.022  0.022
   15  0.004  0.000  0.028  0.033
   16  0.003  0.001  0.021  0.025
   17  0.003  0.000  0.031  0.034
   18  0.013  0.001  0.008  0.022
   19  0.008  0.001  0.045  0.054
   20  0.011  0.001  0.014  0.025
   21  0.002  0.000  0.103  0.105
   22  0.001  0.001  0.021  0.023
   23  0.003  0.000  0.093  0.097
   24  0.003  0.000  0.037  0.041
   25  0.027  0.001  0.023  0.051
   26  0.006  0.001  0.048  0.054
   27  0.001  0.001  0.022  0.025
   28  0.000  0.000  0.007  0.007
   29  0.000  0.000  0.002  0.002
   30  0.001  0.001  0.006  0.007
   31  0.000  0.000  0.002  0.002
   32  0.000  0.000  0.005  0.006
   33  0.001  0.000  0.006  0.007
   34  0.000  0.000  0.005  0.005
   35  0.000  0.000  0.001  0.001
   36  0.000  0.000  0.001  0.002
tot    0.104  0.014  0.697  0.815
 
band     6 # energy   -5.02371807 # occ.  2.00000000
 
ion      s      p      d    tot
    1  0.000  0.000  0.007  0.007
    2  0.000  0.000  0.002  0.002
    3  0.001  0.000  0.003  0.004
    4  0.000  0.000  0.002  0.002
    5  0.000  0.000  0.002  0.002
    6  0.001  0.000  0.003  0.004
    7  0.001  0.000  0.003  0.004
    8  0.000  0.000  0.003  0.004
    9  0.000  0.000  0.005  0.005
   10  0.000  0.001  0.018  0.019
   11  0.000  0.000  0.027  0.027
   12  0.008  0.001  0.025  0.034
   13  0.000  0.000  0.025  0.026
   14  0.000  0.000  0.039  0.039
   15  0.009  0.001  0.017  0.027
   16  0.007  0.001  0.024  0.032
   17  0.010  0.001  0.014  0.025
   18  0.000  0.000  0.037  0.037
   19  0.019  0.001  0.032  0.052
   20  0.000  0.000  0.126  0.126
   21  0.009  0.000  0.037  0.046
   22  0.003  0.000  0.033  0.036
   23  0.008  0.000  0.047  0.055
   24  0.000  0.002  0.016  0.018
   25  0.000  0.001  0.054  0.055
   26  0.022  0.001  0.030  0.052
   27  0.002  0.001  0.031  0.034
   28  0.000  0.000  0.007  0.007
   29  0.001  0.000  0.007  0.008
   30  0.000  0.000  0.002  0.002
   31  0.001  0.000  0.007  0.008
   32  0.000  0.000  0.003  0.004
   33  0.000  0.000  0.003  0.003
   34  0.001  0.000  0.004  0.005
   35  0.000  0.000  0.001  0.001
   36  0.000  0.000  0.001  0.002
tot    0.104  0.014  0.697  0.815
 
band     7 # energy   -5.01876141 # occ.  2.00000000
 
ion      s      p      d    tot
    1  0.001  0.000  0.000  0.001
    2  0.000  0.000  0.005  0.005
    3  0.000  0.000  0.005  0.005
    4  0.000  0.000  0.005  0.005
    5  0.002  0.001  0.006  0.009
    6  0.000  0.000  0.005  0.005
    7  0.000  0.000  0.005  0.005
    8  0.000  0.000  0.005  0.005
    9  0.001  0.000  0.002  0.004
   10  0.007  0.001  0.007  0.014
   11  0.014  0.001  0.045  0.059
   12  0.007  0.001  0.007  0.014
   13  0.014  0.001  0.045  0.059
   14  0.014  0.001  0.045  0.059
   15  0.001  0.000  0.054  0.055
   16  0.007  0.001  0.007  0.014
   17  0.001  0.000  0.054  0.055
   18  0.001  0.000  0.054  0.055
   19  0.009  0.000  0.039  0.048
   20  0.008  0.001  0.018  0.027
   21  0.008  0.001  0.018  0.027
   22  0.000  0.000  0.034  0.034
   23  0.008  0.001  0.018  0.027
   24  0.000  0.000  0.033  0.034
   25  0.009  0.000  0.038  0.048
   26  0.009  0.000  0.039  0.048
   27  0.000  0.000  0.034  0.034
   28  0.003  0.001  0.002  0.006
   29  0.000  0.000  0.005  0.006
   30  0.000  0.000  0.005  0.006
   31  0.000  0.000  0.005  0.006
   32  0.000  0.000  0.005  0.006
   33  0.000  0.000  0.005  0.006
   34  0.000  0.000  0.005  0.006
   35  0.001  0.000  0.002  0.003
   36  0.000  0.000  0.000  0.000
tot    0.122  0.017  0.663  0.802
 
band     8 # energy   -5.01697400 # occ.  2.00000000
 
ion      s      p      d    tot
    1  0.000  0.000  0.005  0.005
    2  0.002  0.001  0.006  0.009
    3  0.001  0.000  0.003  0.005
    4  0.002  0.001  0.006  0.009
    5  0.000  0.000  0.010  0.010
    6  0.000  0.000  0.004  0.004
    7  0.001  0.000  0.003  0.004
    8  0.000  0.000  0.003  0.004
    9  0.000  0.000  0.001  0.001
   10  0.000  0.000  0.088  0.088
   11  0.024  0.001  0.028  0.053
   12  0.007  0.001  0.031  0.039
   13  0.023  0.001  0.030  0.054
   14  0.000  0.001  0.066  0.067
   15  0.004  0.000  0.029  0.034
   16  0.008  0.001  0.027  0.035
   17  0.004  0.001  0.028  0.032
   18  0.000  0.002  0.009  0.011
   19  0.000  0.000  0.022  0.022
   20  0.000  0.001  0.031  0.032
   21  0.014  0.001  0.029  0.043
   22  0.011  0.001  0.019  0.030
   23  0.015  0.001  0.029  0.044
   24  0.000  0.000  0.056  0.056
   25  0.000  0.001  0.022  0.023
   26  0.000  0.000  0.022  0.022
   27  0.011  0.001  0.016  0.028
   28  0.000  0.000  0.000  0.000
   29  0.000  0.000  0.002  0.002
   30  0.001  0.000  0.003  0.004
   31  0.000  0.000  0.002  0.002
   32  0.001  0.000  0.004  0.006
   33  0.001  0.000  0.003  0.005
   34  0.002  0.000  0.005  0.007
   35  0.000  0.000  0.006  0.007
   36  0.000  0.001  0.001  0.002
tot    0.131  0.018  0.651  0.800
 
band     9 # energy   -5.01697060 # occ.  2.00000000
 
ion      s      p      d    tot
    1  0.000  0.000  0.005  0.005
    2  0.000  0.000  0.002  0.003
    3  0.001  0.000  0.005  0.007
    4  0.000  0.000  0.002  0.003
    5  0.000  0.000  0.010  0.010
    6  0.002  0.001  0.005  0.008
    7  0.001  0.000  0.006  0.007
    8  0.002  0.001  0.005  0.008
    9  0.000  0.000  0.001  0.001
   10  0.010  0.001  0.009  0.020
   11  0.007  0.001  0.055  0.063
   12  0.003  0.000  0.066  0.069
   13  0.009  0.001  0.052  0.062
   14  0.031  0.001  0.017  0.049
   15  0.001  0.001  0.015  0.017
   16  0.002  0.000  0.070  0.073
   17  0.001  0.001  0.016  0.019
   18  0.005  0.000  0.035  0.040
   19  0.000  0.001  0.022  0.023
   20  0.019  0.001  0.028  0.047
   21  0.005  0.001  0.030  0.036
   22  0.004  0.000  0.042  0.046
   23  0.004  0.001  0.030  0.036
   24  0.015  0.001  0.005  0.020
   25  0.000  0.000  0.022  0.022
   26  0.000  0.001  0.022  0.023
   27  0.003  0.000  0.045  0.048
   28  0.000  0.000  0.000  0.000
   29  0.002  0.000  0.004  0.007
   30  0.001  0.000  0.004  0.004
   31  0.002  0.000  0.004  0.007
   32  0.000  0.000  0.002  0.003
   33  0.001  0.000  0.003  0.004
   34  0.000  0.000  0.002  0.002
   35  0.000  0.000  0.006  0.007
   36  0.000  0.001  0.001  0.002
tot    0.131  0.018  0.651  0.800
 
band    10 # energy   -4.99875049 # occ.  2.00000000
 
ion      s      p      d    tot
    1  0.000  0.000  0.013  0.013
    2  0.000  0.000  0.008  0.008
    3  0.000  0.000  0.008  0.008
    4  0.000  0.000  0.008  0.008
    5  0.003  0.000  0.002  0.004
    6  0.000  0.000  0.008  0.008
    7  0.000  0.000  0.008  0.008
    8  0.000  0.000  0.008  0.008
    9  0.006  0.001  0.002  0.009
   10  0.002  0.000  0.067  0.069
   11  0.002  0.000  0.040  0.041
   12  0.002  0.000  0.067  0.069
   13  0.002  0.000  0.040  0.041
   14  0.002  0.000  0.040  0.041
   15  0.007  0.000  0.011  0.019
   16  0.002  0.000  0.067  0.069
   17  0.007  0.000  0.011  0.019
   18  0.007  0.000  0.011  0.019
   19  0.002  0.000  0.016  0.018
   20  0.001  0.000  0.050  0.050
   21  0.001  0.000  0.050  0.051
   22  0.002  0.000  0.023  0.026
   23  0.001  0.000  0.050  0.051
   24  0.002  0.000  0.023  0.026
   25  0.002  0.000  0.016  0.018
   26  0.002  0.000  0.016  0.018
   27  0.002  0.000  0.023  0.026
   28  0.008  0.001  0.001  0.010
   29  0.000  0.000  0.012  0.013
   30  0.000  0.000  0.012  0.013
   31  0.000  0.000  0.012  0.013
   32  0.000  0.000  0.012  0.013
   33  0.000  0.000  0.012  0.013
   34  0.000  0.000  0.012  0.013
   35  0.000  0.000  0.006  0.007
   36  0.002  0.000  0.001  0.003
tot    0.068  0.008  0.766  0.841
 
band    11 # energy   -4.98732608 # occ.  2.00000000
 
ion      s      p      d    tot
    1  0.006  0.000  0.017  0.023
    2  0.007  0.000  0.018  0.024
    3  0.007  0.000  0.018  0.024
    4  0.007  0.000  0.018  0.024
    5  0.009  0.000  0.017  0.026
    6  0.007  0.000  0.018  0.024
    7  0.007  0.000  0.018  0.024
    8  0.007  0.000  0.018  0.024
    9  0.005  0.000  0.018  0.023
   10  0.003  0.000  0.007  0.010
   11  0.001  0.000  0.013  0.014
   12  0.003  0.000  0.007  0.010
   13  0.001  0.000  0.013  0.014
   14  0.001  0.000  0.012  0.014
   15  0.001  0.000  0.010  0.011
   16  0.003  0.000  0.007  0.010
   17  0.001  0.000  0.010  0.011
   18  0.001  0.000  0.010  0.011
   19  0.004  0.001  0.012  0.016
   20  0.001  0.001  0.017  0.019
   21  0.001  0.001  0.017  0.019
   22  0.000  0.000  0.015  0.016
   23  0.001  0.001  0.017  0.019
   24  0.000  0.000  0.015  0.016
   25  0.004  0.001  0.012  0.016
   26  0.004  0.001  0.012  0.016
   27  0.000  0.000  0.015  0.016
   28  0.008  0.000  0.026  0.035
   29  0.011  0.000  0.025  0.036
   30  0.011  0.000  0.025  0.036
   31  0.011  0.000  0.025  0.036
   32  0.011  0.000  0.025  0.036
   33  0.011  0.000  0.025  0.036
   34  0.011  0.000  0.025  0.036
   35  0.014  0.000  0.019  0.034
   36  0.012  0.000  0.005  0.016
tot    0.189  0.008  0.578  0.775
 
band    12 # energy   -4.97976565 # occ.  2.00000000
 
ion      s      p      d    tot
    1  0.000  0.000  0.013  0.014
    2  0.002  0.000  0.006  0.008
    3  0.000  0.000  0.010  0.011
    4  0.002  0.000  0.006  0.008
    5  0.000  0.000  0.009  0.009
    6  0.003  0.001  0.007  0.010
    7  0.000  0.000  0.010  0.011
    8  0.003  0.001  0.006  0.010
    9  0.000  0.000  0.007  0.007
   10  0.000  0.000  0.058  0.059
   11  0.000  0.000  0.036  0.036
   12  0.011  0.000  0.033  0.045
   13  0.000  0.000  0.037  0.037
   14  0.000  0.000  0.018  0.019
   15  0.010  0.000  0.031  0.042
   16  0.011  0.000  0.035  0.045
   17  0.011  0.000  0.027  0.038
   18  0.000  0.000  0.101  0.101
   19  0.000  0.000  0.028  0.029
   20  0.000  0.000  0.045  0.045
   21  0.004  0.000  0.019  0.023
   22  0.003  0.000  0.022  0.025
   23  0.003  0.000  0.020  0.024
   24  0.000  0.000  0.025  0.025
   25  0.000  0.000  0.028  0.028
   26  0.000  0.000  0.028  0.029
   27  0.003  0.000  0.022  0.025
   28  0.000  0.000  0.016  0.016
   29  0.001  0.000  0.006  0.008
   30  0.003  0.000  0.005  0.009
   31  0.001  0.000  0.006  0.008
   32  0.001  0.000  0.006  0.007
   33  0.004  0.000  0.005  0.009
   34  0.001  0.000  0.006  0.007
   35  0.000  0.000  0.006  0.006
   36  0.000  0.001  0.001  0.002
tot    0.077  0.010  0.746  0.833
 
band    13 # energy   -4.97975928 # occ.  2.00000000
 
ion      s      p      d    tot
    1  0.000  0.000  0.013  0.014
    2  0.001  0.001  0.009  0.011
    3  0.003  0.001  0.005  0.009
    4  0.001  0.001  0.009  0.011
    5  0.000  0.000  0.009  0.009
    6  0.001  0.000  0.009  0.009
    7  0.003  0.001  0.005  0.009
    8  0.000  0.000  0.009  0.009
    9  0.000  0.000  0.007  0.007
   10  0.015  0.000  0.026  0.041
   11  0.000  0.000  0.025  0.025
   12  0.003  0.000  0.051  0.054
   13  0.000  0.000  0.024  0.024
   14  0.000  0.000  0.043  0.043
   15  0.004  0.000  0.075  0.079
   16  0.004  0.000  0.049  0.054
   17  0.003  0.000  0.080  0.083
   18  0.014  0.000  0.005  0.019
   19  0.000  0.000  0.028  0.028
   20  0.005  0.000  0.011  0.016
   21  0.001  0.000  0.037  0.038
   22  0.001  0.000  0.024  0.025
   23  0.001  0.000  0.035  0.037
   24  0.004  0.000  0.021  0.025
   25  0.000  0.000  0.029  0.029
   26  0.000  0.000  0.028  0.028
   27  0.001  0.000  0.024  0.025
   28  0.000  0.000  0.016  0.016
   29  0.002  0.000  0.005  0.008
   30  0.000  0.000  0.007  0.007
   31  0.002  0.000  0.005  0.008
   32  0.003  0.000  0.005  0.009
   33  0.000  0.000  0.007  0.007
   34  0.003  0.000  0.005  0.009
   35  0.000  0.000  0.006  0.006
   36  0.000  0.001  0.001  0.002
tot    0.077  0.010  0.746  0.833
 
band    14 # energy   -4.97770750 # occ.  2.00000000
 
ion      s      p      d    tot
    1  0.003  0.000  0.000  0.004
    2  0.000  0.000  0.009  0.009
    3  0.000  0.000  0.009  0.009
    4  0.000  0.000  0.009  0.009
    5  0.001  0.000  0.002  0.003
    6  0.000  0.000  0.009  0.009
    7  0.000  0.000  0.009  0.009
    8  0.000  0.000  0.009  0.009
    9  0.002  0.000  0.008  0.010
   10  0.001  0.000  0.026  0.027
   11  0.002  0.000  0.013  0.016
   12  0.001  0.000  0.026  0.027
   13  0.002  0.000  0.013  0.016
   14  0.002  0.000  0.013  0.016
   15  0.000  0.000  0.056  0.057
   16  0.001  0.000  0.026  0.027
   17  0.000  0.000  0.056  0.057
   18  0.001  0.000  0.056  0.057
   19  0.003  0.000  0.050  0.053
   20  0.004  0.000  0.014  0.018
   21  0.004  0.000  0.014  0.018
   22  0.000  0.000  0.057  0.057
   23  0.004  0.000  0.014  0.018
   24  0.000  0.000  0.057  0.057
   25  0.003  0.000  0.049  0.053
   26  0.003  0.000  0.050  0.053
   27  0.000  0.000  0.057  0.057
   28  0.000  0.000  0.008  0.009
   29  0.000  0.000  0.012  0.012
   30  0.000  0.000  0.012  0.012
   31  0.000  0.000  0.012  0.012
   32  0.000  0.000  0.012  0.012
   33  0.000  0.000  0.012  0.012
   34  0.000  0.000  0.012  0.012
   35  0.004  0.000  0.007  0.011
   36  0.003  0.001  0.000  0.005
tot    0.047  0.008  0.795  0.850
 
band    15 # energy   -4.96782012 # occ.  2.00000000
 
ion      s      p      d    tot
    1  0.000  0.000  0.004  0.005
    2  0.002  0.000  0.007  0.009
    3  0.000  0.000  0.009  0.009
    4  0.002  0.000  0.006  0.009
    5  0.000  0.000  0.009  0.009
    6  0.002  0.000  0.005  0.008
    7  0.000  0.000  0.008  0.009
    8  0.001  0.000  0.006  0.008
    9  0.000  0.000  0.017  0.017
   10  0.001  0.000  0.028  0.030
   11  0.001  0.000  0.052  0.053
   12  0.000  0.000  0.021  0.021
   13  0.001  0.000  0.048  0.050
   14  0.005  0.000  0.008  0.013
   15  0.000  0.000  0.032  0.033
   16  0.000  0.000  0.020  0.021
   17  0.000  0.000  0.033  0.033
   18  0.001  0.000  0.037  0.039
   19  0.001  0.000  0.067  0.068
   20  0.001  0.000  0.052  0.053
   21  0.000  0.000  0.021  0.022
   22  0.003  0.000  0.061  0.064
   23  0.000  0.000  0.019  0.019
   24  0.012  0.000  0.022  0.034
   25  0.006  0.000  0.010  0.016
   26  0.002  0.000  0.062  0.064
   27  0.003  0.000  0.064  0.067
   28  0.000  0.000  0.004  0.004
   29  0.000  0.000  0.009  0.009
   30  0.002  0.000  0.003  0.005
   31  0.000  0.000  0.009  0.009
   32  0.001  0.000  0.008  0.009
   33  0.002  0.000  0.003  0.005
   34  0.001  0.000  0.008  0.009
   35  0.000  0.000  0.013  0.013
   36  0.000  0.000  0.001  0.001
tot    0.052  0.007  0.787  0.846
 
band    16 # energy   -4.96780550 # occ.  2.00000000
 
ion      s      p      d    tot
    1  0.000  0.000  0.004  0.005
    2  0.000  0.000  0.007  0.008
    3  0.003  0.000  0.005  0.008
    4  0.000  0.000  0.007  0.008
    5  0.000  0.000  0.009  0.009
    6  0.001  0.000  0.008  0.009
    7  0.003  0.000  0.005  0.008
    8  0.001  0.000  0.008  0.009
    9  0.000  0.000  0.017  0.017
   10  0.000  0.000  0.018  0.018
   11  0.004  0.000  0.020  0.024
   12  0.001  0.000  0.025  0.026
   13  0.004  0.000  0.024  0.028
   14  0.000  0.000  0.064  0.064
   15  0.001  0.000  0.036  0.037
   16  0.001  0.000  0.026  0.027
   17  0.001  0.000  0.035  0.037
   18  0.000  0.000  0.031  0.031
   19  0.005  0.000  0.026  0.031
   20  0.000  0.000  0.009  0.010
   21  0.000  0.000  0.040  0.041
   22  0.008  0.000  0.037  0.046
   23  0.001  0.000  0.043  0.044
   24  0.000  0.000  0.076  0.076
   25  0.000  0.000  0.083  0.083
   26  0.004  0.000  0.030  0.035
   27  0.009  0.000  0.034  0.043
   28  0.000  0.000  0.004  0.004
   29  0.002  0.001  0.005  0.007
   30  0.000  0.000  0.010  0.010
   31  0.002  0.001  0.004  0.007
   32  0.001  0.000  0.005  0.006
   33  0.000  0.000  0.010  0.010
   34  0.001  0.000  0.006  0.007
   35  0.000  0.000  0.013  0.013
   36  0.000  0.000  0.001  0.001
tot    0.052  0.007  0.787  0.846
 
band    17 # energy   -4.82894860 # occ.  2.00000000
 
ion      s      p      d    tot
    1  0.001  0.000  0.001  0.002
    2  0.000  0.000  0.006  0.007
    3  0.000  0.000  0.006  0.007
    4  0.000  0.000  0.006  0.007
    5  0.001  0.000  0.015  0.016
    6  0.000  0.000  0.006  0.007
    7  0.000  0.000  0.006  0.007
    8  0.000  0.000  0.006  0.007
    9  0.002  0.001  0.003  0.007
   10  0.001  0.000  0.017  0.018
   11  0.000  0.001  0.072  0.073
   12  0.001  0.000  0.017  0.018
   13  0.000  0.001  0.072  0.073
   14  0.000  0.001  0.072  0.073
   15  0.000  0.000  0.031  0.032
   16  0.001  0.000  0.017  0.018
   17  0.000  0.000  0.031  0.032
   18  0.000  0.000  0.031  0.032
   19  0.000  0.001  0.031  0.031
   20  0.001  0.000  0.067  0.068
   21  0.001  0.000  0.067  0.068
   22  0.002  0.000  0.017  0.019
   23  0.001  0.000  0.067  0.068
   24  0.002  0.000  0.017  0.019
   25  0.000  0.001  0.031  0.031
   26  0.000  0.001  0.031  0.031
   27  0.002  0.000  0.017  0.019
   28  0.005  0.001  0.002  0.008
   29  0.000  0.000  0.011  0.011
   30  0.000  0.000  0.011  0.011
   31  0.000  0.000  0.011  0.011
   32  0.000  0.000  0.011  0.011
   33  0.000  0.000  0.011  0.011
   34  0.000  0.000  0.011  0.011
   35  0.002  0.001  0.000  0.003
   36  0.000  0.000  0.002  0.003
tot    0.022  0.014  0.831  0.868
 
band    18 # energy   -4.82049945 # occ.  2.00000000
 
ion      s      p      d    tot
    1  0.000  0.000  0.002  0.002
    2  0.001  0.001  0.005  0.007
    3  0.000  0.000  0.009  0.010
    4  0.001  0.001  0.006  0.007
    5  0.000  0.001  0.017  0.018
    6  0.000  0.000  0.007  0.007
    7  0.000  0.000  0.009  0.010
    8  0.001  0.000  0.006  0.007
    9  0.000  0.000  0.007  0.007
   10  0.000  0.001  0.021  0.022
   11  0.001  0.000  0.068  0.069
   12  0.000  0.000  0.045  0.045
   13  0.001  0.000  0.070  0.071
   14  0.002  0.000  0.047  0.050
   15  0.001  0.000  0.010  0.011
   16  0.000  0.000  0.043  0.043
   17  0.000  0.000  0.008  0.009
   18  0.002  0.001  0.033  0.036
   19  0.001  0.000  0.024  0.025
   20  0.002  0.000  0.041  0.043
   21  0.000  0.000  0.086  0.086
   22  0.000  0.000  0.018  0.018
   23  0.001  0.000  0.081  0.082
   24  0.000  0.001  0.022  0.023
   25  0.003  0.001  0.039  0.043
   26  0.001  0.000  0.023  0.024
   27  0.000  0.000  0.018  0.019
   28  0.000  0.001  0.013  0.013
   29  0.001  0.000  0.005  0.007
   30  0.000  0.000  0.009  0.009
   31  0.001  0.000  0.005  0.006
   32  0.001  0.001  0.008  0.010
   33  0.000  0.000  0.008  0.008
   34  0.002  0.001  0.008  0.010
   35  0.000  0.000  0.001  0.001
   36  0.000  0.002  0.002  0.004
tot    0.025  0.016  0.824  0.865
 
band    19 # energy   -4.82049022 # occ.  2.00000000
 
ion      s      p      d    tot
    1  0.000  0.000  0.002  0.002
    2  0.000  0.000  0.009  0.009
    3  0.001  0.000  0.005  0.006
    4  0.000  0.000  0.009  0.009
    5  0.000  0.001  0.017  0.018
    6  0.001  0.001  0.007  0.009
    7  0.001  0.000  0.005  0.006
    8  0.001  0.001  0.008  0.009
    9  0.000  0.000  0.007  0.007
   10  0.000  0.000  0.052  0.052
   11  0.002  0.000  0.056  0.058
   12  0.000  0.001  0.027  0.028
   13  0.002  0.000  0.054  0.056
   14  0.000  0.000  0.077  0.077
   15  0.001  0.001  0.024  0.026
   16  0.000  0.001  0.030  0.030
   17  0.002  0.001  0.026  0.028
   18  0.000  0.000  0.001  0.001
   19  0.002  0.001  0.033  0.036
   20  0.000  0.000  0.098  0.098
   21  0.002  0.000  0.053  0.054
   22  0.000  0.001  0.021  0.022
   23  0.001  0.000  0.057  0.058
   24  0.000  0.000  0.016  0.017
   25  0.000  0.000  0.019  0.019
   26  0.002  0.001  0.035  0.038
   27  0.000  0.001  0.020  0.022
   28  0.000  0.001  0.013  0.013
   29  0.000  0.000  0.009  0.010
   30  0.002  0.001  0.005  0.008
   31  0.001  0.000  0.009  0.010
   32  0.000  0.000  0.006  0.007
   33  0.002  0.001  0.006  0.008
   34  0.000  0.000  0.006  0.007
   35  0.000  0.000  0.001  0.001
   36  0.000  0.002  0.002  0.004
tot    0.025  0.016  0.824  0.865
 
band    20 # energy   -4.81302574 # occ.  2.00000000
 
ion      s      p      d    tot
    1  0.001  0.001  0.005  0.007
    2  0.000  0.000  0.012  0.012
    3  0.000  0.000  0.012  0.012
    4  0.000  0.000  0.012  0.012
    5  0.004  0.001  0.000  0.005
    6  0.000  0.000  0.012  0.012
    7  0.000  0.000  0.012  0.012
    8  0.000  0.000  0.012  0.012
    9  0.001  0.000  0.004  0.005
   10  0.001  0.001  0.054  0.055
   11  0.001  0.000  0.016  0.017
   12  0.001  0.001  0.054  0.056
   13  0.001  0.000  0.016  0.017
   14  0.001  0.000  0.016  0.017
   15  0.003  0.000  0.031  0.034
   16  0.001  0.001  0.054  0.056
   17  0.003  0.000  0.031  0.034
   18  0.003  0.000  0.031  0.034
   19  0.001  0.000  0.047  0.048
   20  0.000  0.000  0.021  0.021
   21  0.000  0.000  0.021  0.021
   22  0.001  0.001  0.047  0.048
   23  0.000  0.000  0.021  0.021
   24  0.001  0.001  0.047  0.048
   25  0.001  0.000  0.047  0.049
   26  0.001  0.000  0.047  0.048
   27  0.001  0.001  0.047  0.048
   28  0.001  0.000  0.012  0.013
   29  0.000  0.000  0.011  0.012
   30  0.000  0.000  0.011  0.012
   31  0.000  0.000  0.011  0.012
   32  0.000  0.000  0.011  0.012
   33  0.000  0.000  0.011  0.012
   34  0.000  0.000  0.011  0.012
   35  0.001  0.001  0.006  0.008
   36  0.004  0.002  0.000  0.006
tot    0.032  0.017  0.811  0.859
 
band    21 # energy   -4.80174830 # occ.  2.00000000
 
ion      s      p      d    tot
    1  0.000  0.001  0.017  0.017
    2  0.002  0.001  0.005  0.007
    3  0.000  0.000  0.010  0.011
    4  0.002  0.001  0.006  0.008
    5  0.000  0.000  0.001  0.001
    6  0.000  0.000  0.007  0.007
    7  0.000  0.000  0.010  0.011
    8  0.001  0.000  0.006  0.007
    9  0.000  0.000  0.009  0.010
   10  0.000  0.000  0.037  0.037
   11  0.000  0.001  0.021  0.021
   12  0.002  0.001  0.053  0.055
   13  0.000  0.001  0.022  0.023
   14  0.000  0.000  0.014  0.014
   15  0.001  0.000  0.044  0.044
   16  0.002  0.000  0.050  0.052
   17  0.001  0.000  0.036  0.037
   18  0.000  0.000  0.082  0.082
   19  0.000  0.000  0.035  0.036
   20  0.000  0.000  0.001  0.001
   21  0.001  0.001  0.035  0.038
   22  0.002  0.000  0.042  0.044
   23  0.001  0.001  0.030  0.032
   24  0.000  0.000  0.056  0.056
   25  0.000  0.000  0.061  0.061
   26  0.000  0.000  0.030  0.031
   27  0.002  0.000  0.044  0.046
   28  0.000  0.000  0.006  0.006
   29  0.001  0.000  0.004  0.006
   30  0.000  0.000  0.010  0.010
   31  0.001  0.000  0.005  0.006
   32  0.001  0.001  0.008  0.010
   33  0.000  0.000  0.009  0.009
   34  0.001  0.001  0.007  0.009
   35  0.000  0.001  0.016  0.016
   36  0.000  0.001  0.001  0.002
tot    0.022  0.015  0.828  0.865
 
band    22 # energy   -4.80173975 # occ.  2.00000000
 
ion      s      p      d    tot
    1  0.000  0.001  0.017  0.017
    2  0.000  0.000  0.010  0.010
    3  0.001  0.001  0.004  0.006
    4  0.000  0.000  0.009  0.009
    5  0.000  0.000  0.001  0.001
    6  0.001  0.001  0.008  0.010
    7  0.001  0.000  0.004  0.006
    8  0.001  0.001  0.009  0.010
    9  0.000  0.000  0.009  0.010
   10  0.003  0.001  0.056  0.060
   11  0.000  0.000  0.017  0.018
   12  0.000  0.000  0.040  0.041
   13  0.000  0.000  0.016  0.016
   14  0.000  0.001  0.023  0.025
   15  0.000  0.000  0.064  0.064
   16  0.001  0.000  0.043  0.044