PROCAR new format
# of k-points:   10         # of bands:  252         # of ions:   37

 k-point     1 :    0.00000000 0.00000000 0.00000000     weight = 0.01562500

band     1 # energy  -48.77048494 # occ.  2.00000000
 
ion      s      p      d    tot
    1  0.000  0.000  0.000  0.000
    2  0.000  0.000  0.000  0.000
    3  0.000  0.000  0.000  0.000
    4  0.000  0.000  0.000  0.000
    5  0.000  0.000  0.000  0.000
    6  0.000  0.000  0.000  0.000
    7  0.000  0.000  0.000  0.000
    8  0.000  0.000  0.000  0.000
    9  0.000  0.000  0.000  0.000
   10  0.000  0.000  0.000  0.000
   11  0.000  0.000  0.000  0.000
   12  0.000  0.000  0.000  0.000
   13  0.000  0.000  0.000  0.000
   14  0.000  0.000  0.000  0.000
   15  0.000  0.000  0.000  0.000
   16  0.000  0.000  0.000  0.000
   17  0.000  0.000  0.000  0.000
   18  0.000  0.000  0.000  0.000
   19  0.000  0.000  0.000  0.000
   20  0.000  0.000  0.000  0.000
   21  0.000  0.000  0.000  0.000
   22  0.000  0.000  0.000  0.000
   23  0.000  0.000  0.000  0.000
   24  0.000  0.000  0.000  0.000
   25  0.000  0.000  0.000  0.000
   26  0.000  0.000  0.000  0.000
   27  0.000  0.000  0.000  0.000
   28  0.000  0.000  0.000  0.000
   29  0.000  0.000  0.000  0.000
   30  0.000  0.000  0.000  0.000
   31  0.000  0.000  0.000  0.000
   32  0.000  0.000  0.000  0.000
   33  0.000  0.000  0.000  0.000
   34  0.000  0.000  0.000  0.000
   35  0.000  0.000  0.000  0.000
   36  0.993  0.000  0.000  0.993
   37  0.000  0.000  0.000  0.000
tot    0.993  0.000  0.000  0.993
 
band     2 # energy  -26.85609373 # occ.  2.00000000
 
ion      s      p      d    tot
    1  0.000  0.000  0.000  0.000
    2  0.000  0.000  0.000  0.000
    3  0.000  0.000  0.000  0.000
    4  0.000  0.000  0.000  0.000
    5  0.000  0.000  0.000  0.000
    6  0.000  0.000  0.000  0.000
    7  0.000  0.000  0.000  0.000
    8  0.000  0.000  0.000  0.000
    9  0.000  0.000  0.000  0.000
   10  0.000  0.000  0.000  0.000
   11  0.000  0.000  0.000  0.000
   12  0.000  0.000  0.000  0.000
   13  0.000  0.000  0.000  0.000
   14  0.000  0.000  0.000  0.000
   15  0.000  0.000  0.000  0.000
   16  0.000  0.000  0.000  0.000
   17  0.000  0.000  0.000  0.000
   18  0.000  0.000  0.000  0.000
   19  0.000  0.000  0.000  0.000
   20  0.000  0.000  0.000  0.000
   21  0.000  0.000  0.000  0.000
   22  0.000  0.000  0.000  0.000
   23  0.000  0.000  0.000  0.000
   24  0.000  0.000  0.000  0.000
   25  0.000  0.000  0.000  0.000
   26  0.000  0.000  0.000  0.000
   27  0.000  0.000  0.000  0.000
   28  0.000  0.000  0.000  0.000
   29  0.000  0.000  0.000  0.000
   30  0.000  0.000  0.000  0.000
   31  0.000  0.000  0.000  0.000
   32  0.000  0.000  0.000  0.000
   33  0.000  0.000  0.000  0.000
   34  0.000  0.000  0.000  0.000
   35  0.000  0.000  0.000  0.000
   36  0.000  0.972  0.000  0.972
   37  0.000  0.000  0.000  0.000
tot    0.000  0.973  0.001  0.974
 
band     3 # energy  -26.85608615 # occ.  2.00000000
 
ion      s      p      d    tot
    1  0.000  0.000  0.000  0.000
    2  0.000  0.000  0.000  0.000
    3  0.000  0.000  0.000  0.000
    4  0.000  0.000  0.000  0.000
    5  0.000  0.000  0.000  0.000
    6  0.000  0.000  0.000  0.000
    7  0.000  0.000  0.000  0.000
    8  0.000  0.000  0.000  0.000
    9  0.000  0.000  0.000  0.000
   10  0.000  0.000  0.000  0.000
   11  0.000  0.000  0.000  0.000
   12  0.000  0.000  0.000  0.000
   13  0.000  0.000  0.000  0.000
   14  0.000  0.000  0.000  0.000
   15  0.000  0.000  0.000  0.000
   16  0.000  0.000  0.000  0.000
   17  0.000  0.000  0.000  0.000
   18  0.000  0.000  0.000  0.000
   19  0.000  0.000  0.000  0.000
   20  0.000  0.000  0.000  0.000
   21  0.000  0.000  0.000  0.000
   22  0.000  0.000  0.000  0.000
   23  0.000  0.000  0.000  0.000
   24  0.000  0.000  0.000  0.000
   25  0.000  0.000  0.000  0.000
   26  0.000  0.000  0.000  0.000
   27  0.000  0.000  0.000  0.000
   28  0.000  0.000  0.000  0.000
   29  0.000  0.000  0.000  0.000
   30  0.000  0.000  0.000  0.001
   31  0.000  0.000  0.000  0.000
   32  0.000  0.000  0.000  0.000
   33  0.000  0.000  0.000  0.001
   34  0.000  0.000  0.000  0.000
   35  0.000  0.000  0.000  0.000
   36  0.000  0.972  0.000  0.972
   37  0.000  0.000  0.000  0.000
tot    0.000  0.973  0.001  0.974
 
band     4 # energy  -26.65490596 # occ.  2.00000000
 
ion      s      p      d    tot
    1  0.000  0.000  0.000  0.000
    2  0.000  0.000  0.000  0.000
    3  0.000  0.000  0.000  0.000
    4  0.000  0.000  0.000  0.000
    5  0.000  0.000  0.000  0.000
    6  0.000  0.000  0.000  0.000
    7  0.000  0.000  0.000  0.000
    8  0.000  0.000  0.000  0.000
    9  0.000  0.000  0.000  0.000
   10  0.000  0.000  0.000  0.000
   11  0.000  0.000  0.000  0.000
   12  0.000  0.000  0.000  0.000
   13  0.000  0.000  0.000  0.000
   14  0.000  0.000  0.000  0.000
   15  0.000  0.000  0.000  0.000
   16  0.000  0.000  0.000  0.000
   17  0.000  0.000  0.000  0.000
   18  0.000  0.000  0.000  0.000
   19  0.000  0.000  0.000  0.000
   20  0.000  0.000  0.000  0.000
   21  0.000  0.000  0.000  0.000
   22  0.000  0.000  0.000  0.000
   23  0.000  0.000  0.000  0.000
   24  0.000  0.000  0.000  0.000
   25  0.000  0.000  0.000  0.000
   26  0.000  0.000  0.000  0.000
   27  0.000  0.000  0.000  0.000
   28  0.000  0.000  0.000  0.000
   29  0.000  0.000  0.000  0.000
   30  0.000  0.000  0.000  0.000
   31  0.000  0.000  0.000  0.000
   32  0.000  0.000  0.000  0.000
   33  0.000  0.000  0.000  0.000
   34  0.000  0.000  0.000  0.000
   35  0.000  0.000  0.000  0.000
   36  0.000  0.970  0.000  0.970
   37  0.002  0.000  0.000  0.002
tot    0.002  0.971  0.001  0.973
 
band     5 # energy   -6.32403736 # occ.  2.00000000
 
ion      s      p      d    tot
    1  0.006  0.001  0.000  0.006
    2  0.006  0.001  0.000  0.006
    3  0.006  0.001  0.000  0.006
    4  0.006  0.001  0.000  0.006
    5  0.006  0.001  0.000  0.006
    6  0.006  0.001  0.000  0.006
    7  0.006  0.001  0.000  0.006
    8  0.006  0.001  0.000  0.006
    9  0.006  0.001  0.000  0.006
   10  0.023  0.000  0.000  0.024
   11  0.023  0.000  0.000  0.024
   12  0.023  0.000  0.000  0.024
   13  0.023  0.000  0.000  0.024
   14  0.023  0.000  0.000  0.024
   15  0.022  0.000  0.000  0.022
   16  0.023  0.000  0.000  0.024
   17  0.022  0.000  0.000  0.022
   18  0.022  0.000  0.000  0.022
   19  0.023  0.000  0.000  0.024
   20  0.025  0.000  0.000  0.026
   21  0.025  0.000  0.000  0.026
   22  0.022  0.000  0.000  0.023
   23  0.025  0.000  0.000  0.026
   24  0.022  0.000  0.000  0.023
   25  0.023  0.000  0.000  0.024
   26  0.023  0.000  0.000  0.024
   27  0.022  0.000  0.000  0.023
   28  0.006  0.001  0.000  0.007
   29  0.006  0.001  0.000  0.007
   30  0.006  0.001  0.000  0.007
   31  0.006  0.001  0.000  0.007
   32  0.006  0.001  0.000  0.007
   33  0.006  0.001  0.000  0.007
   34  0.006  0.001  0.000  0.007
   35  0.006  0.001  0.000  0.006
   36  0.004  0.000  0.000  0.004
   37  0.000  0.000  0.000  0.000
tot    0.520  0.012  0.006  0.539
 
band     6 # energy   -5.46584058 # occ.  2.00000000
 
ion      s      p      d    tot
    1  0.008  0.000  0.000  0.009
    2  0.008  0.000  0.000  0.009
    3  0.008  0.000  0.000  0.009
    4  0.008  0.000  0.000  0.009
    5  0.008  0.000  0.000  0.009
    6  0.008  0.000  0.000  0.009
    7  0.008  0.000  0.000  0.009
    8  0.008  0.000  0.000  0.009
    9  0.008  0.000  0.000  0.009
   10  0.012  0.001  0.015  0.028
   11  0.012  0.001  0.014  0.027
   12  0.012  0.001  0.015  0.028
   13  0.012  0.001  0.014  0.027
   14  0.012  0.001  0.014  0.027
   15  0.011  0.001  0.012  0.025
   16  0.012  0.001  0.015  0.028
   17  0.011  0.001  0.012  0.025
   18  0.011  0.001  0.012  0.025
   19  0.011  0.001  0.014  0.025
   20  0.012  0.001  0.020  0.033
   21  0.012  0.001  0.020  0.033
   22  0.010  0.001  0.012  0.023
   23  0.012  0.001  0.020  0.033
   24  0.010  0.001  0.012  0.023
   25  0.011  0.001  0.014  0.025
   26  0.011  0.001  0.014  0.025
   27  0.010  0.001  0.012  0.023
   28  0.008  0.000  0.001  0.009
   29  0.008  0.000  0.001  0.009
   30  0.008  0.000  0.001  0.009
   31  0.008  0.000  0.001  0.009
   32  0.008  0.000  0.001  0.009
   33  0.008  0.000  0.001  0.009
   34  0.008  0.000  0.001  0.009
   35  0.008  0.000  0.001  0.009
   36  0.005  0.000  0.000  0.005
   37  0.000  0.000  0.000  0.000
tot    0.347  0.025  0.270  0.642
 
band     7 # energy   -5.20713910 # occ.  2.00000000
 
ion      s      p      d    tot
    1  0.007  0.000  0.012  0.019
    2  0.007  0.000  0.010  0.017
    3  0.007  0.000  0.010  0.017
    4  0.007  0.000  0.010  0.017
    5  0.007  0.000  0.008  0.016
    6  0.007  0.000  0.010  0.017
    7  0.007  0.000  0.010  0.017
    8  0.007  0.000  0.010  0.017
    9  0.007  0.000  0.009  0.017
   10  0.000  0.000  0.016  0.016
   11  0.000  0.000  0.013  0.013
   12  0.000  0.000  0.016  0.016
   13  0.000  0.000  0.013  0.013
   14  0.000  0.000  0.013  0.013
   15  0.000  0.000  0.010  0.010
   16  0.000  0.000  0.016  0.016
   17  0.000  0.000  0.010  0.010
   18  0.000  0.000  0.010  0.010
   19  0.001  0.000  0.020  0.020
   20  0.001  0.000  0.034  0.035
   21  0.001  0.000  0.034  0.035
   22  0.000  0.000  0.014  0.015
   23  0.001  0.000  0.034  0.035
   24  0.000  0.000  0.014  0.015
   25  0.001  0.000  0.020  0.020
   26  0.001  0.000  0.020  0.020
   27  0.000  0.000  0.014  0.015
   28  0.011  0.000  0.018  0.029
   29  0.013  0.000  0.022  0.035
   30  0.013  0.000  0.022  0.035
   31  0.013  0.000  0.022  0.035
   32  0.013  0.000  0.022  0.035
   33  0.013  0.000  0.022  0.035
   34  0.013  0.000  0.022  0.035
   35  0.013  0.000  0.018  0.031
   36  0.008  0.000  0.005  0.013
   37  0.000  0.000  0.000  0.000
tot    0.181  0.005  0.582  0.767
 
band     8 # energy   -5.08518028 # occ.  2.00000000
 
ion      s      p      d    tot
    1  0.003  0.001  0.002  0.006
    2  0.000  0.000  0.005  0.005
    3  0.000  0.000  0.005  0.005
    4  0.000  0.000  0.005  0.005
    5  0.003  0.000  0.000  0.003
    6  0.000  0.000  0.005  0.005
    7  0.000  0.000  0.005  0.005
    8  0.000  0.000  0.005  0.005
    9  0.001  0.000  0.000  0.001
   10  0.006  0.000  0.019  0.025
   11  0.000  0.000  0.020  0.021
   12  0.006  0.000  0.019  0.025
   13  0.000  0.000  0.020  0.021
   14  0.000  0.000  0.020  0.021
   15  0.003  0.001  0.005  0.009
   16  0.006  0.000  0.019  0.025
   17  0.003  0.001  0.005  0.009
   18  0.003  0.001  0.005  0.009
   19  0.002  0.001  0.035  0.037
   20  0.005  0.000  0.117  0.123
   21  0.005  0.000  0.118  0.123
   22  0.016  0.001  0.011  0.027
   23  0.005  0.000  0.118  0.123
   24  0.016  0.001  0.011  0.027
   25  0.002  0.001  0.035  0.037
   26  0.002  0.001  0.035  0.037
   27  0.016  0.001  0.011  0.027
   28  0.000  0.000  0.001  0.001
   29  0.000  0.000  0.004  0.005
   30  0.000  0.000  0.004  0.005
   31  0.000  0.000  0.004  0.005
   32  0.000  0.000  0.004  0.005
   33  0.000  0.000  0.004  0.005
   34  0.000  0.000  0.004  0.005
   35  0.005  0.001  0.002  0.009
   36  0.002  0.001  0.004  0.007
   37  0.001  0.000  0.000  0.001
tot    0.112  0.012  0.691  0.815
 
band     9 # energy   -5.06560746 # occ.  2.00000000
 
ion      s      p      d    tot
    1  0.000  0.000  0.007  0.007
    2  0.001  0.000  0.002  0.003
    3  0.001  0.000  0.002  0.003
    4  0.000  0.000  0.002  0.002
    5  0.000  0.000  0.003  0.003
    6  0.000  0.000  0.002  0.002
    7  0.001  0.000  0.002  0.003
    8  0.001  0.000  0.002  0.003
    9  0.000  0.000  0.002  0.002
   10  0.002  0.001  0.021  0.023
   11  0.000  0.000  0.022  0.022
   12  0.002  0.001  0.021  0.023
   13  0.000  0.000  0.024  0.025
   14  0.000  0.000  0.024  0.025
   15  0.006  0.001  0.008  0.015
   16  0.008  0.001  0.020  0.029
   17  0.002  0.000  0.014  0.016
   18  0.002  0.000  0.014  0.016
   19  0.026  0.000  0.034  0.061
   20  0.005  0.000  0.127  0.132
   21  0.004  0.000  0.130  0.134
   22  0.000  0.001  0.028  0.029
   23  0.018  0.001  0.011  0.029
   24  0.000  0.001  0.028  0.030
   25  0.007  0.001  0.042  0.050
   26  0.006  0.001  0.042  0.049
   27  0.001  0.000  0.037  0.038
   28  0.000  0.000  0.006  0.007
   29  0.000  0.000  0.006  0.006
   30  0.000  0.000  0.006  0.006
   31  0.001  0.001  0.008  0.009
   32  0.001  0.001  0.008  0.009
   33  0.000  0.000  0.002  0.003
   34  0.000  0.000  0.002  0.003
   35  0.000  0.000  0.000  0.000
   36  0.000  0.000  0.002  0.002
   37  0.000  0.000  0.000  0.000
tot    0.094  0.013  0.713  0.819
 
band    10 # energy   -5.06559784 # occ.  2.00000000
 
ion      s      p      d    tot
    1  0.000  0.000  0.007  0.007
    2  0.000  0.000  0.002  0.003
    3  0.000  0.000  0.002  0.003
    4  0.001  0.000  0.002  0.003
    5  0.000  0.000  0.003  0.003
    6  0.001  0.000  0.002  0.003
    7  0.000  0.000  0.002  0.003
    8  0.000  0.000  0.002  0.002
    9  0.000  0.000  0.002  0.002
   10  0.006  0.001  0.020  0.027
   11  0.000  0.000  0.025  0.026
   12  0.006  0.001  0.020  0.027
   13  0.000  0.000  0.023  0.023
   14  0.000  0.000  0.023  0.023
   15  0.000  0.000  0.016  0.016
   16  0.000  0.001  0.021  0.021
   17  0.005  0.001  0.010  0.015
   18  0.005  0.001  0.010  0.015
   19  0.000  0.001  0.045  0.046
   20  0.013  0.000  0.051  0.065
   21  0.013  0.000  0.048  0.062
   22  0.001  0.001  0.034  0.035
   23  0.000  0.000  0.168  0.168
   24  0.001  0.001  0.034  0.035
   25  0.020  0.001  0.037  0.057
   26  0.020  0.001  0.036  0.057
   27  0.000  0.001  0.025  0.026
   28  0.000  0.000  0.006  0.007
   29  0.001  0.000  0.005  0.006
   30  0.001  0.000  0.005  0.006
   31  0.000  0.000  0.003  0.003
   32  0.000  0.000  0.003  0.003
   33  0.000  0.000  0.008  0.009
   34  0.000  0.000  0.008  0.009
   35  0.000  0.000  0.000  0.000
   36  0.000  0.000  0.002  0.002
   37  0.000  0.000  0.000  0.000
tot    0.094  0.013  0.713  0.819
 
band    11 # energy   -5.04735322 # occ.  2.00000000
 
ion      s      p      d    tot
    1  0.010  0.000  0.003  0.014
    2  0.005  0.000  0.014  0.019
    3  0.005  0.000  0.014  0.019
    4  0.005  0.000  0.014  0.019
    5  0.002  0.000  0.029  0.031
    6  0.005  0.000  0.014  0.019
    7  0.005  0.000  0.014  0.019
    8  0.005  0.000  0.014  0.019
    9  0.005  0.000  0.007  0.012
   10  0.003  0.001  0.010  0.014
   11  0.010  0.001  0.051  0.062
   12  0.003  0.001  0.010  0.014
   13  0.010  0.001  0.051  0.062
   14  0.010  0.001  0.051  0.062
   15  0.002  0.000  0.035  0.037
   16  0.003  0.001  0.010  0.014
   17  0.002  0.000  0.035  0.037
   18  0.002  0.000  0.034  0.037
   19  0.001  0.000  0.023  0.024
   20  0.004  0.001  0.029  0.034
   21  0.004  0.001  0.029  0.034
   22  0.001  0.000  0.011  0.012
   23  0.004  0.001  0.029  0.034
   24  0.001  0.000  0.010  0.012
   25  0.001  0.000  0.023  0.024
   26  0.001  0.000  0.023  0.024
   27  0.001  0.000  0.010  0.012
   28  0.003  0.000  0.001  0.004
   29  0.002  0.000  0.010  0.011
   30  0.002  0.000  0.010  0.011
   31  0.002  0.000  0.010  0.011
   32  0.002  0.000  0.010  0.011
   33  0.002  0.000  0.010  0.011
   34  0.002  0.000  0.010  0.011
   35  0.000  0.000  0.005  0.006
   36  0.003  0.000  0.001  0.004
   37  0.000  0.000  0.000  0.000
tot    0.125  0.011  0.665  0.801
 
band    12 # energy   -5.04519799 # occ.  2.00000000
 
ion      s      p      d    tot
    1  0.000  0.000  0.005  0.005
    2  0.000  0.000  0.002  0.003
    3  0.001  0.000  0.006  0.007
    4  0.000  0.000  0.002  0.002
    5  0.000  0.000  0.009  0.009
    6  0.002  0.001  0.006  0.008
    7  0.001  0.000  0.006  0.007
    8  0.002  0.001  0.005  0.007
    9  0.000  0.000  0.001  0.001
   10  0.010  0.001  0.011  0.022
   11  0.010  0.001  0.056  0.067
   12  0.002  0.000  0.082  0.084
   13  0.006  0.001  0.062  0.069
   14  0.032  0.001  0.019  0.051
   15  0.001  0.001  0.017  0.020
   16  0.003  0.000  0.073  0.076
   17  0.001  0.001  0.014  0.016
   18  0.005  0.000  0.036  0.041
   19  0.000  0.000  0.023  0.023
   20  0.015  0.001  0.034  0.049
   21  0.003  0.001  0.030  0.034
   22  0.002  0.000  0.030  0.033
   23  0.004  0.001  0.031  0.036
   24  0.012  0.001  0.007  0.019
   25  0.000  0.000  0.019  0.019
   26  0.000  0.000  0.023  0.024
   27  0.004  0.000  0.027  0.031
   28  0.000  0.000  0.001  0.001
   29  0.002  0.000  0.005  0.006
   30  0.001  0.000  0.004  0.005
   31  0.002  0.000  0.005  0.007
   32  0.000  0.000  0.003  0.003
   33  0.001  0.000  0.004  0.005
   34  0.000  0.000  0.003  0.003
   35  0.000  0.000  0.006  0.006
   36  0.000  0.000  0.002  0.002
   37  0.000  0.000  0.000  0.000
tot    0.121  0.016  0.667  0.804
 
band    13 # energy   -5.04519181 # occ.  2.00000000
 
ion      s      p      d    tot
    1  0.000  0.000  0.005  0.005
    2  0.001  0.001  0.007  0.009
    3  0.001  0.000  0.003  0.004
    4  0.002  0.001  0.007  0.009
    5  0.000  0.000  0.009  0.009
    6  0.000  0.000  0.003  0.003
    7  0.001  0.000  0.003  0.005
    8  0.000  0.000  0.004  0.004
    9  0.000  0.000  0.001  0.001
   10  0.000  0.000  0.100  0.100
   11  0.022  0.001  0.035  0.058
   12  0.008  0.001  0.029  0.038
   13  0.026  0.001  0.029  0.056
   14  0.000  0.001  0.073  0.074
   15  0.003  0.001  0.028  0.032
   16  0.007  0.001  0.038  0.046
   17  0.004  0.000  0.031  0.035
   18  0.000  0.002  0.009  0.010
   19  0.000  0.000  0.021  0.021
   20  0.000  0.001  0.029  0.030
   21  0.012  0.001  0.033  0.046
   22  0.009  0.001  0.012  0.023
   23  0.010  0.001  0.033  0.044
   24  0.000  0.000  0.036  0.036
   25  0.000  0.001  0.024  0.025
   26  0.000  0.000  0.020  0.020
   27  0.008  0.001  0.015  0.024
   28  0.000  0.000  0.001  0.001
   29  0.000  0.000  0.003  0.003
   30  0.001  0.000  0.004  0.005
   31  0.000  0.000  0.003  0.003
   32  0.002  0.000  0.004  0.007
   33  0.001  0.000  0.004  0.005
   34  0.002  0.000  0.004  0.006
   35  0.000  0.000  0.006  0.006
   36  0.000  0.000  0.002  0.002
   37  0.000  0.000  0.000  0.000
tot    0.121  0.016  0.667  0.804
 
band    14 # energy   -5.03619969 # occ.  2.00000000
 
ion      s      p      d    tot
    1  0.004  0.000  0.004  0.009
    2  0.004  0.000  0.014  0.018
    3  0.004  0.000  0.014  0.018
    4  0.004  0.000  0.014  0.018
    5  0.013  0.000  0.005  0.019
    6  0.004  0.000  0.014  0.018
    7  0.004  0.000  0.014  0.018
    8  0.004  0.000  0.014  0.018
    9  0.000  0.001  0.026  0.027
   10  0.004  0.001  0.026  0.031
   11  0.005  0.001  0.015  0.021
   12  0.004  0.001  0.026  0.031
   13  0.005  0.001  0.015  0.021
   14  0.005  0.001  0.015  0.021
   15  0.007  0.000  0.038  0.046
   16  0.004  0.001  0.026  0.031
   17  0.007  0.000  0.038  0.046
   18  0.007  0.000  0.038  0.046
   19  0.011  0.001  0.015  0.026
   20  0.003  0.001  0.014  0.017
   21  0.003  0.001  0.014  0.017
   22  0.000  0.000  0.023  0.024
   23  0.003  0.001  0.014  0.017
   24  0.000  0.000  0.023  0.024
   25  0.011  0.001  0.015  0.026
   26  0.011  0.001  0.015  0.026
   27  0.000  0.000  0.023  0.024
   28  0.000  0.001  0.010  0.012
   29  0.002  0.000  0.014  0.017
   30  0.002  0.000  0.014  0.017
   31  0.002  0.000  0.014  0.017
   32  0.002  0.000  0.014  0.017
   33  0.002  0.000  0.014  0.017
   34  0.002  0.000  0.014  0.017
   35  0.006  0.000  0.003  0.009
   36  0.004  0.000  0.001  0.005
   37  0.000  0.000  0.000  0.000
tot    0.158  0.014  0.612  0.784
 
band    15 # energy   -5.02598317 # occ.  2.00000000
 
ion      s      p      d    tot
    1  0.001  0.000  0.028  0.029
    2  0.002  0.000  0.009  0.012
    3  0.002  0.000  0.009  0.012
    4  0.002  0.000  0.009  0.012
    5  0.000  0.000  0.001  0.001
    6  0.002  0.000  0.009  0.012
    7  0.002  0.000  0.009  0.012
    8  0.002  0.000  0.009  0.012
    9  0.011  0.001  0.000  0.012
   10  0.004  0.000  0.069  0.073
   11  0.003  0.000  0.030  0.033
   12  0.004  0.000  0.069  0.073
   13  0.003  0.000  0.030  0.033
   14  0.003  0.000  0.030  0.033
   15  0.005  0.000  0.008  0.013
   16  0.004  0.000  0.069  0.073
   17  0.005  0.000  0.008  0.013
   18  0.005  0.000  0.008  0.013
   19  0.000  0.000  0.025  0.025
   20  0.002  0.000  0.019  0.021
   21  0.002  0.000  0.019  0.021
   22  0.001  0.000  0.017  0.018
   23  0.002  0.000  0.019  0.021
   24  0.001  0.000  0.017  0.018
   25  0.000  0.000  0.025  0.025
   26  0.000  0.000  0.025  0.025
   27  0.001  0.000  0.017  0.018
   28  0.015  0.000  0.011  0.026
   29  0.002  0.000  0.018  0.020
   30  0.002  0.000  0.018  0.020
   31  0.002  0.000  0.018  0.020
   32  0.002  0.000  0.018  0.020
   33  0.002  0.000  0.018  0.020
   34  0.002  0.000  0.018  0.020
   35  0.001  0.000  0.010  0.010
   36  0.000  0.000  0.000  0.000
   37  0.000  0.000  0.000  0.000
tot    0.099  0.008  0.714  0.821
 
band    16 # energy   -5.00879542 # occ.  2.00000000
 
ion      s      p      d    tot
    1  0.000  0.001  0.007  0.007
    2  0.002  0.001  0.008  0.010
    3  0.001  0.000  0.005  0.007
    4  0.004  0.001  0.005  0.010
    5  0.000  0.000  0.011  0.011
    6  0.000  0.000  0.006  0.007
    7  0.004  0.001  0.004  0.009
    8  0.001  0.000  0.008  0.009
    9  0.000  0.000  0.009  0.010
   10  0.013  0.000  0.016  0.030
   11  0.000  0.000  0.023  0.024
   12  0.000  0.000  0.044  0.044
   13  0.000  0.000  0.014  0.014
   14  0.000  0.000  0.027  0.027
   15  0.007  0.000  0.029  0.036
   16  0.010  0.000  0.024  0.034
   17  0.000  0.000  0.056  0.056
   18  0.009  0.000  0.019  0.028
   19  0.003  0.000  0.034  0.037
   20  0.004  0.000  0.034  0.038
   21  0.000  0.001  0.022  0.023
   22  0.000  0.000  0.064  0.065
   23  0.003  0.000  0.031  0.034
   24  0.015  0.000  0.015  0.030
   25  0.004  0.000  0.028  0.032
   26  0.000  0.000  0.052  0.052
   27  0.011  0.000  0.028  0.039
   28  0.000  0.000  0.015  0.015
   29  0.003  0.001  0.009  0.013
   30  0.003  0.001  0.007  0.011
   31  0.000  0.000  0.011  0.011
   32  0.004  0.001  0.006  0.011
   33  0.000  0.000  0.010  0.010
   34  0.004  0.001  0.008  0.013
   35  0.000  0.001  0.006  0.007
   36  0.000  0.000  0.002  0.002
   37  0.000  0.000  0.000  0.000
tot    0.106  0.012  0.699  0.816
 
band    17 # energy   -5.00879014 # occ.  2.00000000
 
ion      s      p      d    tot
    1  0.000  0.001  0.007  0.007
    2  0.002  0.000  0.005  0.007
    3  0.003  0.001  0.007  0.010
    4  0.000  0.000  0.007  0.007
    5  0.000  0.000  0.011  0.011
    6  0.004  0.001  0.006  0.010
    7  0.000  0.000  0.008  0.008
    8  0.003  0.001  0.004  0.008
    9  0.000  0.000  0.009  0.010
   10  0.002  0.000  0.039  0.042
   11  0.000  0.000  0.019  0.020
   12  0.015  0.000  0.012  0.027
   13  0.000  0.000  0.028  0.029
   14  0.000  0.000  0.016  0.016
   15  0.004  0.000  0.040  0.044
   16  0.006  0.000  0.032  0.038
   17  0.010  0.000  0.013  0.024
   18  0.002  0.000  0.051  0.052
   19  0.002  0.000  0.042  0.044
   20  0.001  0.001  0.024  0.025
   21  0.004  0.000  0.036  0.041
   22  0.017  0.000  0.007  0.025
   23  0.002  0.000  0.027  0.029
   24  0.002  0.000  0.057  0.059
   25  0.001  0.000  0.048  0.049
   26  0.005  0.000  0.024  0.029
   27  0.006  0.000  0.043  0.050
   28  0.000  0.000  0.015  0.015
   29  0.002  0.000  0.008  0.010
   30  0.001  0.001  0.010  0.012
   31  0.005  0.001  0.006  0.012
   32  0.000  0.000  0.011  0.012
   33  0.005  0.001  0.007  0.013
   34  0.001  0.000  0.009  0.010
   35  0.000  0.001  0.006  0.007
   36  0.000  0.000  0.002  0.002
   37  0.000  0.000  0.000  0.000
tot    0.106  0.012  0.699  0.816
 
band    18 # energy   -4.99892304 # occ.  2.00000000
 
ion      s      p      d    tot
    1  0.002  0.000  0.000  0.003
    2  0.000  0.000  0.007  0.008
    3  0.000  0.000  0.007  0.008
    4  0.000  0.000  0.007  0.008
    5  0.000  0.000  0.002  0.002
    6  0.000  0.000  0.007  0.008
    7  0.000  0.000  0.007  0.008
    8  0.000  0.000  0.007  0.008
    9  0.002  0.000  0.005  0.008
   10  0.001  0.000  0.020  0.021
   11  0.001  0.000  0.016  0.017
   12  0.001  0.000  0.020  0.021
   13  0.001  0.000  0.016  0.017
   14  0.001  0.000  0.016  0.017
   15  0.000  0.000  0.045  0.045
   16  0.001  0.000  0.020  0.021
   17  0.000  0.000  0.045  0.045
   18  0.000  0.000  0.045  0.045
   19  0.005  0.000  0.043  0.049
   20  0.004  0.000  0.019  0.023
   21  0.004  0.000  0.018  0.022
   22  0.000  0.000  0.069  0.069
   23  0.004  0.000  0.018  0.022
   24  0.000  0.000  0.069  0.070
   25  0.005  0.000  0.043  0.049
   26  0.005  0.000  0.043  0.049
   27  0.000  0.000  0.069  0.069
   28  0.000  0.001  0.009  0.010
   29  0.000  0.000  0.015  0.015
   30  0.000  0.000  0.015  0.015
   31  0.000  0.000  0.015  0.015
   32  0.000  0.000  0.015  0.015
   33  0.000  0.000  0.015  0.015
   34  0.000  0.000  0.015  0.015
   35  0.003  0.000  0.011  0.014
   36  0.002  0.000  0.000  0.003
   37  0.000  0.000  0.000  0.000
tot    0.045  0.007  0.795  0.846
 
band    19 # energy   -4.99568199 # occ.  2.00000000
 
ion      s      p      d    tot
    1  0.000  0.000  0.007  0.007
    2  0.000  0.000  0.008  0.009
    3  0.001  0.000  0.006  0.007
    4  0.000  0.000  0.008  0.009
    5  0.000  0.000  0.002  0.003
    6  0.002  0.000  0.004  0.006
    7  0.001  0.000  0.007  0.008
    8  0.002  0.000  0.004  0.006
    9  0.000  0.000  0.014  0.014
   10  0.002  0.000  0.046  0.048
   11  0.001  0.000  0.054  0.055
   12  0.001  0.000  0.015  0.016
   13  0.001  0.000  0.056  0.057
   14  0.003  0.000  0.014  0.017
   15  0.003  0.000  0.069  0.072
   16  0.001  0.000  0.017  0.017
   17  0.002  0.000  0.071  0.073
   18  0.010  0.000  0.020  0.030
   19  0.001  0.000  0.054  0.054
   20  0.000  0.000  0.039  0.039
   21  0.000  0.000  0.016  0.016
   22  0.001  0.000  0.041  0.042
   23  0.000  0.000  0.017  0.017
   24  0.003  0.000  0.033  0.036
   25  0.003  0.000  0.009  0.013
   26  0.001  0.000  0.056  0.056
   27  0.001  0.000  0.041  0.042
   28  0.000  0.000  0.009  0.009
   29  0.002  0.000  0.008  0.010
   30  0.001  0.000  0.006  0.007
   31  0.002  0.000  0.008  0.010
   32  0.000  0.000  0.009  0.009
   33  0.001  0.000  0.006  0.007
   34  0.000  0.000  0.009  0.009
   35  0.000  0.000  0.018  0.018
   36  0.000  0.000  0.001  0.001
   37  0.000  0.000  0.000  0.000
tot    0.043  0.006  0.800  0.849
 
band    20 # energy   -4.99566637 # occ.  2.00000000
 
ion      s      p      d    tot
    1  0.000  0.000  0.007  0.007
    2  0.001  0.000  0.004  0.006
    3  0.001  0.000  0.006  0.007
    4  0.001  0.000  0.004  0.006
    5  0.000  0.000  0.002  0.003
    6  0.000  0.000  0.009  0.009
    7  0.001  0.000  0.006  0.007
    8  0.000  0.000  0.008  0.009
    9  0.000  0.000  0.014  0.014
   10  0.000  0.000  0.006  0.006
   11  0.002  0.000  0.029  0.031
   12  0.002  0.000  0.037  0.038
   13  0.002  0.000  0.027  0.029
   14  0.000  0.000  0.069  0.069
   15  0.008  0.000  0.038  0.045
   16  0.002  0.000  0.035  0.037
   17  0.008  0.000  0.035  0.043
   18  0.000  0.000  0.087  0.087
   19  0.002  0.000  0.025  0.028
   20  0.000  0.000  0.008  0.009
   21  0.000  0.000  0.032  0.032
   22  0.002  0.000  0.035  0.038
   23  0.000  0.000  0.031  0.031
   24  0.000  0.000  0.044  0.044
   25  0.000  0.000  0.070  0.070
   26  0.002  0.000  0.023  0.026
   27  0.002  0.000  0.036  0.038
   28  0.000  0.000  0.009  0.009
   29  0.000  0.000  0.007  0.007
   30  0.001  0.000  0.009  0.010
   31  0.000  0.000  0.007  0.007
   32  0.002  0.000  0.006  0.009
   33  0.001  0.000  0.009  0.010
   34  0.002  0.000  0.006  0.008
   35  0.000  0.000  0.018  0.018
   36  0.000  0.000  0.001  0.001
   37  0.000  0.000  0.000  0.000
tot    0.043  0.006  0.800  0.849
 
band    21 # energy   -4.86173512 # occ.  2.00000000
 
ion      s      p      d    tot
    1  0.001  0.000  0.001  0.001
    2  0.000  0.000  0.005  0.005
    3  0.000  0.000  0.005  0.005
    4  0.000  0.000  0.005  0.005
    5  0.001  0.000  0.013  0.015
    6  0.000  0.000  0.005  0.005
    7  0.000  0.000  0.005  0.005
    8  0.000  0.000  0.005  0.005
    9  0.002  0.001  0.004  0.006
   10  0.000  0.000  0.013  0.014
   11  0.000  0.001  0.075  0.076
   12  0.000  0.000  0.013  0.014
   13  0.000  0.001  0.075  0.076
   14  0.000  0.001  0.075  0.076
   15  0.000  0.000  0.030  0.031
   16  0.000  0.000  0.013  0.014
   17  0.000  0.000  0.030  0.031
   18  0.000  0.000  0.030  0.031
   19  0.000  0.000  0.022  0.023
   20  0.002  0.000  0.068  0.070
   21  0.002  0.000  0.068  0.070
   22  0.002  0.000  0.021  0.023
   23  0.002  0.000  0.068  0.070
   24  0.002  0.000  0.021  0.023
   25  0.000  0.000  0.022  0.023
   26  0.000  0.000  0.022  0.023
   27  0.002  0.000  0.021  0.023
   28  0.005  0.001  0.002  0.007
   29  0.000  0.001  0.014  0.014
   30  0.000  0.001  0.014  0.014
   31  0.000  0.001  0.014  0.014
   32  0.000  0.001  0.014  0.014
   33  0.000  0.001  0.014  0.014
   34  0.000  0.001  0.014  0.014
   35  0.005  0.001  0.001  0.006
   36  0.000  0.000  0.002  0.002