PROCAR new format
# of k-points:   10         # of bands:  252         # of ions:   37

 k-point     1 :    0.00000000 0.00000000 0.00000000     weight = 0.01562500

band     1 # energy  -17.90875059 # occ.  2.00000000
 
ion      s      p      d    tot
    1  0.000  0.000  0.000  0.000
    2  0.000  0.000  0.000  0.000
    3  0.000  0.000  0.000  0.000
    4  0.000  0.000  0.000  0.000
    5  0.000  0.000  0.000  0.000
    6  0.000  0.000  0.000  0.000
    7  0.000  0.000  0.000  0.000
    8  0.000  0.000  0.000  0.000
    9  0.000  0.000  0.000  0.000
   10  0.000  0.000  0.000  0.000
   11  0.000  0.000  0.000  0.000
   12  0.000  0.000  0.000  0.000
   13  0.000  0.000  0.000  0.000
   14  0.000  0.000  0.000  0.000
   15  0.000  0.000  0.000  0.000
   16  0.000  0.000  0.000  0.000
   17  0.000  0.000  0.000  0.000
   18  0.000  0.000  0.000  0.000
   19  0.000  0.000  0.000  0.000
   20  0.000  0.000  0.000  0.000
   21  0.000  0.000  0.000  0.000
   22  0.000  0.000  0.000  0.000
   23  0.000  0.000  0.000  0.000
   24  0.000  0.000  0.000  0.000
   25  0.000  0.000  0.000  0.000
   26  0.000  0.000  0.000  0.000
   27  0.000  0.000  0.000  0.000
   28  0.000  0.000  0.000  0.000
   29  0.000  0.000  0.000  0.000
   30  0.000  0.000  0.000  0.000
   31  0.000  0.000  0.000  0.000
   32  0.000  0.000  0.000  0.000
   33  0.000  0.000  0.000  0.000
   34  0.000  0.000  0.000  0.000
   35  0.000  0.000  0.000  0.000
   36  0.038  0.049  0.054  0.141
   37  0.770  0.012  0.000  0.782
tot    0.809  0.061  0.054  0.924
 
band     2 # energy   -8.80255619 # occ.  2.00000000
 
ion      s      p      d    tot
    1  0.007  0.001  0.000  0.007
    2  0.007  0.001  0.000  0.007
    3  0.007  0.001  0.000  0.007
    4  0.007  0.001  0.000  0.007
    5  0.007  0.001  0.000  0.007
    6  0.007  0.001  0.000  0.007
    7  0.007  0.001  0.000  0.007
    8  0.007  0.001  0.000  0.007
    9  0.007  0.001  0.000  0.007
   10  0.025  0.000  0.000  0.025
   11  0.025  0.000  0.000  0.025
   12  0.025  0.000  0.000  0.025
   13  0.025  0.000  0.000  0.025
   14  0.025  0.000  0.000  0.025
   15  0.025  0.000  0.000  0.025
   16  0.025  0.000  0.000  0.025
   17  0.025  0.000  0.000  0.025
   18  0.025  0.000  0.000  0.025
   19  0.025  0.000  0.000  0.025
   20  0.025  0.000  0.000  0.025
   21  0.025  0.000  0.000  0.025
   22  0.025  0.000  0.000  0.025
   23  0.025  0.000  0.000  0.025
   24  0.025  0.000  0.000  0.025
   25  0.025  0.000  0.000  0.025
   26  0.025  0.000  0.000  0.025
   27  0.025  0.000  0.000  0.025
   28  0.006  0.001  0.000  0.007
   29  0.006  0.001  0.000  0.007
   30  0.006  0.001  0.000  0.007
   31  0.006  0.001  0.000  0.007
   32  0.006  0.001  0.000  0.007
   33  0.006  0.001  0.000  0.007
   34  0.006  0.001  0.000  0.007
   35  0.007  0.001  0.000  0.007
   36  0.006  0.001  0.000  0.008
   37  0.001  0.000  0.000  0.001
tot    0.564  0.017  0.001  0.583
 
band     3 # energy   -7.48085140 # occ.  2.00000000
 
ion      s      p      d    tot
    1  0.019  0.001  0.001  0.020
    2  0.018  0.001  0.001  0.020
    3  0.018  0.001  0.001  0.020
    4  0.018  0.001  0.001  0.020
    5  0.018  0.001  0.001  0.020
    6  0.018  0.001  0.001  0.020
    7  0.018  0.001  0.001  0.020
    8  0.018  0.001  0.001  0.020
    9  0.019  0.001  0.001  0.020
   10  0.010  0.002  0.001  0.013
   11  0.010  0.002  0.001  0.013
   12  0.010  0.002  0.001  0.013
   13  0.010  0.002  0.001  0.013
   14  0.010  0.002  0.001  0.013
   15  0.010  0.002  0.001  0.013
   16  0.010  0.002  0.001  0.013
   17  0.010  0.002  0.001  0.013
   18  0.010  0.002  0.001  0.013
   19  0.011  0.002  0.001  0.014
   20  0.011  0.002  0.001  0.013
   21  0.011  0.002  0.001  0.013
   22  0.011  0.002  0.001  0.014
   23  0.011  0.002  0.001  0.013
   24  0.011  0.002  0.001  0.014
   25  0.011  0.002  0.001  0.014
   26  0.011  0.002  0.001  0.014
   27  0.011  0.002  0.001  0.014
   28  0.018  0.001  0.000  0.019
   29  0.017  0.001  0.000  0.018
   30  0.017  0.001  0.000  0.018
   31  0.017  0.001  0.000  0.018
   32  0.017  0.001  0.000  0.018
   33  0.017  0.001  0.000  0.018
   34  0.017  0.001  0.000  0.018
   35  0.018  0.001  0.000  0.019
   36  0.015  0.001  0.001  0.017
   37  0.001  0.001  0.000  0.002
tot    0.507  0.057  0.020  0.583
 
band     4 # energy   -5.84348626 # occ.  2.00000000
 
ion      s      p      d    tot
    1  0.010  0.000  0.003  0.014
    2  0.008  0.001  0.005  0.013
    3  0.008  0.001  0.005  0.013
    4  0.008  0.001  0.005  0.013
    5  0.000  0.002  0.005  0.007
    6  0.008  0.001  0.005  0.013
    7  0.008  0.001  0.005  0.013
    8  0.008  0.001  0.005  0.013
    9  0.027  0.001  0.001  0.029
   10  0.002  0.003  0.006  0.010
   11  0.024  0.007  0.001  0.032
   12  0.002  0.003  0.006  0.010
   13  0.024  0.007  0.001  0.032
   14  0.024  0.007  0.001  0.032
   15  0.004  0.002  0.008  0.013
   16  0.002  0.003  0.006  0.010
   17  0.004  0.002  0.008  0.013
   18  0.004  0.002  0.008  0.013
   19  0.000  0.001  0.008  0.010
   20  0.031  0.006  0.003  0.040
   21  0.031  0.006  0.003  0.040
   22  0.001  0.005  0.004  0.011
   23  0.031  0.006  0.003  0.040
   24  0.001  0.005  0.004  0.011
   25  0.000  0.001  0.008  0.010
   26  0.000  0.001  0.008  0.010
   27  0.001  0.005  0.004  0.011
   28  0.016  0.000  0.002  0.018
   29  0.008  0.001  0.005  0.015
   30  0.008  0.001  0.005  0.015
   31  0.008  0.001  0.005  0.015
   32  0.008  0.001  0.005  0.015
   33  0.008  0.001  0.005  0.015
   34  0.008  0.001  0.005  0.015
   35  0.027  0.001  0.002  0.029
   36  0.002  0.002  0.017  0.021
   37  0.000  0.004  0.000  0.004
tot    0.363  0.094  0.180  0.637
 
band     5 # energy   -5.81462533 # occ.  2.00000000
 
ion      s      p      d    tot
    1  0.000  0.001  0.004  0.005
    2  0.008  0.002  0.002  0.012
    3  0.000  0.001  0.002  0.003
    4  0.006  0.002  0.002  0.010
    5  0.000  0.003  0.005  0.008
    6  0.007  0.002  0.002  0.011
    7  0.000  0.001  0.002  0.003
    8  0.008  0.002  0.002  0.012
    9  0.000  0.001  0.002  0.003
   10  0.038  0.005  0.002  0.045
   11  0.016  0.007  0.008  0.030
   12  0.007  0.001  0.013  0.022
   13  0.010  0.008  0.008  0.026
   14  0.052  0.002  0.006  0.060
   15  0.000  0.008  0.004  0.012
   16  0.012  0.002  0.012  0.025
   17  0.000  0.009  0.004  0.013
   18  0.001  0.001  0.005  0.007
   19  0.001  0.009  0.003  0.014
   20  0.062  0.003  0.006  0.070
   21  0.012  0.007  0.010  0.028
   22  0.006  0.001  0.013  0.021
   23  0.019  0.006  0.009  0.034
   24  0.032  0.005  0.002  0.039
   25  0.004  0.000  0.006  0.011
   26  0.001  0.010  0.003  0.014
   27  0.010  0.002  0.012  0.024
   28  0.000  0.001  0.003  0.004
   29  0.010  0.003  0.003  0.016
   30  0.000  0.001  0.002  0.003
   31  0.009  0.003  0.003  0.015
   32  0.006  0.002  0.002  0.011
   33  0.000  0.001  0.002  0.004
   34  0.008  0.002  0.002  0.012
   35  0.000  0.001  0.004  0.005
   36  0.000  0.005  0.005  0.011
   37  0.000  0.000  0.000  0.000
tot    0.348  0.118  0.176  0.642
 
band     6 # energy   -5.81459933 # occ.  2.00000000
 
ion      s      p      d    tot
    1  0.000  0.001  0.004  0.005
    2  0.002  0.001  0.002  0.005
    3  0.009  0.002  0.002  0.014
    4  0.003  0.001  0.002  0.007
    5  0.000  0.003  0.005  0.008
    6  0.003  0.001  0.002  0.006
    7  0.010  0.002  0.002  0.014
    8  0.002  0.001  0.002  0.005
    9  0.000  0.001  0.002  0.003
   10  0.000  0.000  0.016  0.016
   11  0.036  0.004  0.007  0.047
   12  0.031  0.004  0.005  0.039
   13  0.042  0.003  0.006  0.052
   14  0.000  0.009  0.008  0.017
   15  0.001  0.004  0.004  0.009
   16  0.026  0.003  0.006  0.036
   17  0.001  0.003  0.005  0.008
   18  0.000  0.011  0.003  0.014
   19  0.003  0.004  0.005  0.012
   20  0.000  0.008  0.011  0.019
   21  0.050  0.004  0.007  0.060
   22  0.026  0.004  0.005  0.035
   23  0.043  0.004  0.007  0.054
   24  0.000  0.001  0.016  0.017
   25  0.000  0.013  0.002  0.015
   26  0.003  0.003  0.005  0.011
   27  0.022  0.003  0.006  0.032
   28  0.000  0.001  0.003  0.004
   29  0.001  0.001  0.002  0.004
   30  0.012  0.003  0.003  0.017
   31  0.002  0.001  0.002  0.006
   32  0.005  0.002  0.003  0.010
   33  0.011  0.003  0.003  0.016
   34  0.004  0.002  0.003  0.008
   35  0.000  0.001  0.004  0.005
   36  0.000  0.005  0.005  0.010
   37  0.000  0.000  0.000  0.000
tot    0.348  0.118  0.176  0.642
 
band     7 # energy   -5.79924788 # occ.  2.00000000
 
ion      s      p      d    tot
    1  0.026  0.002  0.000  0.029
    2  0.001  0.002  0.004  0.007
    3  0.001  0.002  0.004  0.007
    4  0.001  0.002  0.004  0.007
    5  0.000  0.000  0.001  0.002
    6  0.001  0.002  0.004  0.007
    7  0.001  0.002  0.004  0.007
    8  0.001  0.002  0.004  0.007
    9  0.006  0.002  0.002  0.010
   10  0.021  0.004  0.008  0.033
   11  0.003  0.001  0.010  0.014
   12  0.021  0.004  0.008  0.032
   13  0.003  0.001  0.010  0.015
   14  0.003  0.001  0.010  0.014
   15  0.021  0.009  0.002  0.031
   16  0.021  0.004  0.008  0.032
   17  0.021  0.009  0.002  0.031
   18  0.021  0.009  0.002  0.032
   19  0.014  0.008  0.003  0.025
   20  0.000  0.001  0.011  0.012
   21  0.000  0.001  0.011  0.012
   22  0.031  0.004  0.007  0.042
   23  0.000  0.001  0.011  0.012
   24  0.031  0.004  0.007  0.042
   25  0.013  0.008  0.003  0.025
   26  0.014  0.008  0.003  0.025
   27  0.031  0.004  0.007  0.042
   28  0.024  0.002  0.000  0.026
   29  0.001  0.002  0.004  0.007
   30  0.001  0.002  0.004  0.007
   31  0.001  0.002  0.004  0.007
   32  0.001  0.002  0.004  0.007
   33  0.001  0.002  0.004  0.007
   34  0.001  0.002  0.004  0.007
   35  0.007  0.003  0.003  0.013
   36  0.002  0.000  0.000  0.002
   37  0.000  0.000  0.000  0.001
tot    0.349  0.112  0.177  0.638
 
band     8 # energy   -5.79366303 # occ.  2.00000000
 
ion      s      p      d    tot
    1  0.000  0.002  0.003  0.006
    2  0.008  0.002  0.002  0.013
    3  0.000  0.001  0.002  0.003
    4  0.007  0.002  0.002  0.011
    5  0.000  0.000  0.003  0.003
    6  0.007  0.002  0.003  0.012
    7  0.000  0.001  0.002  0.003
    8  0.008  0.002  0.003  0.013
    9  0.000  0.003  0.006  0.009
   10  0.000  0.013  0.002  0.016
   11  0.006  0.004  0.005  0.015
   12  0.019  0.003  0.006  0.028
   13  0.007  0.003  0.004  0.015
   14  0.000  0.005  0.010  0.015
   15  0.043  0.004  0.007  0.054
   16  0.016  0.004  0.005  0.026
   17  0.050  0.004  0.006  0.060
   18  0.000  0.002  0.016  0.018
   19  0.041  0.004  0.007  0.052
   20  0.000  0.006  0.009  0.015
   21  0.004  0.003  0.005  0.012
   22  0.026  0.003  0.006  0.035
   23  0.003  0.004  0.005  0.012
   24  0.000  0.013  0.003  0.016
   25  0.000  0.001  0.017  0.018
   26  0.047  0.004  0.006  0.057
   27  0.022  0.004  0.006  0.032
   28  0.000  0.002  0.005  0.008
   29  0.009  0.002  0.003  0.014
   30  0.000  0.001  0.002  0.003
   31  0.008  0.002  0.003  0.013
   32  0.005  0.002  0.002  0.009
   33  0.000  0.001  0.002  0.004
   34  0.007  0.002  0.002  0.011
   35  0.000  0.003  0.004  0.007
   36  0.000  0.000  0.002  0.002
   37  0.000  0.000  0.000  0.000
tot    0.345  0.116  0.178  0.639
 
band     9 # energy   -5.79364451 # occ.  2.00000000
 
ion      s      p      d    tot
    1  0.000  0.002  0.003  0.006
    2  0.002  0.001  0.002  0.006
    3  0.010  0.003  0.002  0.015
    4  0.003  0.001  0.002  0.007
    5  0.000  0.000  0.003  0.003
    6  0.003  0.001  0.002  0.006
    7  0.010  0.003  0.003  0.015
    8  0.002  0.001  0.002  0.005
    9  0.000  0.003  0.006  0.009
   10  0.023  0.000  0.007  0.031
   11  0.003  0.004  0.008  0.015
   12  0.005  0.011  0.003  0.019
   13  0.002  0.004  0.009  0.015
   14  0.009  0.003  0.003  0.015
   15  0.019  0.003  0.012  0.034
   16  0.007  0.009  0.004  0.020
   17  0.012  0.003  0.013  0.028
   18  0.061  0.004  0.004  0.069
   19  0.018  0.002  0.013  0.033
   20  0.004  0.002  0.004  0.010
   21  0.001  0.006  0.008  0.014
   22  0.006  0.011  0.004  0.021
   23  0.001  0.005  0.007  0.014
   24  0.032  0.001  0.007  0.040
   25  0.059  0.005  0.003  0.066
   26  0.012  0.002  0.014  0.027
   27  0.010  0.009  0.004  0.023
   28  0.000  0.002  0.005  0.008
   29  0.001  0.001  0.002  0.004
   30  0.010  0.002  0.002  0.015
   31  0.002  0.001  0.002  0.005
   32  0.005  0.002  0.003  0.009
   33  0.010  0.002  0.002  0.014
   34  0.003  0.002  0.002  0.007
   35  0.000  0.003  0.004  0.007
   36  0.000  0.000  0.002  0.002
   37  0.000  0.000  0.000  0.000
tot    0.345  0.116  0.178  0.639
 
band    10 # energy   -5.77535519 # occ.  2.00000000
 
ion      s      p      d    tot
    1  0.001  0.001  0.005  0.006
    2  0.008  0.001  0.006  0.015
    3  0.008  0.001  0.006  0.015
    4  0.008  0.001  0.006  0.015
    5  0.039  0.001  0.001  0.041
    6  0.008  0.001  0.006  0.015
    7  0.008  0.001  0.006  0.015
    8  0.008  0.001  0.006  0.015
    9  0.003  0.001  0.006  0.009
   10  0.014  0.006  0.003  0.023
   11  0.007  0.004  0.007  0.018
   12  0.014  0.006  0.003  0.023
   13  0.007  0.004  0.007  0.018
   14  0.007  0.004  0.007  0.018
   15  0.012  0.002  0.007  0.022
   16  0.014  0.006  0.003  0.023
   17  0.012  0.002  0.007  0.022
   18  0.012  0.002  0.007  0.022
   19  0.020  0.004  0.005  0.028
   20  0.006  0.006  0.004  0.015
   21  0.006  0.006  0.004  0.016
   22  0.002  0.004  0.006  0.012
   23  0.006  0.006  0.004  0.016
   24  0.002  0.004  0.006  0.012
   25  0.020  0.004  0.005  0.028
   26  0.020  0.004  0.005  0.028
   27  0.002  0.004  0.006  0.012
   28  0.000  0.001  0.006  0.008
   29  0.008  0.001  0.005  0.014
   30  0.008  0.001  0.005  0.014
   31  0.008  0.001  0.005  0.014
   32  0.008  0.001  0.005  0.014
   33  0.008  0.001  0.005  0.014
   34  0.008  0.001  0.005  0.014
   35  0.006  0.000  0.003  0.009
   36  0.032  0.001  0.000  0.034
   37  0.002  0.006  0.000  0.008
tot    0.366  0.098  0.179  0.644
 
band    11 # energy   -5.08815940 # occ.  2.00000000
 
ion      s      p      d    tot
    1  0.012  0.000  0.003  0.015
    2  0.002  0.002  0.009  0.013
    3  0.002  0.002  0.009  0.013
    4  0.002  0.002  0.009  0.013
    5  0.014  0.004  0.005  0.024
    6  0.002  0.002  0.009  0.013
    7  0.002  0.002  0.009  0.013
    8  0.002  0.002  0.009  0.013
    9  0.018  0.000  0.001  0.020
   10  0.001  0.001  0.019  0.021
   11  0.018  0.003  0.012  0.033
   12  0.001  0.001  0.019  0.021
   13  0.018  0.003  0.012  0.033
   14  0.018  0.003  0.012  0.033
   15  0.001  0.001  0.013  0.015
   16  0.001  0.001  0.019  0.021
   17  0.001  0.001  0.013  0.015
   18  0.001  0.001  0.013  0.015
   19  0.000  0.000  0.009  0.010
   20  0.012  0.004  0.023  0.039
   21  0.012  0.004  0.023  0.039
   22  0.000  0.000  0.017  0.018
   23  0.012  0.004  0.023  0.039
   24  0.000  0.000  0.017  0.018
   25  0.000  0.000  0.009  0.010
   26  0.000  0.000  0.009  0.010
   27  0.000  0.000  0.017  0.018
   28  0.009  0.000  0.001  0.010
   29  0.001  0.001  0.006  0.009
   30  0.001  0.001  0.006  0.009
   31  0.001  0.001  0.006  0.009
   32  0.001  0.001  0.006  0.009
   33  0.001  0.001  0.006  0.009
   34  0.001  0.001  0.006  0.009
   35  0.013  0.000  0.002  0.015
   36  0.028  0.001  0.051  0.080
   37  0.004  0.052  0.000  0.056
tot    0.213  0.108  0.436  0.757
 
band    12 # energy   -5.04020656 # occ.  2.00000000
 
ion      s      p      d    tot
    1  0.000  0.002  0.010  0.012
    2  0.007  0.002  0.005  0.015
    3  0.020  0.004  0.005  0.030
    4  0.002  0.002  0.005  0.009
    5  0.000  0.006  0.009  0.015
    6  0.004  0.002  0.005  0.011
    7  0.021  0.004  0.005  0.030
    8  0.010  0.002  0.005  0.017
    9  0.000  0.001  0.012  0.014
   10  0.000  0.001  0.017  0.018
   11  0.019  0.004  0.008  0.030
   12  0.008  0.003  0.012  0.022
   13  0.013  0.003  0.013  0.029
   14  0.000  0.002  0.025  0.028
   15  0.001  0.001  0.009  0.011
   16  0.012  0.004  0.009  0.025
   17  0.001  0.002  0.012  0.014
   18  0.000  0.004  0.018  0.022
   19  0.001  0.001  0.009  0.011
   20  0.000  0.001  0.028  0.030
   21  0.011  0.003  0.014  0.029
   22  0.006  0.003  0.011  0.020
   23  0.016  0.005  0.008  0.028
   24  0.000  0.001  0.013  0.014
   25  0.000  0.003  0.022  0.025
   26  0.001  0.001  0.013  0.015
   27  0.009  0.004  0.011  0.023
   28  0.000  0.002  0.012  0.014
   29  0.009  0.002  0.005  0.017
   30  0.023  0.004  0.005  0.031
   31  0.003  0.002  0.005  0.010
   32  0.003  0.002  0.005  0.010
   33  0.023  0.004  0.005  0.031
   34  0.009  0.003  0.005  0.017
   35  0.000  0.001  0.009  0.011
   36  0.000  0.010  0.002  0.012
   37  0.000  0.004  0.000  0.004
tot    0.232  0.102  0.368  0.702
 
band    13 # energy   -5.04020091 # occ.  2.00000000
 
ion      s      p      d    tot
    1  0.000  0.002  0.010  0.012
    2  0.014  0.003  0.005  0.022
    3  0.001  0.002  0.005  0.008
    4  0.019  0.004  0.005  0.028
    5  0.000  0.006  0.009  0.015
    6  0.018  0.004  0.005  0.027
    7  0.000  0.002  0.005  0.007
    8  0.012  0.003  0.005  0.020
    9  0.000  0.001  0.012  0.014
   10  0.013  0.004  0.009  0.026
   11  0.003  0.002  0.023  0.028
   12  0.005  0.002  0.013  0.021
   13  0.008  0.003  0.018  0.029
   14  0.021  0.004  0.005  0.030
   15  0.000  0.004  0.017  0.021
   16  0.002  0.001  0.016  0.019
   17  0.000  0.003  0.014  0.017
   18  0.001  0.000  0.008  0.009
   19  0.000  0.003  0.020  0.023
   20  0.018  0.005  0.006  0.028
   21  0.007  0.003  0.019  0.029
   22  0.004  0.002  0.012  0.018
   23  0.002  0.002  0.025  0.029
   24  0.010  0.004  0.010  0.024
   25  0.001  0.000  0.007  0.009
   26  0.001  0.002  0.016  0.019
   27  0.001  0.001  0.013  0.015
   28  0.000  0.002  0.012  0.014
   29  0.014  0.003  0.005  0.022
   30  0.000  0.002  0.005  0.008
   31  0.020  0.004  0.005  0.028
   32  0.020  0.003  0.005  0.028
   33  0.001  0.002  0.005  0.008
   34  0.014  0.003  0.005  0.022
   35  0.000  0.001  0.009  0.011
   36  0.000  0.010  0.002  0.012
   37  0.000  0.004  0.000  0.004
tot    0.232  0.102  0.368  0.702
 
band    14 # energy   -5.02593039 # occ.  2.00000000
 
ion      s      p      d    tot
    1  0.034  0.004  0.000  0.038
    2  0.000  0.003  0.010  0.014
    3  0.000  0.003  0.010  0.014
    4  0.000  0.003  0.010  0.014
    5  0.000  0.000  0.000  0.000
    6  0.000  0.003  0.010  0.014
    7  0.000  0.003  0.010  0.014
    8  0.000  0.003  0.010  0.014
    9  0.031  0.003  0.000  0.035
   10  0.010  0.004  0.010  0.024
   11  0.001  0.000  0.015  0.016
   12  0.009  0.004  0.010  0.024
   13  0.001  0.000  0.015  0.016
   14  0.001  0.000  0.015  0.016
   15  0.006  0.003  0.018  0.028
   16  0.009  0.004  0.010  0.024
   17  0.006  0.003  0.018  0.028
   18  0.006  0.003  0.018  0.028
   19  0.006  0.004  0.018  0.027
   20  0.000  0.000  0.016  0.016
   21  0.000  0.000  0.016  0.016
   22  0.011  0.003  0.010  0.024
   23  0.000  0.000  0.016  0.016
   24  0.011  0.003  0.010  0.024
   25  0.006  0.004  0.018  0.027
   26  0.006  0.004  0.018  0.027
   27  0.011  0.003  0.010  0.024
   28  0.035  0.003  0.000  0.038
   29  0.000  0.003  0.010  0.013
   30  0.000  0.003  0.010  0.013
   31  0.000  0.003  0.010  0.013
   32  0.000  0.003  0.010  0.013
   33  0.000  0.003  0.010  0.013
   34  0.000  0.003  0.010  0.013
   35  0.027  0.004  0.001  0.032
   36  0.000  0.000  0.000  0.000
   37  0.000  0.000  0.000  0.000
tot    0.227  0.093  0.384  0.705
 
band    15 # energy   -5.01278531 # occ.  2.00000000
 
ion      s      p      d    tot
    1  0.000  0.004  0.011  0.016
    2  0.004  0.002  0.005  0.012
    3  0.021  0.004  0.006  0.031
    4  0.004  0.002  0.005  0.011
    5  0.000  0.000  0.012  0.012
    6  0.007  0.002  0.005  0.014
    7  0.022  0.004  0.006  0.031
    8  0.007  0.002  0.005  0.015
    9  0.000  0.005  0.008  0.013
   10  0.009  0.002  0.006  0.016
   11  0.001  0.002  0.014  0.016
   12  0.002  0.003  0.022  0.027
   13  0.001  0.002  0.013  0.016
   14  0.002  0.001  0.010  0.014
   15  0.005  0.001  0.019  0.025
   16  0.002  0.003  0.022  0.027
   17  0.005  0.002  0.019  0.026
   18  0.021  0.006  0.007  0.033
   19  0.005  0.001  0.019  0.025
   20  0.002  0.001  0.011  0.013
   21  0.000  0.002  0.015  0.017
   22  0.003  0.003  0.021  0.027
   23  0.000  0.002  0.015  0.017
   24  0.012  0.002  0.005  0.019
   25  0.021  0.005  0.007  0.033
   26  0.005  0.001  0.019  0.026
   27  0.003  0.003  0.022  0.027
   28  0.000  0.004  0.008  0.012
   29  0.005  0.002  0.005  0.013
   30  0.020  0.004  0.005  0.029
   31  0.005  0.002  0.005  0.012
   32  0.005  0.002  0.005  0.012
   33  0.020  0.004  0.005  0.029
   34  0.005  0.002  0.005  0.013
   35  0.000  0.005  0.010  0.015
   36  0.000  0.000  0.008  0.008
   37  0.000  0.000  0.000  0.000
tot    0.226  0.094  0.384  0.704
 
band    16 # energy   -5.01277167 # occ.  2.00000000
 
ion      s      p      d    tot
    1  0.000  0.004  0.011  0.016
    2  0.017  0.003  0.005  0.026
    3  0.000  0.002  0.005  0.007
    4  0.018  0.003  0.005  0.027
    5  0.000  0.000  0.012  0.012
    6  0.015  0.003  0.006  0.024
    7  0.000  0.002  0.005  0.007
    8  0.015  0.003  0.006  0.023
    9  0.000  0.005  0.008  0.013
   10  0.000  0.003  0.028  0.031
   11  0.002  0.002  0.011  0.014
   12  0.007  0.002  0.011  0.020
   13  0.002  0.002  0.011  0.015
   14  0.000  0.002  0.015  0.017
   15  0.016  0.004  0.011  0.031
   16  0.007  0.002  0.011  0.020
   17  0.015  0.004  0.011  0.031
   18  0.000  0.000  0.023  0.023
   19  0.016  0.004  0.011  0.031
   20  0.000  0.003  0.016  0.019
   21  0.001  0.002  0.012  0.015
   22  0.009  0.002  0.011  0.022
   23  0.001  0.001  0.012  0.014
   24  0.000  0.003  0.027  0.030
   25  0.000  0.000  0.023  0.023
   26  0.016  0.004  0.011  0.030
   27  0.009  0.002  0.011  0.022
   28  0.000  0.004  0.008  0.012
   29  0.015  0.003  0.005  0.023
   30  0.000  0.002  0.005  0.007
   31  0.015  0.003  0.005  0.023
   32  0.016  0.003  0.005  0.024
   33  0.000  0.002  0.005  0.007
   34  0.015  0.003  0.005  0.023
   35  0.000  0.005  0.010  0.015
   36  0.000  0.000  0.008  0.008
   37  0.000  0.000  0.000  0.000
tot    0.226  0.094  0.384  0.704
 
band    17 # energy   -4.99026241 # occ.  2.00000000
 
ion      s      p      d    tot
    1  0.000  0.001  0.006  0.007
    2  0.003  0.001  0.008  0.012
    3  0.003  0.001  0.008  0.012
    4  0.003  0.001  0.008  0.012
    5  0.027  0.000  0.003  0.031
    6  0.003  0.001  0.008  0.012
    7  0.003  0.001  0.008  0.012
    8  0.003  0.001  0.008  0.012
    9  0.000  0.001  0.007  0.008
   10  0.006  0.001  0.019  0.026
   11  0.000  0.001  0.020  0.021
   12  0.006  0.001  0.019  0.026
   13  0.000  0.001  0.020  0.021
   14  0.000  0.001  0.020  0.021
   15  0.009  0.001  0.020  0.030
   16  0.006  0.001  0.019  0.026
   17  0.009  0.001  0.020  0.030
   18  0.009  0.001  0.020  0.030
   19  0.012  0.000  0.022  0.035
   20  0.000  0.002  0.023  0.025
   21  0.000  0.002  0.023  0.025
   22  0.007  0.000  0.022  0.029
   23  0.000  0.002  0.023  0.025
   24  0.007  0.000  0.022  0.029
   25  0.012  0.000  0.022  0.035
   26  0.012  0.000  0.022  0.035
   27  0.007  0.000  0.022  0.029
   28  0.000  0.001  0.010  0.011
   29  0.004  0.001  0.010  0.015
   30  0.004  0.001  0.010  0.015
   31  0.004  0.001  0.010  0.015
   32  0.004  0.001  0.010  0.015
   33  0.004  0.001  0.010  0.015
   34  0.004  0.001  0.010  0.015
   35  0.000  0.001  0.008  0.009
   36  0.032  0.000  0.000  0.032
   37  0.003  0.012  0.000  0.015
tot    0.206  0.045  0.521  0.772
 
band    18 # energy   -4.50876991 # occ.  2.00000000
 
ion      s      p      d    tot
    1  0.012  0.001  0.000  0.013
    2  0.000  0.001  0.006  0.007
    3  0.000  0.001  0.006  0.007
    4  0.000  0.001  0.006  0.007
    5  0.010  0.001  0.000  0.011
    6  0.000  0.001  0.006  0.007
    7  0.000  0.001  0.006  0.007
    8  0.000  0.001  0.006  0.007
    9  0.000  0.000  0.000  0.000
   10  0.000  0.001  0.018  0.019
   11  0.000  0.002  0.014  0.016
   12  0.000  0.001  0.018  0.019
   13  0.000  0.002  0.014  0.016
   14  0.000  0.002  0.014  0.016
   15  0.000  0.000  0.001  0.001
   16  0.000  0.001  0.018  0.019
   17  0.000  0.000  0.001  0.001
   18  0.000  0.000  0.001  0.001
   19  0.001  0.001  0.013  0.014
   20  0.004  0.001  0.024  0.028
   21  0.004  0.001  0.024  0.028
   22  0.000  0.001  0.008  0.009
   23  0.004  0.001  0.024  0.028
   24  0.000  0.001  0.008  0.009
   25  0.001  0.001  0.013  0.014
   26  0.001  0.001  0.013  0.014
   27  0.000  0.001  0.008  0.009
   28  0.000  0.000  0.000  0.001
   29  0.000  0.001  0.004  0.005
   30  0.000  0.001  0.004  0.005
   31  0.000  0.001  0.004  0.005
   32  0.000  0.001  0.004  0.005
   33  0.000  0.001  0.004  0.005
   34  0.000  0.001  0.004  0.005
   35  0.004  0.000  0.001  0.005
   36  0.018  0.013  0.210  0.241
   37  0.014  0.259  0.000  0.273
tot    0.072  0.296  0.507  0.876
 
band    19 # energy   -4.44548832 # occ.  2.00000000
 
ion      s      p      d    tot
    1  0.000  0.002  0.001  0.002
    2  0.008  0.001  0.004  0.013
    3  0.005  0.001  0.004  0.010
    4  0.008  0.001  0.004  0.013
    5  0.000  0.001  0.012  0.013
    6  0.000  0.000  0.004  0.005
    7  0.005  0.001  0.004  0.010
    8  0.000  0.000  0.004  0.005
    9  0.000  0.000  0.013  0.013
   10  0.000  0.004  0.011  0.015
   11  0.000  0.000  0.025  0.025
   12  0.000  0.001  0.006  0.008
   13  0.000  0.000  0.025  0.025
   14  0.000  0.001  0.001  0.002
   15  0.000  0.000  0.011  0.011
   16  0.000  0.001  0.006  0.008
   17  0.000  0.000  0.011  0.011
   18  0.000  0.001  0.008  0.009
   19  0.000  0.000  0.022  0.023
   20  0.003  0.002  0.019  0.025
   21  0.001  0.001  0.012  0.014
   22  0.000  0.000  0.019  0.019
   23  0.001  0.001  0.012  0.014
   24  0.000  0.001  0.006  0.007
   25  0.001  0.001  0.004  0.005
   26  0.000  0.000  0.022  0.023
   27  0.000  0.000  0.019  0.019
   28  0.000  0.001  0.016  0.017
   29  0.016  0.002  0.013  0.030
   30  0.000  0.001  0.011  0.012
   31  0.016  0.002  0.013  0.030
   32  0.011  0.002  0.009  0.022
   33  0.000  0.001  0.011  0.012
   34  0.011  0.002  0.009  0.022
   35  0.000  0.000  0.023  0.023
   36  0.000  0.012  0.101  0.113
   37  0.000  0.138  0.000  0.138
tot    0.087  0.182  0.496  0.765
 
band    20 # energy   -4.44543827 # occ.  2.00000000
 
ion      s      p      d    tot
    1  0.000  0.002  0.001  0.002
    2  0.001  0.001  0.004  0.006
    3  0.004  0.001  0.004  0.008
    4  0.001  0.001  0.004  0.006
    5  0.000  0.001  0.012  0.013
    6  0.009  0.001  0.004  0.014
    7  0.004  0.001  0.004  0.008
    8  0.009  0.001  0.004  0.014
    9  0.000  0.000  0.013  0.013
   10  0.000  0.000  0.005  0.005
   11  0.000  0.001  0.009  0.010
   12  0.000  0.003  0.009  0.013
   13  0.000  0.001  0.009  0.010
   14  0.000  0.000  0.033  0.033
   15  0.000  0.001  0.009  0.010
   16  0.000  0.003  0.009  0.013
   17  0.000  0.001  0.009  0.010
   18  0.000  0.000  0.012  0.012
   19  0.000  0.001  0.010  0.011
   20  0.000  0.000  0.010  0.010
   21  0.002  0.002  0.017  0.021
   22  0.000  0.001  0.010  0.011
   23  0.002  0.002  0.017  0.021
   24  0.000  0.000  0.023  0.023
   25  0.000  0.000  0.029  0.029
   26  0.000  0.001  0.010  0.011
   27  0.000  0.001  0.010  0.011
   28  0.000  0.001  0.016  0.017
   29  0.002  0.001  0.009  0.013
   30  0.018  0.002  0.011  0.031
   31  0.002  0.001  0.009  0.013
   32  0.007  0.001  0.013  0.021
   33  0.018  0.002  0.011  0.031
   34  0.007  0.001  0.013  0.021
   35  0.000  0.000  0.023  0.023
   36  0.000  0.012  0.101  0.113
   37  0.000  0.138  0.000  0.138
tot    0.087  0.182  0.496  0.765
 
band    21 # energy   -4.32387162 # occ.  2.00000000
 
ion      s      p      d    tot
    1  0.000  0.000  0.001  0.001
    2  0.000  0.001  0.019  0.020
    3  0.000  0.001  0.018  0.020
    4  0.000  0.001  0.019  0.020
    5  0.023  0.001  0.001  0.024
    6  0.000  0.001  0.018  0.020
    7  0.000  0.001  0.018  0.020
    8  0.000  0.001  0.018  0.020
    9  0.023  0.001  0.002  0.027
   10  0.000  0.001  0.006  0.007
   11  0.000  0.001  0.028  0.030
   12  0.000  0.001  0.006  0.007
   13  0.000  0.001  0.028  0.030
   14  0.000  0.001  0.028  0.029
   15  0.001  0.003  0.035  0.040
   16  0.000  0.001  0.006  0.007
   17  0.001  0.003  0.035  0.040
   18  0.001  0.003  0.035  0.039
   19  0.000  0.001  0.021  0.022
   20  0.000  0.001  0.009  0.011
   21  0.000  0.001  0.009  0.011
   22  0.000  0.004  0.042  0.046
   23  0.000  0.001  0.009  0.011
   24  0.000  0.004  0.042  0.046
   25  0.000  0.001  0.021  0.022
   26  0.000  0.001  0.021  0.022
   27  0.000  0.004  0.042  0.046
   28  0.016  0.001  0.000  0.017
   29  0.000  0.001  0.018  0.019
   30  0.000  0.001  0.018  0.019
   31  0.000  0.001  0.018  0.019
   32  0.000  0.001  0.018  0.019
   33  0.000  0.001  0.018  0.019
   34  0.000  0.001  0.018  0.019
   35  0.028  0.001  0.001  0.030
   36  0.003  0.000  0.000  0.003