PROCAR new format
# of k-points:   10         # of bands:  252         # of ions:   39

 k-point     1 :    0.00000000 0.00000000 0.00000000     weight = 0.01562500

band     1 # energy  -23.29066478 # occ.  2.00000000
 
ion      s      p      d    tot
    1  0.000  0.000  0.000  0.000
    2  0.000  0.000  0.000  0.000
    3  0.000  0.000  0.000  0.000
    4  0.000  0.000  0.000  0.000
    5  0.000  0.000  0.000  0.000
    6  0.000  0.000  0.000  0.000
    7  0.000  0.000  0.000  0.000
    8  0.000  0.000  0.000  0.000
    9  0.000  0.000  0.000  0.000
   10  0.000  0.000  0.000  0.000
   11  0.000  0.000  0.000  0.000
   12  0.000  0.000  0.000  0.000
   13  0.000  0.000  0.000  0.000
   14  0.000  0.000  0.000  0.000
   15  0.000  0.000  0.000  0.000
   16  0.000  0.000  0.000  0.000
   17  0.000  0.000  0.000  0.000
   18  0.000  0.000  0.000  0.000
   19  0.000  0.000  0.000  0.000
   20  0.000  0.000  0.000  0.000
   21  0.000  0.000  0.000  0.000
   22  0.000  0.000  0.000  0.000
   23  0.000  0.000  0.000  0.000
   24  0.000  0.000  0.000  0.000
   25  0.000  0.000  0.000  0.000
   26  0.000  0.000  0.000  0.000
   27  0.000  0.000  0.000  0.000
   28  0.000  0.000  0.000  0.000
   29  0.000  0.000  0.000  0.000
   30  0.000  0.000  0.000  0.000
   31  0.000  0.000  0.000  0.000
   32  0.000  0.000  0.000  0.000
   33  0.000  0.000  0.000  0.000
   34  0.000  0.000  0.000  0.000
   35  0.000  0.000  0.000  0.000
   36  0.000  0.000  0.000  0.000
   37  0.072  0.053  0.000  0.124
   38  0.727  0.005  0.000  0.731
   39  0.067  0.014  0.000  0.081
tot    0.865  0.072  0.000  0.937
 
band     2 # energy  -14.06824366 # occ.  2.00000000
 
ion      s      p      d    tot
    1  0.000  0.000  0.000  0.000
    2  0.000  0.000  0.000  0.000
    3  0.000  0.000  0.000  0.000
    4  0.000  0.000  0.000  0.000
    5  0.000  0.000  0.000  0.000
    6  0.000  0.000  0.000  0.000
    7  0.000  0.000  0.000  0.000
    8  0.000  0.000  0.000  0.000
    9  0.000  0.000  0.000  0.000
   10  0.000  0.000  0.000  0.000
   11  0.000  0.000  0.000  0.000
   12  0.000  0.000  0.000  0.000
   13  0.000  0.000  0.000  0.000
   14  0.000  0.000  0.000  0.000
   15  0.000  0.000  0.000  0.000
   16  0.000  0.000  0.000  0.000
   17  0.000  0.000  0.000  0.000
   18  0.000  0.000  0.000  0.000
   19  0.000  0.000  0.000  0.000
   20  0.000  0.000  0.000  0.000
   21  0.000  0.000  0.000  0.000
   22  0.000  0.000  0.000  0.000
   23  0.000  0.000  0.000  0.000
   24  0.000  0.000  0.000  0.000
   25  0.000  0.000  0.000  0.000
   26  0.000  0.000  0.000  0.000
   27  0.000  0.000  0.000  0.000
   28  0.000  0.000  0.000  0.000
   29  0.000  0.000  0.000  0.000
   30  0.000  0.000  0.000  0.000
   31  0.000  0.000  0.000  0.000
   32  0.000  0.000  0.000  0.000
   33  0.000  0.000  0.000  0.000
   34  0.000  0.000  0.000  0.000
   35  0.000  0.000  0.000  0.000
   36  0.003  0.003  0.004  0.009
   37  0.159  0.051  0.000  0.210
   38  0.014  0.520  0.000  0.534
   39  0.201  0.032  0.000  0.233
tot    0.376  0.606  0.004  0.986
 
band     3 # energy   -7.09981863 # occ.  2.00000000
 
ion      s      p      d    tot
    1  0.001  0.000  0.000  0.001
    2  0.001  0.000  0.000  0.001
    3  0.001  0.000  0.000  0.001
    4  0.001  0.000  0.000  0.001
    5  0.001  0.000  0.000  0.001
    6  0.001  0.000  0.000  0.001
    7  0.001  0.000  0.000  0.001
    8  0.001  0.000  0.000  0.001
    9  0.001  0.000  0.000  0.001
   10  0.005  0.000  0.000  0.006
   11  0.005  0.000  0.000  0.005
   12  0.005  0.000  0.000  0.006
   13  0.005  0.000  0.000  0.005
   14  0.005  0.000  0.000  0.005
   15  0.004  0.000  0.000  0.004
   16  0.005  0.000  0.000  0.006
   17  0.004  0.000  0.000  0.004
   18  0.004  0.000  0.000  0.004
   19  0.008  0.000  0.001  0.008
   20  0.021  0.001  0.010  0.032
   21  0.021  0.001  0.010  0.032
   22  0.007  0.000  0.000  0.007
   23  0.021  0.001  0.010  0.032
   24  0.007  0.000  0.000  0.007
   25  0.008  0.000  0.001  0.008
   26  0.008  0.000  0.001  0.008
   27  0.007  0.000  0.000  0.007
   28  0.003  0.000  0.000  0.003
   29  0.008  0.001  0.002  0.011
   30  0.008  0.001  0.002  0.011
   31  0.008  0.001  0.002  0.011
   32  0.008  0.001  0.002  0.011
   33  0.008  0.001  0.002  0.011
   34  0.008  0.001  0.002  0.011
   35  0.003  0.000  0.000  0.003
   36  0.178  0.018  0.094  0.290
   37  0.096  0.088  0.000  0.184
   38  0.008  0.029  0.000  0.037
   39  0.008  0.001  0.000  0.009
tot    0.495  0.146  0.141  0.782
 
band     4 # energy   -6.55317617 # occ.  2.00000000
 
ion      s      p      d    tot
    1  0.006  0.001  0.000  0.007
    2  0.007  0.001  0.000  0.007
    3  0.007  0.001  0.000  0.007
    4  0.007  0.001  0.000  0.007
    5  0.007  0.001  0.000  0.008
    6  0.007  0.001  0.000  0.007
    7  0.007  0.001  0.000  0.007
    8  0.007  0.001  0.000  0.007
    9  0.007  0.001  0.000  0.008
   10  0.020  0.000  0.001  0.021
   11  0.022  0.000  0.001  0.023
   12  0.020  0.000  0.001  0.021
   13  0.022  0.000  0.001  0.023
   14  0.022  0.000  0.001  0.023
   15  0.022  0.000  0.001  0.023
   16  0.020  0.000  0.001  0.021
   17  0.022  0.000  0.001  0.023
   18  0.022  0.000  0.001  0.023
   19  0.013  0.000  0.000  0.014
   20  0.007  0.001  0.007  0.016
   21  0.007  0.001  0.007  0.016
   22  0.014  0.000  0.000  0.015
   23  0.007  0.001  0.007  0.016
   24  0.014  0.000  0.000  0.015
   25  0.013  0.000  0.000  0.014
   26  0.013  0.000  0.000  0.014
   27  0.014  0.000  0.000  0.015
   28  0.002  0.000  0.000  0.002
   29  0.000  0.001  0.002  0.003
   30  0.000  0.001  0.002  0.003
   31  0.000  0.001  0.002  0.003
   32  0.000  0.001  0.002  0.003
   33  0.000  0.001  0.002  0.003
   34  0.000  0.001  0.002  0.003
   35  0.002  0.000  0.000  0.002
   36  0.038  0.022  0.056  0.116
   37  0.053  0.044  0.000  0.097
   38  0.004  0.014  0.000  0.018
   39  0.004  0.000  0.000  0.004
tot    0.462  0.096  0.100  0.658
 
band     5 # energy   -6.11333447 # occ.  2.00000000
 
ion      s      p      d    tot
    1  0.000  0.000  0.000  0.000
    2  0.000  0.000  0.000  0.000
    3  0.000  0.000  0.000  0.000
    4  0.000  0.000  0.000  0.000
    5  0.000  0.000  0.000  0.000
    6  0.000  0.000  0.000  0.000
    7  0.000  0.000  0.000  0.000
    8  0.000  0.000  0.000  0.000
    9  0.000  0.000  0.000  0.000
   10  0.000  0.000  0.000  0.000
   11  0.000  0.000  0.000  0.000
   12  0.000  0.000  0.000  0.000
   13  0.000  0.000  0.000  0.000
   14  0.000  0.000  0.000  0.000
   15  0.000  0.000  0.000  0.000
   16  0.000  0.000  0.000  0.000
   17  0.000  0.000  0.000  0.000
   18  0.000  0.000  0.000  0.000
   19  0.000  0.000  0.000  0.000
   20  0.000  0.000  0.001  0.001
   21  0.000  0.000  0.001  0.001
   22  0.000  0.000  0.000  0.000
   23  0.000  0.000  0.001  0.001
   24  0.000  0.000  0.000  0.000
   25  0.000  0.000  0.000  0.000
   26  0.000  0.000  0.000  0.000
   27  0.000  0.000  0.000  0.000
   28  0.000  0.000  0.000  0.000
   29  0.000  0.000  0.002  0.002
   30  0.000  0.000  0.001  0.001
   31  0.000  0.000  0.002  0.002
   32  0.000  0.000  0.002  0.003
   33  0.000  0.000  0.001  0.001
   34  0.000  0.000  0.002  0.003
   35  0.000  0.000  0.000  0.000
   36  0.000  0.002  0.017  0.019
   37  0.000  0.107  0.000  0.107
   38  0.000  0.528  0.000  0.528
   39  0.000  0.008  0.000  0.008
tot    0.002  0.646  0.030  0.677
 
band     6 # energy   -6.11319012 # occ.  2.00000000
 
ion      s      p      d    tot
    1  0.000  0.000  0.000  0.000
    2  0.000  0.000  0.000  0.000
    3  0.000  0.000  0.000  0.000
    4  0.000  0.000  0.000  0.000
    5  0.000  0.000  0.000  0.000
    6  0.000  0.000  0.000  0.000
    7  0.000  0.000  0.000  0.000
    8  0.000  0.000  0.000  0.000
    9  0.000  0.000  0.000  0.000
   10  0.000  0.000  0.000  0.000
   11  0.000  0.000  0.000  0.000
   12  0.000  0.000  0.000  0.000
   13  0.000  0.000  0.000  0.000
   14  0.000  0.000  0.000  0.000
   15  0.000  0.000  0.000  0.000
   16  0.000  0.000  0.000  0.000
   17  0.000  0.000  0.000  0.000
   18  0.000  0.000  0.000  0.000
   19  0.000  0.000  0.000  0.000
   20  0.000  0.000  0.001  0.001
   21  0.000  0.000  0.001  0.001
   22  0.000  0.000  0.000  0.000
   23  0.000  0.000  0.001  0.001
   24  0.000  0.000  0.000  0.000
   25  0.000  0.000  0.000  0.000
   26  0.000  0.000  0.000  0.000
   27  0.000  0.000  0.000  0.000
   28  0.000  0.000  0.000  0.000
   29  0.000  0.000  0.001  0.001
   30  0.001  0.000  0.002  0.003
   31  0.000  0.000  0.001  0.001
   32  0.000  0.000  0.001  0.001
   33  0.001  0.000  0.002  0.003
   34  0.000  0.000  0.001  0.001
   35  0.000  0.000  0.000  0.000
   36  0.000  0.002  0.017  0.019
   37  0.000  0.107  0.000  0.107
   38  0.000  0.528  0.000  0.528
   39  0.000  0.008  0.000  0.008
tot    0.002  0.646  0.030  0.677
 
band     7 # energy   -5.82246175 # occ.  2.00000000
 
ion      s      p      d    tot
    1  0.007  0.000  0.000  0.007
    2  0.005  0.000  0.000  0.006
    3  0.005  0.000  0.000  0.006
    4  0.005  0.000  0.000  0.006
    5  0.005  0.000  0.000  0.005
    6  0.005  0.000  0.000  0.006
    7  0.005  0.000  0.000  0.006
    8  0.005  0.000  0.000  0.006
    9  0.005  0.000  0.000  0.005
   10  0.011  0.001  0.015  0.027
   11  0.008  0.001  0.019  0.028
   12  0.011  0.001  0.015  0.027
   13  0.008  0.001  0.019  0.028
   14  0.008  0.001  0.019  0.028
   15  0.006  0.001  0.014  0.022
   16  0.011  0.001  0.015  0.027
   17  0.006  0.001  0.014  0.022
   18  0.006  0.001  0.014  0.022
   19  0.013  0.001  0.021  0.035
   20  0.010  0.000  0.038  0.049
   21  0.010  0.000  0.038  0.049
   22  0.016  0.000  0.019  0.036
   23  0.010  0.000  0.038  0.049
   24  0.016  0.000  0.019  0.036
   25  0.013  0.001  0.021  0.035
   26  0.013  0.001  0.021  0.035
   27  0.016  0.000  0.019  0.036
   28  0.005  0.000  0.000  0.006
   29  0.003  0.001  0.001  0.005
   30  0.003  0.001  0.001  0.005
   31  0.003  0.001  0.001  0.005
   32  0.003  0.001  0.001  0.005
   33  0.003  0.001  0.001  0.005
   34  0.003  0.001  0.001  0.005
   35  0.005  0.001  0.000  0.006
   36  0.001  0.005  0.008  0.014
   37  0.008  0.006  0.000  0.014
   38  0.001  0.002  0.000  0.002
   39  0.001  0.000  0.000  0.001
tot    0.278  0.031  0.397  0.707
 
band     8 # energy   -5.61756816 # occ.  2.00000000
 
ion      s      p      d    tot
    1  0.011  0.000  0.012  0.023
    2  0.008  0.000  0.010  0.018
    3  0.008  0.000  0.010  0.018
    4  0.008  0.000  0.010  0.018
    5  0.005  0.000  0.007  0.012
    6  0.008  0.000  0.010  0.018
    7  0.008  0.000  0.010  0.018
    8  0.008  0.000  0.010  0.018
    9  0.008  0.000  0.008  0.016
   10  0.000  0.000  0.019  0.020
   11  0.000  0.000  0.004  0.005
   12  0.000  0.000  0.019  0.020
   13  0.000  0.000  0.004  0.005
   14  0.000  0.000  0.004  0.005
   15  0.000  0.000  0.003  0.004
   16  0.000  0.000  0.019  0.020
   17  0.000  0.000  0.003  0.004
   18  0.000  0.000  0.003  0.004
   19  0.001  0.001  0.014  0.015
   20  0.000  0.000  0.066  0.066
   21  0.000  0.000  0.066  0.066
   22  0.002  0.000  0.006  0.008
   23  0.000  0.000  0.066  0.066
   24  0.002  0.000  0.006  0.008
   25  0.001  0.001  0.014  0.015
   26  0.001  0.001  0.014  0.015
   27  0.002  0.000  0.006  0.008
   28  0.008  0.000  0.008  0.016
   29  0.012  0.000  0.016  0.028
   30  0.012  0.000  0.016  0.028
   31  0.012  0.000  0.016  0.028
   32  0.012  0.000  0.016  0.028
   33  0.012  0.000  0.016  0.028
   34  0.012  0.000  0.016  0.028
   35  0.015  0.000  0.008  0.023
   36  0.006  0.000  0.042  0.049
   37  0.004  0.003  0.000  0.007
   38  0.000  0.001  0.000  0.001
   39  0.000  0.000  0.000  0.000
tot    0.188  0.013  0.578  0.779
 
band     9 # energy   -5.49650257 # occ.  2.00000000
 
ion      s      p      d    tot
    1  0.000  0.000  0.007  0.007
    2  0.000  0.000  0.002  0.002
    3  0.000  0.000  0.002  0.002
    4  0.001  0.000  0.002  0.003
    5  0.000  0.000  0.004  0.004
    6  0.000  0.000  0.002  0.002
    7  0.001  0.000  0.002  0.003
    8  0.000  0.000  0.002  0.002
    9  0.000  0.000  0.001  0.001
   10  0.002  0.001  0.019  0.021
   11  0.000  0.000  0.024  0.024
   12  0.005  0.001  0.016  0.022
   13  0.000  0.000  0.022  0.022
   14  0.000  0.000  0.023  0.024
   15  0.001  0.000  0.008  0.008
   16  0.001  0.001  0.019  0.021
   17  0.003  0.001  0.009  0.013
   18  0.001  0.000  0.008  0.009
   19  0.004  0.001  0.028  0.033
   20  0.007  0.000  0.136  0.144
   21  0.024  0.000  0.009  0.034
   22  0.000  0.000  0.033  0.033
   23  0.005  0.000  0.154  0.159
   24  0.000  0.001  0.038  0.039
   25  0.006  0.001  0.030  0.037
   26  0.021  0.000  0.042  0.063
   27  0.000  0.001  0.039  0.040
   28  0.000  0.000  0.005  0.005
   29  0.000  0.000  0.007  0.008
   30  0.001  0.000  0.003  0.004
   31  0.000  0.000  0.005  0.005
   32  0.001  0.000  0.003  0.004
   33  0.000  0.000  0.006  0.006
   34  0.000  0.000  0.007  0.008
   35  0.000  0.000  0.000  0.000
   36  0.000  0.002  0.006  0.008
   37  0.000  0.000  0.000  0.000
   38  0.000  0.002  0.000  0.002
   39  0.000  0.000  0.000  0.000
tot    0.086  0.016  0.723  0.825
 
band    10 # energy   -5.49647959 # occ.  2.00000000
 
ion      s      p      d    tot
    1  0.000  0.000  0.007  0.007
    2  0.001  0.000  0.002  0.003
    3  0.001  0.000  0.002  0.003
    4  0.000  0.000  0.002  0.002
    5  0.000  0.000  0.004  0.004
    6  0.001  0.000  0.002  0.003
    7  0.000  0.000  0.002  0.002
    8  0.001  0.000  0.002  0.003
    9  0.000  0.000  0.001  0.001
   10  0.004  0.001  0.017  0.022
   11  0.000  0.000  0.022  0.023
   12  0.000  0.001  0.020  0.020
   13  0.000  0.000  0.024  0.025
   14  0.000  0.000  0.022  0.023
   15  0.003  0.000  0.009  0.012
   16  0.004  0.001  0.017  0.022
   17  0.000  0.000  0.007  0.007
   18  0.002  0.000  0.009  0.011
   19  0.016  0.001  0.039  0.056
   20  0.017  0.000  0.064  0.081
   21  0.000  0.000  0.190  0.191
   22  0.000  0.001  0.040  0.041
   23  0.019  0.000  0.046  0.065
   24  0.000  0.001  0.035  0.036
   25  0.014  0.001  0.037  0.052
   26  0.000  0.001  0.025  0.026
   27  0.000  0.001  0.034  0.035
   28  0.000  0.000  0.005  0.005
   29  0.000  0.000  0.003  0.004
   30  0.000  0.000  0.007  0.007
   31  0.001  0.000  0.005  0.006
   32  0.000  0.000  0.007  0.008
   33  0.001  0.000  0.005  0.006
   34  0.001  0.000  0.003  0.004
   35  0.000  0.000  0.000  0.000
   36  0.000  0.002  0.006  0.008
   37  0.000  0.000  0.000  0.000
   38  0.000  0.002  0.000  0.002
   39  0.000  0.000  0.000  0.000
tot    0.086  0.016  0.723  0.825
 
band    11 # energy   -5.48953128 # occ.  2.00000000
 
ion      s      p      d    tot
    1  0.006  0.000  0.012  0.018
    2  0.008  0.000  0.019  0.027
    3  0.008  0.000  0.019  0.027
    4  0.008  0.000  0.019  0.027
    5  0.013  0.000  0.022  0.036
    6  0.008  0.000  0.019  0.027
    7  0.008  0.000  0.019  0.027
    8  0.008  0.000  0.019  0.027
    9  0.007  0.000  0.015  0.022
   10  0.001  0.001  0.001  0.003
   11  0.002  0.001  0.035  0.037
   12  0.001  0.001  0.001  0.003
   13  0.002  0.001  0.035  0.038
   14  0.002  0.001  0.035  0.038
   15  0.000  0.000  0.024  0.024
   16  0.001  0.001  0.001  0.003
   17  0.000  0.000  0.024  0.024
   18  0.000  0.000  0.024  0.024
   19  0.004  0.000  0.013  0.017
   20  0.003  0.000  0.071  0.074
   21  0.003  0.000  0.071  0.074
   22  0.003  0.000  0.014  0.017
   23  0.003  0.000  0.071  0.074
   24  0.003  0.000  0.014  0.017
   25  0.003  0.000  0.013  0.017
   26  0.003  0.000  0.013  0.017
   27  0.003  0.000  0.014  0.017
   28  0.001  0.000  0.000  0.001
   29  0.000  0.000  0.006  0.007
   30  0.000  0.000  0.006  0.007
   31  0.000  0.000  0.006  0.007
   32  0.000  0.000  0.006  0.007
   33  0.000  0.000  0.006  0.007
   34  0.000  0.000  0.006  0.007
   35  0.001  0.000  0.001  0.002
   36  0.003  0.002  0.003  0.007
   37  0.001  0.000  0.000  0.001
   38  0.000  0.000  0.000  0.000
   39  0.000  0.000  0.000  0.000
tot    0.119  0.010  0.680  0.809
 
band    12 # energy   -5.46732384 # occ.  2.00000000
 
ion      s      p      d    tot
    1  0.000  0.000  0.005  0.006
    2  0.001  0.000  0.003  0.005
    3  0.001  0.001  0.006  0.009
    4  0.000  0.000  0.005  0.005
    5  0.000  0.000  0.008  0.009
    6  0.001  0.001  0.007  0.009
    7  0.000  0.000  0.003  0.003
    8  0.001  0.000  0.002  0.003
    9  0.000  0.000  0.001  0.001
   10  0.005  0.001  0.049  0.055
   11  0.029  0.001  0.024  0.054
   12  0.000  0.000  0.092  0.093
   13  0.001  0.001  0.081  0.084
   14  0.018  0.001  0.046  0.065
   15  0.005  0.000  0.032  0.037
   16  0.008  0.001  0.023  0.032
   17  0.000  0.002  0.008  0.009
   18  0.003  0.001  0.023  0.027
   19  0.000  0.000  0.015  0.015
   20  0.008  0.001  0.039  0.048
   21  0.001  0.001  0.031  0.033
   22  0.000  0.000  0.027  0.027
   23  0.013  0.001  0.043  0.057
   24  0.006  0.001  0.016  0.022
   25  0.000  0.000  0.017  0.018
   26  0.000  0.000  0.021  0.022
   27  0.009  0.001  0.009  0.020
   28  0.000  0.000  0.001  0.001
   29  0.000  0.000  0.004  0.004
   30  0.000  0.000  0.002  0.002
   31  0.002  0.000  0.005  0.007
   32  0.000  0.000  0.003  0.003
   33  0.002  0.000  0.006  0.008
   34  0.001  0.000  0.005  0.006
   35  0.000  0.000  0.006  0.006
   36  0.000  0.001  0.005  0.006
   37  0.000  0.000  0.000  0.000
   38  0.000  0.000  0.000  0.000
   39  0.000  0.000  0.000  0.000
tot    0.118  0.016  0.674  0.809
 
band    13 # energy   -5.46731368 # occ.  2.00000000
 
ion      s      p      d    tot
    1  0.000  0.000  0.005  0.006
    2  0.000  0.000  0.005  0.006
    3  0.000  0.000  0.002  0.003
    4  0.001  0.001  0.004  0.006
    5  0.000  0.000  0.008  0.009
    6  0.000  0.000  0.002  0.003
    7  0.002  0.001  0.006  0.008
    8  0.001  0.000  0.007  0.008
    9  0.000  0.000  0.001  0.001
   10  0.004  0.000  0.060  0.065
   11  0.003  0.001  0.077  0.081
   12  0.009  0.001  0.018  0.027
   13  0.031  0.001  0.019  0.051
   14  0.014  0.001  0.055  0.070
   15  0.001  0.001  0.010  0.012
   16  0.001  0.000  0.086  0.088
   17  0.005  0.000  0.034  0.039
   18  0.002  0.001  0.019  0.022
   19  0.000  0.000  0.021  0.021
   20  0.006  0.001  0.037  0.044
   21  0.014  0.001  0.044  0.059
   22  0.010  0.001  0.008  0.019
   23  0.002  0.001  0.032  0.035
   24  0.004  0.000  0.019  0.024
   25  0.000  0.000  0.018  0.019
   26  0.000  0.000  0.014  0.014
   27  0.001  0.000  0.025  0.027
   28  0.000  0.000  0.001  0.001
   29  0.001  0.000  0.004  0.006
   30  0.002  0.000  0.006  0.008
   31  0.000  0.000  0.003  0.004
   32  0.001  0.000  0.005  0.007
   33  0.000  0.000  0.002  0.002
   34  0.001  0.000  0.003  0.004
   35  0.000  0.000  0.006  0.006
   36  0.000  0.001  0.005  0.006
   37  0.000  0.000  0.000  0.000
   38  0.000  0.000  0.000  0.000
   39  0.000  0.000  0.000  0.000
tot    0.118  0.016  0.674  0.809
 
band    14 # energy   -5.44569045 # occ.  2.00000000
 
ion      s      p      d    tot
    1  0.001  0.000  0.002  0.003
    2  0.000  0.000  0.006  0.007
    3  0.000  0.000  0.006  0.007
    4  0.000  0.000  0.006  0.007
    5  0.003  0.000  0.001  0.004
    6  0.000  0.000  0.006  0.007
    7  0.000  0.000  0.006  0.007
    8  0.000  0.000  0.006  0.007
    9  0.002  0.001  0.011  0.015
   10  0.000  0.001  0.057  0.058
   11  0.009  0.001  0.008  0.019
   12  0.000  0.001  0.057  0.058
   13  0.009  0.001  0.008  0.019
   14  0.009  0.001  0.008  0.019
   15  0.013  0.000  0.043  0.057
   16  0.000  0.001  0.057  0.058
   17  0.013  0.000  0.043  0.057
   18  0.013  0.000  0.043  0.056
   19  0.005  0.000  0.031  0.036
   20  0.011  0.001  0.014  0.025
   21  0.011  0.001  0.014  0.025
   22  0.001  0.001  0.017  0.019
   23  0.011  0.001  0.014  0.025
   24  0.001  0.001  0.017  0.019
   25  0.005  0.000  0.031  0.036
   26  0.005  0.000  0.031  0.036
   27  0.001  0.001  0.017  0.019
   28  0.005  0.001  0.001  0.007
   29  0.000  0.000  0.012  0.012
   30  0.000  0.000  0.012  0.012
   31  0.000  0.000  0.012  0.012
   32  0.000  0.000  0.012  0.012
   33  0.000  0.000  0.012  0.012
   34  0.000  0.000  0.012  0.012
   35  0.000  0.000  0.001  0.001
   36  0.002  0.005  0.005  0.012
   37  0.003  0.002  0.000  0.005
   38  0.000  0.001  0.000  0.001
   39  0.000  0.000  0.000  0.000
tot    0.138  0.024  0.641  0.803
 
band    15 # energy   -5.43654675 # occ.  2.00000000
 
ion      s      p      d    tot
    1  0.001  0.001  0.017  0.020
    2  0.001  0.000  0.005  0.006
    3  0.001  0.000  0.005  0.006
    4  0.001  0.000  0.005  0.006
    5  0.003  0.000  0.002  0.006
    6  0.001  0.000  0.005  0.006
    7  0.001  0.000  0.005  0.006
    8  0.001  0.000  0.005  0.006
    9  0.003  0.000  0.001  0.004
   10  0.014  0.001  0.040  0.055
   11  0.003  0.000  0.082  0.084
   12  0.014  0.001  0.041  0.055
   13  0.003  0.000  0.082  0.084
   14  0.003  0.000  0.082  0.084
   15  0.004  0.001  0.010  0.015
   16  0.014  0.001  0.041  0.055
   17  0.004  0.001  0.010  0.015
   18  0.004  0.001  0.010  0.015
   19  0.006  0.001  0.017  0.024
   20  0.000  0.001  0.026  0.027
   21  0.000  0.001  0.026  0.027
   22  0.000  0.000  0.029  0.030
   23  0.000  0.001  0.026  0.027
   24  0.000  0.000  0.029  0.030
   25  0.006  0.001  0.017  0.024
   26  0.006  0.001  0.017  0.024
   27  0.000  0.000  0.029  0.030
   28  0.000  0.000  0.006  0.007
   29  0.000  0.000  0.004  0.005
   30  0.000  0.000  0.004  0.005
   31  0.000  0.000  0.004  0.005
   32  0.000  0.000  0.004  0.005
   33  0.000  0.000  0.004  0.005
   34  0.000  0.000  0.004  0.005
   35  0.003  0.000  0.000  0.003
   36  0.000  0.004  0.001  0.005
   37  0.003  0.002  0.000  0.004
   38  0.000  0.001  0.000  0.001
   39  0.000  0.000  0.000  0.000
tot    0.101  0.019  0.700  0.820
 
band    16 # energy   -5.41745375 # occ.  2.00000000
 
ion      s      p      d    tot
    1  0.002  0.000  0.007  0.009
    2  0.003  0.000  0.011  0.014
    3  0.003  0.000  0.011  0.014
    4  0.003  0.000  0.011  0.014
    5  0.000  0.000  0.005  0.005
    6  0.003  0.000  0.011  0.014
    7  0.003  0.000  0.011  0.014
    8  0.003  0.000  0.011  0.014
    9  0.008  0.000  0.014  0.021
   10  0.001  0.000  0.015  0.016
   11  0.001  0.000  0.005  0.006
   12  0.001  0.000  0.015  0.016
   13  0.001  0.000  0.005  0.006
   14  0.001  0.000  0.005  0.006
   15  0.001  0.000  0.027  0.029
   16  0.001  0.000  0.015  0.016
   17  0.001  0.000  0.027  0.029
   18  0.001  0.000  0.027  0.029
   19  0.004  0.001  0.008  0.013
   20  0.002  0.000  0.035  0.037
   21  0.002  0.000  0.035  0.037
   22  0.004  0.000  0.056  0.060
   23  0.002  0.000  0.035  0.037
   24  0.004  0.000  0.056  0.060
   25  0.004  0.001  0.008  0.013
   26  0.004  0.001  0.008  0.013
   27  0.004  0.000  0.056  0.060
   28  0.014  0.001  0.002  0.017
   29  0.006  0.000  0.017  0.023
   30  0.006  0.000  0.017  0.023
   31  0.006  0.000  0.017  0.023
   32  0.006  0.000  0.017  0.023
   33  0.006  0.000  0.017  0.023
   34  0.006  0.000  0.017  0.023
   35  0.006  0.000  0.039  0.045
   36  0.000  0.000  0.007  0.007
   37  0.001  0.001  0.000  0.002
   38  0.000  0.000  0.000  0.000
   39  0.000  0.000  0.000  0.000
tot    0.121  0.010  0.678  0.808
 
band    17 # energy   -5.41309799 # occ.  2.00000000
 
ion      s      p      d    tot
    1  0.000  0.001  0.009  0.009
    2  0.002  0.001  0.008  0.010
    3  0.000  0.000  0.006  0.006
    4  0.005  0.001  0.005  0.010
    5  0.000  0.000  0.009  0.009
    6  0.001  0.000  0.005  0.006
    7  0.005  0.001  0.005  0.011
    8  0.002  0.001  0.008  0.010
    9  0.000  0.000  0.012  0.012
   10  0.013  0.000  0.021  0.034
   11  0.000  0.000  0.022  0.022
   12  0.000  0.000  0.038  0.039
   13  0.000  0.000  0.013  0.014
   14  0.000  0.000  0.021  0.021
   15  0.010  0.000  0.021  0.031
   16  0.015  0.000  0.019  0.033
   17  0.000  0.000  0.060  0.060
   18  0.008  0.000  0.026  0.035
   19  0.007  0.000  0.023  0.030
   20  0.001  0.000  0.036  0.038
   21  0.000  0.001  0.017  0.017
   22  0.000  0.000  0.056  0.056
   23  0.001  0.000  0.039  0.041
   24  0.013  0.000  0.025  0.038
   25  0.006  0.000  0.030  0.036
   26  0.000  0.000  0.076  0.076
   27  0.015  0.000  0.020  0.035
   28  0.000  0.000  0.010  0.010
   29  0.003  0.001  0.009  0.013
   30  0.004  0.001  0.004  0.009
   31  0.000  0.000  0.005  0.005
   32  0.003  0.001  0.004  0.008
   33  0.000  0.000  0.006  0.006
   34  0.003  0.001  0.009  0.012
   35  0.000  0.000  0.005  0.006
   36  0.000  0.000  0.003  0.004
   37  0.000  0.000  0.000  0.000
   38  0.000  0.000  0.000  0.000
   39  0.000  0.000  0.000  0.000
tot    0.115  0.014  0.683  0.812
 
band    18 # energy   -5.41308284 # occ.  2.00000000
 
ion      s      p      d    tot
    1  0.000  0.001  0.009  0.009
    2  0.003  0.001  0.004  0.008
    3  0.004  0.001  0.006  0.012
    4  0.000  0.000  0.007  0.008
    5  0.000  0.000  0.009  0.009
    6  0.004  0.001  0.007  0.011
    7  0.000  0.000  0.007  0.007
    8  0.003  0.000  0.005  0.008
    9  0.000  0.000  0.012  0.012
   10  0.006  0.000  0.031  0.037
   11  0.000  0.000  0.015  0.016
   12  0.018  0.000  0.014  0.032
   13  0.000  0.000  0.024  0.025
   14  0.000  0.000  0.017  0.017
   15  0.002  0.000  0.050  0.053
   16  0.004  0.000  0.033  0.037
   17  0.012  0.000  0.012  0.024
   18  0.004  0.000  0.045  0.049
   19  0.002  0.000  0.063  0.065
   20  0.000  0.001  0.025  0.026
   21  0.002  0.000  0.045  0.047
   22  0.018  0.000  0.011  0.030
   23  0.000  0.001  0.022  0.023
   24  0.006  0.000  0.042  0.048
   25  0.002  0.000  0.056  0.059
   26  0.008  0.000  0.010  0.018
   27  0.004  0.000  0.047  0.051
   28  0.000  0.000  0.010  0.010
   29  0.001  0.000  0.004  0.005
   30  0.001  0.000  0.008  0.009
   31  0.004  0.001  0.007  0.012
   32  0.001  0.000  0.008  0.010
   33  0.004  0.001  0.006  0.012
   34  0.002  0.000  0.003  0.005
   35  0.000  0.000  0.005  0.006
   36  0.000  0.000  0.003  0.004
   37  0.000  0.000  0.000  0.000
   38  0.000  0.000  0.000  0.000
   39  0.000  0.000  0.000  0.000
tot    0.115  0.014  0.683  0.812
 
band    19 # energy   -5.40159037 # occ.  2.00000000
 
ion      s      p      d    tot
    1  0.000  0.000  0.008  0.008
    2  0.001  0.000  0.007  0.008
    3  0.001  0.000  0.004  0.006
    4  0.000  0.000  0.009  0.009
    5  0.000  0.000  0.002  0.002
    6  0.001  0.000  0.004  0.006
    7  0.000  0.000  0.009  0.009
    8  0.001  0.000  0.007  0.008
    9  0.000  0.000  0.014  0.015
   10  0.003  0.000  0.039  0.042
   11  0.001  0.000  0.032  0.034
   12  0.000  0.000  0.009  0.009
   13  0.000  0.000  0.064  0.065
   14  0.002  0.000  0.027  0.029
   15  0.007  0.000  0.042  0.050
   16  0.002  0.000  0.035  0.038
   17  0.000  0.000  0.097  0.097
   18  0.008  0.000  0.034  0.043
   19  0.002  0.000  0.027  0.029
   20  0.000  0.000  0.035  0.035
   21  0.000  0.000  0.009  0.009
   22  0.000  0.000  0.039  0.039
   23  0.000  0.000  0.032  0.032
   24  0.002  0.000  0.034  0.037
   25  0.002  0.000  0.021  0.023
   26  0.000  0.000  0.070  0.070
   27  0.002  0.000  0.035  0.037
   28  0.000  0.000  0.008  0.009
   29  0.001  0.000  0.008  0.008
   30  0.000  0.000  0.005  0.005
   31  0.001  0.000  0.005  0.006
   32  0.000  0.000  0.005  0.005
   33  0.001  0.000  0.004  0.006
   34  0.001  0.000  0.008  0.008
   35  0.000  0.000  0.013  0.013
   36  0.000  0.000  0.001  0.001
   37  0.000  0.000  0.000  0.000
   38  0.000  0.000  0.000  0.000
   39  0.000  0.000  0.000  0.000
tot    0.041  0.006  0.803  0.851
 
band    20 # energy   -5.40155963 # occ.  2.00000000
 
ion      s      p      d    tot
    1  0.000  0.000  0.008  0.008
    2  0.001  0.000  0.006  0.007
    3  0.000  0.000  0.009  0.009
    4  0.001  0.000  0.004  0.006
    5  0.000  0.000  0.002  0.002
    6  0.000  0.000  0.009  0.009
    7  0.001  0.000  0.005  0.006
    8  0.001  0.000  0.007  0.008
    9  0.000  0.000  0.014  0.015
   10  0.001  0.000  0.016  0.017
   11  0.001  0.000  0.050  0.051
   12  0.004  0.000  0.047  0.051
   13  0.002  0.000  0.018  0.020
   14  0.000  0.000  0.055  0.056
   15  0.003  0.000  0.073  0.076
   16  0.001  0.000  0.020  0.022
   17  0.010  0.000  0.019  0.030
   18  0.002  0.000  0.081  0.083
   19  0.001  0.000  0.052  0.052
   20  0.000  0.000  0.015  0.015
   21  0.000  0.000  0.042  0.042
   22  0.003  0.000  0.033  0.036
   23  0.000  0.000  0.019  0.019
   24  0.001  0.000  0.038  0.039
   25  0.000  0.000  0.058  0.058
   26  0.002  0.000  0.009  0.012
   27  0.001  0.000  0.038  0.039
   28  0.000  0.000  0.008  0.009
   29  0.001  0.000  0.004  0.005
   30  0.001  0.000  0.007  0.008
   31  0.000  0.000  0.006  0.007
   32  0.001  0.000  0.006  0.008
   33  0.000  0.000  0.007  0.007
   34  0.001  0.000  0.004  0.005
   35  0.000  0.000  0.013  0.013
   36  0.000  0.000  0.001  0.001
   37  0.000  0.000  0.000  0.000
   38  0.000  0.000  0.000  0.000
   39  0.000  0.000  0.000  0.000