 vasp.6.2.0 18Jan21 (build Jun 12 2021 23:27:24) complex                        
  
 executed on             LinuxIFC date 2022.05.28  02:30:07
 running on   28 total cores
 distrk:  each k-point on   28 cores,    1 groups
 distr:  one band on NCORE=   1 cores,   28 groups


--------------------------------------------------------------------------------------------------------


 INCAR:
   ISMEAR = -5
   SIGMA = 0.1
   ISPIN = 1
   EDIFF = 1.d-5
   EDIFFG = -0.01
   NSW = 0
   NELM = 150
   ENCUT = 500
   ISIF = 2
   IBRION = 2
   LREAL = Auto
   ALGO = Fast
   ICHARG = 11
   LORBIT = 10
   LCHARG = .F.
   LWAVE = .F.

 POTCAR:    PAW_PBE Cu 22Jun2005                  
 POTCAR:    PAW_PBE Zr_sv 04Jan2005               
 POTCAR:    PAW_PBE H 15Jun2001                   
 POTCAR:    PAW_PBE O 08Apr2002                   
 -----------------------------------------------------------------------------
|                                                                             |
|           W    W    AA    RRRRR   N    N  II  N    N   GGGG   !!!           |
|           W    W   A  A   R    R  NN   N  II  NN   N  G    G  !!!           |
|           W    W  A    A  R    R  N N  N  II  N N  N  G       !!!           |
|           W WW W  AAAAAA  RRRRR   N  N N  II  N  N N  G  GGG   !            |
|           WW  WW  A    A  R   R   N   NN  II  N   NN  G    G                |
|           W    W  A    A  R    R  N    N  II  N    N   GGGG   !!!           |
|                                                                             |
|     For optimal performance we recommend to set                             |
|       NCORE = 2 up to number-of-cores-per-socket                            |
|     NCORE specifies how many cores store one orbital (NPAR=cpu/NCORE).      |
|     This setting can greatly improve the performance of VASP for DFT.       |
|     The default, NCORE=1 might be grossly inefficient on modern             |
|     multi-core architectures or massively parallel machines. Do your        |
|     own testing! More info at https://www.vasp.at/wiki/index.php/NCORE      |
|     Unfortunately you need to use the default for GW and RPA                |
|     calculations (for HF NCORE is supported but not extensively tested      |
|     yet).                                                                   |
|                                                                             |
 -----------------------------------------------------------------------------

 POTCAR:    PAW_PBE Cu 22Jun2005                  
   VRHFIN =Cu: d10 p1                                                                               
   LEXCH  = PE                                                                                      
   EATOM  =  1390.9808 eV,  102.2342 Ry                                                             
                                                                                                    
   TITEL  = PAW_PBE Cu 22Jun2005                                                                    
   LULTRA =        F    use ultrasoft PP ?                                                          
   IUNSCR =        1    unscreen: 0-lin 1-nonlin 2-no                                               
   RPACOR =    2.000    partial core radius                                                         
   POMASS =   63.546; ZVAL   =   11.000    mass and valenz                                          
   RCORE  =    2.300    outmost cutoff radius                                                       
   RWIGS  =    2.200; RWIGS  =    1.164    wigner-seitz radius (au A)                               
   ENMAX  =  295.446; ENMIN  =  221.585 eV                                                          
   ICORE  =        3    local potential                                                             
   LCOR   =        T    correct aug charges                                                         
   LPAW   =        T    paw PP                                                                      
   EAUG   =  586.980                                                                                
   DEXC   =    0.000                                                                                
   RMAX   =    2.344    core radius for proj-oper                                                   
   RAUG   =    1.300    factor for augmentation sphere                                              
   RDEP   =    2.302    radius for radial grids                                                     
   RDEPT  =    1.771    core radius for aug-charge                                                  
                                                                                                    
   Atomic configuration                                                                             
    9 entries                                                                                       
     n  l   j            E        occ.                                                              
     1  0  0.50     -8850.2468   2.0000                                                             
     2  0  0.50     -1062.3498   2.0000                                                             
     2  1  1.50      -916.8226   6.0000                                                             
     3  0  0.50      -114.6929   2.0000                                                             
     3  1  1.50       -72.1325   6.0000                                                             
     3  2  2.50        -5.0394  10.0000                                                             
     4  0  0.50        -4.6097   1.0000                                                             
     4  1  0.50        -4.0817   0.0000                                                             
     4  3  2.50        -1.3606   0.0000                                                             
   Description                                                                                      
     l       E           TYP  RCUT    TYP  RCUT                                                     
     2     -5.0393973     23  2.200                                                                 
     2     10.8846608     23  2.200                                                                 
     0     -4.6097109     23  2.200                                                                 
     0      8.2520465     23  2.200                                                                 
     1     -2.7211652     23  2.200                                                                 
     1     21.7055443     23  2.200                                                                 
     3      2.7211652     23  2.300                                                                 
  local pseudopotential read in
  partial core-charges read in
  partial kinetic energy density read in
  atomic valenz-charges read in
  non local Contribution for L=           2  read in
    real space projection operators read in
  non local Contribution for L=           2  read in
    real space projection operators read in
  non local Contribution for L=           0  read in
    real space projection operators read in
  non local Contribution for L=           0  read in
    real space projection operators read in
  non local Contribution for L=           1  read in
    real space projection operators read in
  non local Contribution for L=           1  read in
    real space projection operators read in
    PAW grid and wavefunctions read in
 
   number of l-projection  operators is LMAX  =           6
   number of lm-projection operators is LMMAX =          18
 
 POTCAR:    PAW_PBE Zr_sv 04Jan2005               
   VRHFIN =Zr: 4s4p5s4d                                                                             
   LEXCH  = PE                                                                                      
   EATOM  =  1284.2219 eV,   94.3876 Ry                                                             
                                                                                                    
   TITEL  = PAW_PBE Zr_sv 04Jan2005                                                                 
   LULTRA =        F    use ultrasoft PP ?                                                          
   IUNSCR =        1    unscreen: 0-lin 1-nonlin 2-no                                               
   RPACOR =    2.200    partial core radius                                                         
   POMASS =   91.224; ZVAL   =   12.000    mass and valenz                                          
   RCORE  =    2.500    outmost cutoff radius                                                       
   RWIGS  =    3.070; RWIGS  =    1.625    wigner-seitz radius (au A)                               
   ENMAX  =  229.898; ENMIN  =  172.424 eV                                                          
   ICORE  =        3    local potential                                                             
   LCOR   =        T    correct aug charges                                                         
   LPAW   =        T    paw PP                                                                      
   EAUG   =  461.257                                                                                
   DEXC   =    0.000                                                                                
   RMAX   =    2.561    core radius for proj-oper                                                   
   RAUG   =    1.300    factor for augmentation sphere                                              
   RDEP   =    2.597    radius for radial grids                                                     
   RDEPT  =    2.007    core radius for aug-charge                                                  
                                                                                                    
   Atomic configuration                                                                             
   11 entries                                                                                       
     n  l   j            E        occ.                                                              
     1  0  0.50    -17820.0161   2.0000                                                             
     2  0  0.50     -2467.0882   2.0000                                                             
     2  1  1.50     -2199.6095   6.0000                                                             
     3  0  0.50      -402.4863   2.0000                                                             
     3  1  1.50      -315.3675   6.0000                                                             
     3  2  2.50      -172.4472  10.0000                                                             
     4  0  0.50       -52.4146   2.0000                                                             
     5  0  0.50        -3.8421   1.0000                                                             
     4  1  1.50       -30.5054   6.0000                                                             
     4  2  2.50        -2.3341   3.0000                                                             
     4  3  2.50        -1.3606   0.0000                                                             
   Description                                                                                      
     l       E           TYP  RCUT    TYP  RCUT                                                     
     0    -52.4145962     23  2.200                                                                 
     0     -3.8421270     23  2.500                                                                 
     1    -30.5053914     23  2.200                                                                 
     1     20.4087390     23  2.200                                                                 
     2     -2.3340816     23  2.500                                                                 
     2     -0.6120942     23  2.500                                                                 
     3     -4.0817478     23  2.500                                                                 
  local pseudopotential read in
  partial core-charges read in
  partial kinetic energy density read in
  atomic valenz-charges read in
  non local Contribution for L=           0  read in
    real space projection operators read in
  non local Contribution for L=           0  read in
    real space projection operators read in
  non local Contribution for L=           1  read in
    real space projection operators read in
  non local Contribution for L=           1  read in
    real space projection operators read in
  non local Contribution for L=           2  read in
    real space projection operators read in
  non local Contribution for L=           2  read in
    real space projection operators read in
    PAW grid and wavefunctions read in
 
   number of l-projection  operators is LMAX  =           6
   number of lm-projection operators is LMMAX =          18
 
 POTCAR:    PAW_PBE H 15Jun2001                   
   VRHFIN =H: ultrasoft test                                                                        
   LEXCH  = PE                                                                                      
   EATOM  =    12.4884 eV,    0.9179 Ry                                                             
                                                                                                    
   TITEL  = PAW_PBE H 15Jun2001                                                                     
   LULTRA =        F    use ultrasoft PP ?                                                          
   IUNSCR =        0    unscreen: 0-lin 1-nonlin 2-no                                               
   RPACOR =    0.000    partial core radius                                                         
   POMASS =    1.000; ZVAL   =    1.000    mass and valenz                                          
   RCORE  =    1.100    outmost cutoff radius                                                       
   RWIGS  =    0.700; RWIGS  =    0.370    wigner-seitz radius (au A)                               
   ENMAX  =  250.000; ENMIN  =  200.000 eV                                                          
   RCLOC  =    0.701    cutoff for local pot                                                        
   LCOR   =        T    correct aug charges                                                         
   LPAW   =        T    paw PP                                                                      
   EAUG   =  400.000                                                                                
   RMAX   =    1.123    core radius for proj-oper                                                   
   RAUG   =    1.200    factor for augmentation sphere                                              
   RDEP   =    1.112    radius for radial grids                                                     
   RDEPT  =    0.926    core radius for aug-charge                                                  
                                                                                                    
   Atomic configuration                                                                             
    2 entries                                                                                       
     n  l   j            E        occ.                                                              
     1  0  0.50        -6.4927   1.0000                                                             
     2  1  0.50        -3.4015   0.0000                                                             
   Description                                                                                      
     l       E           TYP  RCUT    TYP  RCUT                                                     
     0     -6.4927494     23  1.100                                                                 
     0      6.8029130     23  1.100                                                                 
     1     -4.0817478     23  1.100                                                                 
  local pseudopotential read in
  atomic valenz-charges read in
  non local Contribution for L=           0  read in
    real space projection operators read in
  non local Contribution for L=           0  read in
    real space projection operators read in
  non local Contribution for L=           1  read in
    real space projection operators read in
    PAW grid and wavefunctions read in
 
   number of l-projection  operators is LMAX  =           3
   number of lm-projection operators is LMMAX =           5
 
 POTCAR:    PAW_PBE O 08Apr2002                   
   VRHFIN =O: s2p4                                                                                  
   LEXCH  = PE                                                                                      
   EATOM  =   432.3788 eV,   31.7789 Ry                                                             
                                                                                                    
   TITEL  = PAW_PBE O 08Apr2002                                                                     
   LULTRA =        F    use ultrasoft PP ?                                                          
   IUNSCR =        1    unscreen: 0-lin 1-nonlin 2-no                                               
   RPACOR =    1.200    partial core radius                                                         
   POMASS =   16.000; ZVAL   =    6.000    mass and valenz                                          
   RCORE  =    1.520    outmost cutoff radius                                                       
   RWIGS  =    1.550; RWIGS  =    0.820    wigner-seitz radius (au A)                               
   ENMAX  =  400.000; ENMIN  =  300.000 eV                                                          
   ICORE  =        2    local potential                                                             
   LCOR   =        T    correct aug charges                                                         
   LPAW   =        T    paw PP                                                                      
   EAUG   =  605.392                                                                                
   DEXC   =    0.000                                                                                
   RMAX   =    1.553    core radius for proj-oper                                                   
   RAUG   =    1.300    factor for augmentation sphere                                              
   RDEP   =    1.550    radius for radial grids                                                     
   RDEPT  =    1.329    core radius for aug-charge                                                  
                                                                                                    
   Atomic configuration                                                                             
    4 entries                                                                                       
     n  l   j            E        occ.                                                              
     1  0  0.50      -514.6923   2.0000                                                             
     2  0  0.50       -23.9615   2.0000                                                             
     2  1  0.50        -9.0305   4.0000                                                             
     3  2  1.50        -9.5241   0.0000                                                             
   Description                                                                                      
     l       E           TYP  RCUT    TYP  RCUT                                                     
     0    -23.9615318     23  1.200                                                                 
     0     -9.5240782     23  1.200                                                                 
     1     -9.0304911     23  1.520                                                                 
     1      8.1634956     23  1.520                                                                 
     2     -9.5240782      7  1.500                                                                 
  local pseudopotential read in
  partial core-charges read in
  partial kinetic energy density read in
  kinetic energy density of atom read in
  atomic valenz-charges read in
  non local Contribution for L=           0  read in
    real space projection operators read in
  non local Contribution for L=           0  read in
    real space projection operators read in
  non local Contribution for L=           1  read in
    real space projection operators read in
  non local Contribution for L=           1  read in
    real space projection operators read in
    PAW grid and wavefunctions read in
 
   number of l-projection  operators is LMAX  =           4
   number of lm-projection operators is LMMAX =           8
 
 Optimization of the real space projectors (new method)

 maximal supplied QI-value         = 16.25
 optimisation between [QCUT,QGAM] = [ 11.38, 22.75] = [ 36.24,144.96] Ry 
 Optimized for a Real-space Cutoff    1.52 Angstroem

   l    n(q)    QCUT    max X(q) W(low)/X(q) W(high)/X(q)  e(spline) 
   2      9    11.376     4.610    0.21E-03    0.10E-03    0.26E-06
   2      9    11.376     8.522    0.33E-03    0.16E-03    0.37E-06
   0     10    11.376    51.609    0.62E-04    0.20E-04    0.13E-06
   0     10    11.376    27.747    0.54E-04    0.20E-04    0.13E-06
   1     10    11.376    20.408    0.13E-04    0.99E-04    0.19E-06
   1     10    11.376    13.425    0.12E-04    0.87E-04    0.17E-06
 Optimization of the real space projectors (new method)

 maximal supplied QI-value         = 15.12
 optimisation between [QCUT,QGAM] = [ 11.34, 22.83] = [ 36.00,145.93] Ry 
 Optimized for a Real-space Cutoff    1.47 Angstroem

   l    n(q)    QCUT    max X(q) W(low)/X(q) W(high)/X(q)  e(spline) 
   0     10    11.338    12.107    0.38E-04    0.13E-04    0.27E-07
   0     10    11.338     9.948    0.69E-04    0.30E-04    0.38E-07
   1     10    11.338     3.563    0.26E-04    0.18E-04    0.40E-07
   1     10    11.338     4.524    0.25E-03    0.39E-04    0.44E-06
   2      9    11.338    87.261    0.26E-03    0.91E-05    0.26E-06
   2      9    11.338    70.950    0.25E-03    0.91E-05    0.25E-06
 Optimization of the real space projectors (new method)

 maximal supplied QI-value         = 34.20
 optimisation between [QCUT,QGAM] = [ 11.29, 22.57] = [ 35.68,142.71] Ry 
 Optimized for a Real-space Cutoff    1.16 Angstroem

   l    n(q)    QCUT    max X(q) W(low)/X(q) W(high)/X(q)  e(spline) 
   0      8    11.287    19.460    0.40E-03    0.73E-03    0.16E-06
   0      8    11.287    12.209    0.38E-03    0.70E-03    0.15E-06
   1      7    11.287     4.655    0.22E-03    0.25E-04    0.22E-06
 Optimization of the real space projectors (new method)

 maximal supplied QI-value         = 24.76
 optimisation between [QCUT,QGAM] = [ 11.39, 22.77] = [ 36.31,145.25] Ry 
 Optimized for a Real-space Cutoff    1.00 Angstroem

   l    n(q)    QCUT    max X(q) W(low)/X(q) W(high)/X(q)  e(spline) 
   0      7    11.387    20.381    0.39E-03    0.13E-02    0.15E-06
   0      7    11.387    15.268    0.42E-03    0.14E-02    0.17E-06
   1      6    11.387     5.964    0.41E-03    0.11E-02    0.17E-06
   1      6    11.387     5.382    0.39E-03    0.87E-03    0.15E-06
  PAW_PBE Cu 22Jun2005                  :
 energy of atom  1       EATOM=-1390.9808
 kinetic energy error for atom=    0.0043 (will be added to EATOM!!)
  PAW_PBE Zr_sv 04Jan2005               :
 energy of atom  2       EATOM=-1284.2219
 kinetic energy error for atom=    0.0049 (will be added to EATOM!!)
  PAW_PBE H 15Jun2001                   :
 energy of atom  3       EATOM=  -12.4884
 kinetic energy error for atom=    0.0020 (will be added to EATOM!!)
  PAW_PBE O 08Apr2002                   :
 energy of atom  4       EATOM= -432.3788
 kinetic energy error for atom=    0.0224 (will be added to EATOM!!)
 
 
 POSCAR: Cu-Zr-H2O
  positions in direct lattice
  velocities in cartesian coordinates
 exchange correlation table for  LEXCH =        8
   RHO(1)=    0.500       N(1)  =     2000
   RHO(2)=  100.500       N(2)  =     4000

 VTST: version 3.2, (02/03/18)

 CHAIN: initializing optimizer
 
 OPT: Using VASP Conjugate-Gradient optimizer
 CHAIN: Read ICHAIN            0
 
 POSCAR: Cu-Zr-H2O
  positions in direct lattice
  velocities in cartesian coordinates
 


--------------------------------------------------------------------------------------------------------


 ion  position               nearest neighbor table
   1  0.000  0.000  0.221-   7 2.57   3 2.57   4 2.57   2 2.57   6 2.57   8 2.57  12 2.57  10 2.57
                            16 2.57
   2  0.333  0.000  0.221-   8 2.57   9 2.57   5 2.57   1 2.57   3 2.57  11 2.57   4 2.57  10 2.57
                            17 2.57
   3  0.667  0.000  0.221-   1 2.57   7 2.57   6 2.57   9 2.57   2 2.57  12 2.57   5 2.57  18 2.57
                            11 2.57
   4  0.000  0.333  0.221-   5 2.57   6 2.57   1 2.57   7 2.57   2 2.57  13 2.57   9 2.57  10 2.57
                            15 2.57
   5  0.333  0.333  0.221-   4 2.57   2 2.57   7 2.57  13 2.57   8 2.57   6 2.57   3 2.57  11 2.57
                            14 2.57
   6  0.667  0.333  0.221-   4 2.57   9 2.57  15 2.57   3 2.57   1 2.57   8 2.57  14 2.57   5 2.57
                            12 2.57
   7  0.000  0.667  0.221-   1 2.57   3 2.57  16 2.57  18 2.57   4 2.57   5 2.57   8 2.57   9 2.57
                            13 2.57
   8  0.333  0.667  0.221-   9 2.57   2 2.57  17 2.57   6 2.57   1 2.57   7 2.57   5 2.57  14 2.57
                            16 2.57
   9  0.667  0.667  0.221-   8 2.57   6 2.57   2 2.57  17 2.57   3 2.57   7 2.57   4 2.57  15 2.57
                            18 2.57
  10  0.111  0.111  0.308-  26 2.54  19 2.54  11 2.57  12 2.57  13 2.57   1 2.57   2 2.57   4 2.57
                            15 2.57  16 2.57  17 2.57  20 2.59
  11  0.444  0.111  0.308-  27 2.56  10 2.57  13 2.57   2 2.57  17 2.57  14 2.57  12 2.57   5 2.57
                             3 2.57  18 2.57  20 2.58  21 2.58
  12  0.778  0.111  0.308-  19 2.54  25 2.54  15 2.57  10 2.57  14 2.57  18 2.57   3 2.57   1 2.57
                            16 2.57  11 2.57   6 2.57  21 2.59
  13  0.111  0.444  0.308-  22 2.56  16 2.57  18 2.57  10 2.57  11 2.57  14 2.57   5 2.57   4 2.57
                             7 2.57  15 2.57  23 2.58  20 2.58
  14  0.444  0.444  0.308-  24 2.56  15 2.57  17 2.57  12 2.57  16 2.57  13 2.57  11 2.57   6 2.57
                             8 2.57   5 2.57  21 2.58  23 2.58
  15  0.778  0.444  0.308-  19 2.54  24 2.56  22 2.56  14 2.57  17 2.57  12 2.57   6 2.57  18 2.57
                            10 2.57   9 2.57  13 2.57   4 2.57
  16  0.111  0.778  0.308-  25 2.54  26 2.54  18 2.57  13 2.57   7 2.57  14 2.57  17 2.57  12 2.57
                            10 2.57   8 2.57   1 2.57  23 2.59
  17  0.444  0.778  0.308-  26 2.54  27 2.56  24 2.56  14 2.57  15 2.57   8 2.57   9 2.57  11 2.57
                            16 2.57  18 2.57  10 2.57   2 2.57
  18  0.778  0.778  0.308-  25 2.54  22 2.56  27 2.56  16 2.57  13 2.57   7 2.57  15 2.57  12 2.57
                            17 2.57   9 2.57   3 2.57  11 2.57
  19  0.889  0.221  0.393-  12 2.54  10 2.54  15 2.54  25 2.55  26 2.55  32 2.56  31 2.56  22 2.57
                            24 2.57  28 2.57  21 2.58  20 2.58
  20  0.223  0.223  0.395-  23 2.55  21 2.55  29 2.57  31 2.57  27 2.57  22 2.57  26 2.58  19 2.58
                            11 2.58  13 2.58  10 2.59  36 2.86
  21  0.554  0.223  0.395-  20 2.55  23 2.55  32 2.57  30 2.57  24 2.57  27 2.57  19 2.58  25 2.58
                            14 2.58  11 2.58  12 2.59  36 2.86
  22  0.889  0.556  0.394-  18 2.56  15 2.56  13 2.56  31 2.56  33 2.56  24 2.57  27 2.57  23 2.57
                            20 2.57  19 2.57  25 2.57  35 2.58
  23  0.223  0.554  0.395-  20 2.55  21 2.55  33 2.57  34 2.57  22 2.57  24 2.57  25 2.58  26 2.58
                            13 2.58  14 2.58  16 2.59  36 2.86
  24  0.556  0.556  0.394-  15 2.56  17 2.56  14 2.56  32 2.56  34 2.56  22 2.57  27 2.57  21 2.57
                            23 2.57  19 2.57  26 2.57  35 2.58
  25  0.889  0.889  0.393-  12 2.54  16 2.54  18 2.54  19 2.55  26 2.55  33 2.56  30 2.56  22 2.57
                            27 2.57  28 2.57  21 2.58  23 2.58
  26  0.221  0.889  0.393-  10 2.54  16 2.54  17 2.54  25 2.55  19 2.55  29 2.56  34 2.56  27 2.57
                            24 2.57  28 2.57  20 2.58  23 2.58
  27  0.556  0.889  0.394-  17 2.56  18 2.56  11 2.56  29 2.56  30 2.56  24 2.57  22 2.57  20 2.57
                            21 2.57  26 2.57  25 2.57  35 2.58
  28  0.000  0.000  0.479-  33 2.55  30 2.55  31 2.55  29 2.55  32 2.55  34 2.55  25 2.57  19 2.57
                            26 2.57
  29  0.334  0.994  0.480-  34 2.47  35 2.54  28 2.55  27 2.56  26 2.56  20 2.57  30 2.60  31 2.62
                            36 2.64
  30  0.672  0.994  0.480-  33 2.47  35 2.54  28 2.55  27 2.56  25 2.56  21 2.57  29 2.60  32 2.62
                            36 2.64
  31  0.994  0.334  0.480-  32 2.47  35 2.54  28 2.55  22 2.56  19 2.56  20 2.57  33 2.60  29 2.62
                            36 2.64
  32  0.672  0.334  0.480-  31 2.47  35 2.54  28 2.55  24 2.56  19 2.56  21 2.57  34 2.60  30 2.62
                            36 2.64
  33  0.994  0.672  0.480-  30 2.47  35 2.54  28 2.55  22 2.56  25 2.56  23 2.57  31 2.60  34 2.62
                            36 2.64
  34  0.334  0.672  0.480-  29 2.47  35 2.54  28 2.55  24 2.56  26 2.56  23 2.57  32 2.60  33 2.62
                            36 2.64
  35  0.667  0.667  0.481-  34 2.54  32 2.54  29 2.54  30 2.54  33 2.54  31 2.54  24 2.58  27 2.58
                            22 2.58
  36  0.333  0.333  0.496-  39 2.29  31 2.64  29 2.64  33 2.64  32 2.64  34 2.64  30 2.64  23 2.86
                            20 2.86  21 2.86
  37  0.230  0.333  0.613-  39 0.97
  38  0.437  0.333  0.613-  39 0.97
  39  0.333  0.335  0.590-  37 0.97  38 0.97  36 2.29
 
  LATTYP: Found a hexagonal cell.
 ALAT       =     7.6967864036
 C/A-ratio  =     3.1535378041
  
  Lattice vectors:
  
 A1 = (  -3.8483927580,  -6.6656128093,   0.0000000000)
 A2 = (   7.6967864037,   0.0000000000,   0.0000000000)
 A3 = (   0.0000000000,   0.0000000000,  24.2721068937)


Analysis of symmetry for initial positions (statically):
=====================================================================
 Subroutine PRICEL returns:
 Original cell was already a primitive cell.
 

 Routine SETGRP: Setting up the symmetry group for a 
 hexagonal supercell.


 Subroutine GETGRP returns: Found  1 space group operations
 (whereof  1 operations were pure point group operations)
 out of a pool of 24 trial point group operations.


The static configuration has the point symmetry C_1 .


Analysis of symmetry for dynamics (positions and initial velocities):
=====================================================================
 Subroutine PRICEL returns:
 Original cell was already a primitive cell.
 

 Routine SETGRP: Setting up the symmetry group for a 
 hexagonal supercell.


 Subroutine GETGRP returns: Found  1 space group operations
 (whereof  1 operations were pure point group operations)
 out of a pool of 24 trial point group operations.


The dynamic configuration has the point symmetry C_1 .


Analysis of constrained symmetry for selective dynamics:
=====================================================================
 Subroutine PRICEL returns:
 Original cell was already a primitive cell.
 

 Routine SETGRP: Setting up the symmetry group for a 
 hexagonal supercell.


 Subroutine GETGRP returns: Found  1 space group operations
 (whereof  1 operations were pure point group operations)
 out of a pool of 24 trial point group operations.


The constrained configuration has the point symmetry C_1 .


 Subroutine INISYM returns: Found  1 space group operations
 (whereof  1 operations are pure point group operations),
 and found     1 'primitive' translations


----------------------------------------------------------------------------------------

                                     Primitive cell                                     

  volume of cell :    1245.2513

  direct lattice vectors                    reciprocal lattice vectors
     7.696786404  0.000000000  0.000000000     0.129924354 -0.075011849  0.000000000
     3.848392758  6.665612809  0.000000000     0.000000000  0.150023716  0.000000000
     0.000000000  0.000000000 24.272106894     0.000000000  0.000000000  0.041199555

  length of vectors
     7.696786404  7.696786404 24.272106894     0.150023716  0.150023716  0.041199555

  position of ions in fractional coordinates (direct lattice)
     0.000000000  0.000000000  0.221305866
     0.333333343  0.000000000  0.221305866
     0.666666687  0.000000000  0.221305866
     1.000000000  0.333333343  0.221305866
     0.333333313  0.333333343  0.221305866
     0.666666687  0.333333343  0.221305866
     1.000000000  0.666666687  0.221305866
     0.333333373  0.666666687  0.221305866
     0.666666627  0.666666687  0.221305866
     0.111111119  0.111111112  0.307610705
     0.444444418  0.111111112  0.307610705
     0.777777791  0.111111112  0.307610705
     0.111111119  0.444444448  0.307610705
     0.444444478  0.444444448  0.307610705
     0.777777731  0.444444448  0.307610705
     0.111111112  0.777777731  0.307610705
     0.444444478  0.777777731  0.307610705
     0.777777851  0.777777731  0.307610705
     0.889406203  0.221187610  0.392599634
     0.223097349  0.223097334  0.394732387
     0.553805361  0.223097334  0.394732387
     0.888858350  0.555570795  0.393532062
     0.223097319  0.553805301  0.394732387
     0.555570855  0.555570795  0.393532062
     0.889406203  0.889406203  0.392599634
     0.221187625  0.889406203  0.392599634
     0.555570795  0.888858350  0.393532062
     0.000000000  0.000000000  0.479466167
     0.334159469  0.993667856  0.479599173
     0.672172705  0.993667856  0.479599173
     0.993667856  0.334159469  0.479599173
     0.672172705  0.334159469  0.479599173
     0.993667856  0.672172705  0.479599173
     0.334159499  0.672172705  0.479599173
     0.666666627  0.666666687  0.480666537
     0.333333313  0.333333343  0.495750058
     0.229726734  0.333124132  0.612871489
     0.437181111  0.333034996  0.612884237
     0.332665615  0.334676238  0.589987351

  ion indices of the primitive-cell ions
   primitive index   ion index
                 1           1
                 2           2
                 3           3
                 4           4
                 5           5
                 6           6
                 7           7
                 8           8
                 9           9
                10          10
                11          11
                12          12
                13          13
                14          14
                15          15
                16          16
                17          17
                18          18
                19          19
                20          20
                21          21
                22          22
                23          23
                24          24
                25          25
                26          26
                27          27
                28          28
                29          29
                30          30
                31          31
                32          32
                33          33
                34          34
                35          35
                36          36
                37          37
                38          38
                39          39

----------------------------------------------------------------------------------------

 
 
 KPOINTS: Automatic mesh                          

Automatic generation of k-mesh.
 Grid dimensions read from file:
 generate k-points for:    8    8    1

 Generating k-lattice:

  Cartesian coordinates                     Fractional coordinates (reciprocal lattice)
     0.016240544 -0.009376481  0.000000000     0.125000000 -0.000000000  0.000000000
     0.000000000  0.018752964  0.000000000     0.000000000  0.125000000  0.000000000
     0.000000000  0.000000000  0.041199555     0.000000000  0.000000000  1.000000000

  Length of vectors
     0.018752964  0.018752964  0.041199555

  Shift w.r.t. Gamma in fractional coordinates (k-lattice)
     0.000000000  0.000000000  0.000000000

 TETIRR: Found    192 inequivalent tetrahedra from      384
 
 Subroutine IBZKPT returns following result:
 ===========================================
 
 Found     34 irreducible k-points:
 
 Following reciprocal coordinates:
            Coordinates               Weight
  0.000000  0.000000  0.000000      1.000000
  0.125000 -0.000000  0.000000      2.000000
  0.125000  0.125000  0.000000      2.000000
  0.000000  0.125000  0.000000      2.000000
  0.250000 -0.000000  0.000000      2.000000
  0.250000  0.250000  0.000000      2.000000
  0.000000  0.250000  0.000000      2.000000
  0.375000 -0.000000  0.000000      2.000000
  0.375000  0.375000  0.000000      2.000000
  0.000000  0.375000  0.000000      2.000000
  0.500000 -0.000000  0.000000      1.000000
  0.500000  0.500000  0.000000      1.000000
  0.000000  0.500000  0.000000      1.000000
  0.250000  0.125000  0.000000      2.000000
  0.125000  0.250000  0.000000      2.000000
 -0.125000  0.125000  0.000000      2.000000
  0.375000  0.125000  0.000000      2.000000
  0.250000  0.375000  0.000000      2.000000
 -0.125000  0.250000  0.000000      2.000000
  0.250000 -0.125000  0.000000      2.000000
 -0.125000 -0.375000  0.000000      2.000000
 -0.375000 -0.250000  0.000000      2.000000
  0.500000  0.125000  0.000000      2.000000
  0.375000  0.500000  0.000000      2.000000
 -0.125000  0.375000  0.000000      2.000000
  0.375000 -0.125000  0.000000      2.000000
 -0.125000  0.500000  0.000000      2.000000
  0.500000 -0.375000  0.000000      2.000000
  0.500000  0.250000  0.000000      2.000000
  0.250000  0.500000  0.000000      2.000000
 -0.250000  0.250000  0.000000      2.000000
 -0.375000  0.250000  0.000000      2.000000
  0.375000 -0.375000  0.000000      2.000000
 -0.250000  0.375000  0.000000      2.000000
 
 Following cartesian coordinates:
            Coordinates               Weight
  0.000000  0.000000  0.000000      1.000000
  0.016241 -0.009376  0.000000      2.000000
  0.016241  0.009376  0.000000      2.000000
  0.000000  0.018753  0.000000      2.000000
  0.032481 -0.018753  0.000000      2.000000
  0.032481  0.018753  0.000000      2.000000
  0.000000  0.037506  0.000000      2.000000
  0.048722 -0.028129  0.000000      2.000000
  0.048722  0.028129  0.000000      2.000000
  0.000000  0.056259  0.000000      2.000000
  0.064962 -0.037506  0.000000      1.000000
  0.064962  0.037506  0.000000      1.000000
  0.000000  0.075012  0.000000      1.000000
  0.032481  0.000000  0.000000      2.000000
  0.016241  0.028129  0.000000      2.000000
 -0.016241  0.028129  0.000000      2.000000
  0.048722 -0.009376  0.000000      2.000000
  0.032481  0.037506  0.000000      2.000000
 -0.016241  0.046882  0.000000      2.000000
  0.032481 -0.037506  0.000000      2.000000
 -0.016241 -0.046882  0.000000      2.000000
 -0.048722 -0.009376  0.000000      2.000000
  0.064962 -0.018753  0.000000      2.000000
  0.048722  0.046882  0.000000      2.000000
 -0.016241  0.065635  0.000000      2.000000
  0.048722 -0.046882  0.000000      2.000000
 -0.016241  0.084388  0.000000      2.000000
  0.064962 -0.093765  0.000000      2.000000
  0.064962  0.000000  0.000000      2.000000
  0.032481  0.056259  0.000000      2.000000
 -0.032481  0.056259  0.000000      2.000000
 -0.048722  0.065635  0.000000      2.000000
  0.048722 -0.084388  0.000000      2.000000
 -0.032481  0.075012  0.000000      2.000000
 


--------------------------------------------------------------------------------------------------------




 Dimension of arrays:
   k-points           NKPTS =     34   k-points in BZ     NKDIM =     34   number of bands    NBANDS=    252
   number of dos      NEDOS =    301   number of ions     NIONS =     39
   non local maximal  LDIM  =      6   non local SUM 2l+1 LMDIM =     18
   total plane-waves  NPLWV = 246960
   max r-space proj   IRMAX =   2959   max aug-charges    IRDMAX=   8445
   dimension x,y,z NGX =    42 NGY =   42 NGZ =  140
   dimension x,y,z NGXF=    84 NGYF=   84 NGZF=  280
   support grid    NGXF=    84 NGYF=   84 NGZF=  280
   ions per type =              35   1   2   1
   NGX,Y,Z   is equivalent  to a cutoff of   9.07,  9.07,  9.59 a.u.
   NGXF,Y,Z  is equivalent  to a cutoff of  18.14, 18.14, 19.18 a.u.

 SYSTEM =  unknown system                          
 POSCAR =  Cu-Zr-H2O                               

 Startparameter for this run:
   NWRITE =      2    write-flag & timer
   PREC   = normal    normal or accurate (medium, high low for compatibility)
   ISTART =      0    job   : 0-new  1-cont  2-samecut
   ICHARG =     11    charge: 1-file 2-atom 10-const
   ISPIN  =      1    spin polarized calculation?
   LNONCOLLINEAR =      F non collinear calculations
   LSORBIT =      F    spin-orbit coupling
   INIWAV =      1    electr: 0-lowe 1-rand  2-diag
   LASPH  =      F    aspherical Exc in radial PAW
   METAGGA=      F    non-selfconsistent MetaGGA calc.

 Electronic Relaxation 1
   ENCUT  =  500.0 eV  36.75 Ry    6.06 a.u.  14.03 14.03 44.25*2*pi/ulx,y,z
   ENINI  =  500.0     initial cutoff
   ENAUG  =  605.4 eV  augmentation charge cutoff
   NELM   =    150;   NELMIN=  2; NELMDL= -5     # of ELM steps 
   EDIFF  = 0.1E-04   stopping-criterion for ELM
   LREAL  =      T    real-space projection
   NLSPLINE    = F    spline interpolate recip. space projectors
   LCOMPAT=      F    compatible to vasp.4.4
   GGA_COMPAT  = T    GGA compatible to vasp.4.4-vasp.4.6
   LMAXPAW     = -100 max onsite density
   LMAXMIX     =    2 max onsite mixed and CHGCAR
   VOSKOWN=      0    Vosko Wilk Nusair interpolation
   ROPT   =   -0.00050  -0.00050  -0.00050  -0.00050
 Ionic relaxation
   EDIFFG = -.1E-01   stopping-criterion for IOM
   NSW    =      0    number of steps for IOM
   NBLOCK =      1;   KBLOCK =      1    inner block; outer block 
   IBRION =     -1    ionic relax: 0-MD 1-quasi-New 2-CG
   NFREE  =      1    steps in history (QN), initial steepest desc. (CG)
   ISIF   =      2    stress and relaxation
   IWAVPR =     10    prediction:  0-non 1-charg 2-wave 3-comb
   ISYM   =      2    0-nonsym 1-usesym 2-fastsym
   LCORR  =      T    Harris-Foulkes like correction to forces

   POTIM  = 0.5000    time-step for ionic-motion
   TEIN   =    0.0    initial temperature
   TEBEG  =    0.0;   TEEND  =   0.0 temperature during run
   SMASS  =  -3.00    Nose mass-parameter (am)
   estimated Nose-frequenzy (Omega)   =  0.10E-29 period in steps = 0.13E+47 mass=  -0.135E-26a.u.
   SCALEE = 1.0000    scale energy and forces
   NPACO  =    256;   APACO  = 16.0  distance and # of slots for P.C.
   PSTRESS=    0.0 pullay stress

  Mass of Ions in am
   POMASS =  63.55 91.22  1.00 16.00
  Ionic Valenz
   ZVAL   =  11.00 12.00  1.00  6.00
  Atomic Wigner-Seitz radii
   RWIGS  =  -1.00 -1.00 -1.00 -1.00
  virtual crystal weights 
   VCA    =   1.00  1.00  1.00  1.00
   NELECT =     405.0000    total number of electrons
   NUPDOWN=      -1.0000    fix difference up-down

 DOS related values:
   EMIN   =  10.00;   EMAX   =-10.00  energy-range for DOS
   EFERMI =   0.00
   ISMEAR =    -5;   SIGMA  =   0.10  broadening in eV -4-tet -1-fermi 0-gaus

 Electronic relaxation 2 (details)
   IALGO  =     68    algorithm
   LDIAG  =      T    sub-space diagonalisation (order eigenvalues)
   LSUBROT=      F    optimize rotation matrix (better conditioning)
   TURBO    =      0    0=normal 1=particle mesh
   IRESTART =      0    0=no restart 2=restart with 2 vectors
   NREBOOT  =      0    no. of reboots
   NMIN     =      0    reboot dimension
   EREF     =   0.00    reference energy to select bands
   IMIX   =      4    mixing-type and parameters
     AMIX     =   0.40;   BMIX     =  1.00
     AMIX_MAG =   1.60;   BMIX_MAG =  1.00
     AMIN     =   0.10
     WC   =   100.;   INIMIX=   1;  MIXPRE=   1;  MAXMIX= -45

 Intra band minimization:
   WEIMIN = 0.0000     energy-eigenvalue tresh-hold
   EBREAK =  0.99E-08  absolut break condition
   DEPER  =   0.30     relativ break condition  

   TIME   =   0.40     timestep for ELM

  volume/ion in A,a.u.               =      31.93       215.47
  Fermi-wavevector in a.u.,A,eV,Ry     =   1.125834  2.127517 17.245400  1.267501
  Thomas-Fermi vector in A             =   2.262512
 
 Write flags
   LWAVE        =      F    write WAVECAR
   LDOWNSAMPLE  =      F    k-point downsampling of WAVECAR
   LCHARG       =      F    write CHGCAR
   LVTOT        =      F    write LOCPOT, total local potential
   LVHAR        =      F    write LOCPOT, Hartree potential only
   LELF         =      F    write electronic localiz. function (ELF)
   LORBIT       =     10    0 simple, 1 ext, 2 COOP (PROOUT), +10 PAW based schemes


 Dipole corrections
   LMONO  =      F    monopole corrections only (constant potential shift)
   LDIPOL =      F    correct potential (dipole corrections)
   IDIPOL =      0    1-x, 2-y, 3-z, 4-all directions 
   EPSILON=  1.0000000 bulk dielectric constant

 Exchange correlation treatment:
   GGA     =    --    GGA type
   LEXCH   =     8    internal setting for exchange type
   VOSKOWN=      0    Vosko Wilk Nusair interpolation
   LHFCALC =     F    Hartree Fock is set to
   LHFONE  =     F    Hartree Fock one center treatment
   AEXX    =    0.0000 exact exchange contribution

 Linear response parameters
   LEPSILON=     F    determine dielectric tensor
   LRPA    =     F    only Hartree local field effects (RPA)
   LNABLA  =     F    use nabla operator in PAW spheres
   LVEL    =     F    velocity operator in full k-point grid
   LINTERFAST=   F  fast interpolation
   KINTER  =     0    interpolate to denser k-point grid
   CSHIFT  =0.1000    complex shift for real part using Kramers Kronig
   OMEGAMAX=  -1.0    maximum frequency
   DEG_THRESHOLD= 0.2000000E-02 threshold for treating states as degnerate
   RTIME   =   -0.100 relaxation time in fs
  (WPLASMAI=    0.000 imaginary part of plasma frequency in eV, 0.658/RTIME)
   DFIELD  = 0.0000000 0.0000000 0.0000000 field for delta impulse in time
 
 Orbital magnetization related:
   ORBITALMAG=     F  switch on orbital magnetization
   LCHIMAG   =     F  perturbation theory with respect to B field
   DQ        =  0.001000  dq finite difference perturbation B field
   LLRAUG    =     F  two centre corrections for induced B field



--------------------------------------------------------------------------------------------------------


 Static calculation
 charge density and potential remain constant during run
 non-spin polarized calculation
 RMM-DIIS sequential band-by-band and
  variant of blocked Davidson during initial phase
 perform sub-space diagonalisation
    before iterative eigenvector-optimisation
 no mixing
 using additional bands           49
 real space projection scheme for non local part
 use partial core corrections
 calculate Harris-corrections to forces 
   (improved forces if not selfconsistent)
 use gradient corrections 
 WARNING: stress and forces are not correct
  (second derivative of E(xc) not defined)
 use of overlap-Matrix (Vanderbilt PP)
 Fermi weights with tetrahedron method with Bloechl corrections


--------------------------------------------------------------------------------------------------------


  energy-cutoff  :      500.00
  volume of cell :     1245.25
      direct lattice vectors                 reciprocal lattice vectors
     7.696786404  0.000000000  0.000000000     0.129924354 -0.075011849  0.000000000
     3.848392758  6.665612809  0.000000000     0.000000000  0.150023716  0.000000000
     0.000000000  0.000000000 24.272106894     0.000000000  0.000000000  0.041199555

  length of vectors
     7.696786404  7.696786404 24.272106894     0.150023716  0.150023716  0.041199555


 
 k-points in units of 2pi/SCALE and weight: Automatic mesh                          
   0.00000000  0.00000000  0.00000000       0.016
   0.01624054 -0.00937648  0.00000000       0.031
   0.01624054  0.00937648  0.00000000       0.031
   0.00000000  0.01875296  0.00000000       0.031
   0.03248109 -0.01875296  0.00000000       0.031
   0.03248109  0.01875297  0.00000000       0.031
   0.00000000  0.03750593  0.00000000       0.031
   0.04872163 -0.02812944  0.00000000       0.031
   0.04872163  0.02812945  0.00000000       0.031
   0.00000000  0.05625889  0.00000000       0.031
   0.06496218 -0.03750592  0.00000000       0.016
   0.06496218  0.03750593  0.00000000       0.016
   0.00000000  0.07501186  0.00000000       0.016
   0.03248109  0.00000000  0.00000000       0.031
   0.01624054  0.02812945  0.00000000       0.031
  -0.01624054  0.02812945  0.00000000       0.031
   0.04872163 -0.00937648  0.00000000       0.031
   0.03248109  0.03750593  0.00000000       0.031
  -0.01624054  0.04688241  0.00000000       0.031
   0.03248109 -0.03750593  0.00000000       0.031
  -0.01624054 -0.04688241  0.00000000       0.031
  -0.04872163 -0.00937649  0.00000000       0.031
   0.06496218 -0.01875296  0.00000000       0.031
   0.04872163  0.04688241  0.00000000       0.031
  -0.01624054  0.06563537  0.00000000       0.031
   0.04872163 -0.04688241  0.00000000       0.031
  -0.01624054  0.08438834  0.00000000       0.031
   0.06496218 -0.09376482  0.00000000       0.031
   0.06496218  0.00000000  0.00000000       0.031
   0.03248109  0.05625890  0.00000000       0.031
  -0.03248109  0.05625889  0.00000000       0.031
  -0.04872163  0.06563537  0.00000000       0.031
   0.04872163 -0.08438834  0.00000000       0.031
  -0.03248109  0.07501186  0.00000000       0.031
 
 k-points in reciprocal lattice and weights: Automatic mesh                          
   0.00000000  0.00000000  0.00000000       0.016
   0.12500000 -0.00000000  0.00000000       0.031
   0.12500000  0.12500000  0.00000000       0.031
   0.00000000  0.12500000  0.00000000       0.031
   0.25000000 -0.00000000  0.00000000       0.031
   0.25000000  0.25000000  0.00000000       0.031
   0.00000000  0.25000000  0.00000000       0.031
   0.37500000 -0.00000000  0.00000000       0.031
   0.37500000  0.37500000  0.00000000       0.031
   0.00000000  0.37500000  0.00000000       0.031
   0.50000000 -0.00000000  0.00000000       0.016
   0.50000000  0.50000000  0.00000000       0.016
   0.00000000  0.50000000  0.00000000       0.016
   0.25000000  0.12500000  0.00000000       0.031
   0.12500000  0.25000000  0.00000000       0.031
  -0.12500000  0.12500000  0.00000000       0.031
   0.37500000  0.12500000  0.00000000       0.031
   0.25000000  0.37500000  0.00000000       0.031
  -0.12500000  0.25000000  0.00000000       0.031
   0.25000000 -0.12500000  0.00000000       0.031
  -0.12500000 -0.37500000  0.00000000       0.031
  -0.37500000 -0.25000000  0.00000000       0.031
   0.50000000  0.12500000  0.00000000       0.031
   0.37500000  0.50000000  0.00000000       0.031
  -0.12500000  0.37500000  0.00000000       0.031
   0.37500000 -0.12500000  0.00000000       0.031
  -0.12500000  0.50000000  0.00000000       0.031
   0.50000000 -0.37500000  0.00000000       0.031
   0.50000000  0.25000000  0.00000000       0.031
   0.25000000  0.50000000  0.00000000       0.031
  -0.25000000  0.25000000  0.00000000       0.031
  -0.37500000  0.25000000  0.00000000       0.031
   0.37500000 -0.37500000  0.00000000       0.031
  -0.25000000  0.37500000  0.00000000       0.031
 
 position of ions in fractional coordinates (direct lattice) 
   0.00000000  0.00000000  0.22130587
   0.33333334  0.00000000  0.22130587
   0.66666669  0.00000000  0.22130587
   0.00000000  0.33333334  0.22130587
   0.33333331  0.33333334  0.22130587
   0.66666669  0.33333334  0.22130587
   0.00000000  0.66666669  0.22130587
   0.33333337  0.66666669  0.22130587
   0.66666663  0.66666669  0.22130587
   0.11111112  0.11111111  0.30761070
   0.44444442  0.11111111  0.30761070
   0.77777779  0.11111111  0.30761070
   0.11111112  0.44444445  0.30761070
   0.44444448  0.44444445  0.30761070
   0.77777773  0.44444445  0.30761070
   0.11111111  0.77777773  0.30761070
   0.44444448  0.77777773  0.30761070
   0.77777785  0.77777773  0.30761070
   0.88940620  0.22118761  0.39259963
   0.22309735  0.22309733  0.39473239
   0.55380536  0.22309733  0.39473239
   0.88885835  0.55557079  0.39353206
   0.22309732  0.55380530  0.39473239
   0.55557085  0.55557079  0.39353206
   0.88940620  0.88940620  0.39259963
   0.22118762  0.88940620  0.39259963
   0.55557079  0.88885835  0.39353206
   0.00000000  0.00000000  0.47946617
   0.33415947  0.99366786  0.47959917
   0.67217271  0.99366786  0.47959917
   0.99366786  0.33415947  0.47959917
   0.67217271  0.33415947  0.47959917
   0.99366786  0.67217271  0.47959917
   0.33415950  0.67217271  0.47959917
   0.66666663  0.66666669  0.48066654
   0.33333331  0.33333334  0.49575006
   0.22972673  0.33312413  0.61287149
   0.43718111  0.33303500  0.61288424
   0.33266562  0.33467624  0.58998735
 
 position of ions in cartesian coordinates  (Angst):
   0.00000000  0.00000000  5.37155964
   2.56559554  0.00000000  5.37155964
   5.13119109  0.00000000  5.37155964
   1.28279762  2.22187100  5.37155964
   3.84839293  2.22187100  5.37155964
   6.41398872  2.22187100  5.37155964
   2.56559525  4.44374201  5.37155964
   5.13119102  4.44374201  5.37155964
   7.69678588  4.44374201  5.37155964
   1.28279775  0.74062365  7.46635991
   3.84839295  0.74062365  7.46635991
   6.41398873  0.74062365  7.46635991
   2.56559535  2.96249461  7.46635991
   5.13119101  2.96249461  7.46635991
   7.69678586  2.96249461  7.46635991
   3.84839268  5.18436521  7.46635991
   6.41398840  5.18436521  7.46635991
   8.97958418  5.18436521  7.46635991
   7.69678637  1.47435097  9.52922029
   2.57569881  1.48708045  9.58098670
   5.12108774  1.48708045  9.58098670
   8.97940749  3.70321981  9.55185227
   3.84839273  3.69145171  9.58098670
   6.41416482  3.70321981  9.55185227
  10.26835396  5.92843738  9.52922029
   5.12521829  5.92843738  9.52922029
   7.69678578  5.92478561  9.55185227
   0.00000000  0.00000000 11.63765405
   6.39597824  6.62340519 11.64088240
   8.99759392  6.62340519 11.64088240
   8.93402612  2.22737764 11.64088240
   6.45954662  2.22737764 11.64088240
  10.23483381  4.48044299 11.64088240
   5.15873886  4.48044299 11.64088240
   7.69678588  4.44374201 11.66678957
   3.84839293  2.22187100 12.03289841
   3.05015010  2.22047648 14.87568228
   4.64653910  2.21988233 14.87599170
   3.84842180  2.23082222 14.32023604
 


--------------------------------------------------------------------------------------------------------


 k-point   1 :   0.0000 0.0000 0.0000  plane waves:   31487
 k-point   2 :   0.1250-0.0000 0.0000  plane waves:   31553
 k-point   3 :   0.1250 0.1250 0.0000  plane waves:   31553
 k-point   4 :   0.0000 0.1250 0.0000  plane waves:   31553
 k-point   5 :   0.2500-0.0000 0.0000  plane waves:   31574
 k-point   6 :   0.2500 0.2500 0.0000  plane waves:   31574
 k-point   7 :   0.0000 0.2500 0.0000  plane waves:   31574
 k-point   8 :   0.3750-0.0000 0.0000  plane waves:   31600
 k-point   9 :   0.3750 0.3750 0.0000  plane waves:   31600
 k-point  10 :   0.0000 0.3750 0.0000  plane waves:   31600
 k-point  11 :   0.5000-0.0000 0.0000  plane waves:   31646
 k-point  12 :   0.5000 0.5000 0.0000  plane waves:   31646
 k-point  13 :   0.0000 0.5000 0.0000  plane waves:   31646
 k-point  14 :   0.2500 0.1250 0.0000  plane waves:   31618
 k-point  15 :   0.1250 0.2500 0.0000  plane waves:   31618
 k-point  16 :  -0.1250 0.1250 0.0000  plane waves:   31618
 k-point  17 :   0.3750 0.1250 0.0000  plane waves:   31612
 k-point  18 :   0.2500 0.3750 0.0000  plane waves:   31612
 k-point  19 :  -0.1250 0.2500 0.0000  plane waves:   31612
 k-point  20 :   0.2500-0.1250 0.0000  plane waves:   31612
 k-point  21 :  -0.1250-0.3750 0.0000  plane waves:   31612
 k-point  22 :  -0.3750-0.2500 0.0000  plane waves:   31612
 k-point  23 :   0.5000 0.1250 0.0000  plane waves:   31639
 k-point  24 :   0.3750 0.5000 0.0000  plane waves:   31639
 k-point  25 :  -0.1250 0.3750 0.0000  plane waves:   31639
 k-point  26 :   0.3750-0.1250 0.0000  plane waves:   31639
 k-point  27 :  -0.1250 0.5000 0.0000  plane waves:   31639
 k-point  28 :   0.5000-0.3750 0.0000  plane waves:   31639
 k-point  29 :   0.5000 0.2500 0.0000  plane waves:   31648
 k-point  30 :   0.2500 0.5000 0.0000  plane waves:   31648
 k-point  31 :  -0.2500 0.2500 0.0000  plane waves:   31648
 k-point  32 :  -0.3750 0.2500 0.0000  plane waves:   31656
 k-point  33 :   0.3750-0.3750 0.0000  plane waves:   31656
 k-point  34 :  -0.2500 0.3750 0.0000  plane waves:   31656

 maximum and minimum number of plane-waves per node :     31656    31487

 maximum number of plane-waves:     31656
 maximum index in each direction: 
   IXMAX=   14   IYMAX=   14   IZMAX=   44
   IXMIN=  -14   IYMIN=  -14   IZMIN=  -44


 serial   3D FFT for wavefunctions
 parallel 3D FFT for charge:
    minimum data exchange during FFTs selected (reduces bandwidth)


 total amount of memory used by VASP MPI-rank0   225583. kBytes
=======================================================================

   base      :      30000. kBytes
   nonlr-proj:      18232. kBytes
   fftplans  :       3394. kBytes
   grid      :      15015. kBytes
   one-center:        606. kBytes
   wavefun   :     158336. kBytes
 
     INWAV:  cpu time    0.0000: real time    0.0000
 initial charge density was supplied:
 number of electron     404.9999752 magnetization 
 keeping initial charge density in first step


--------------------------------------------------------------------------------------------------------


 Maximum index for non-local projection operator         2849
 Maximum index for augmentation-charges          449 (set IRDMAX)


--------------------------------------------------------------------------------------------------------


 First call to EWALD:  gamma=   0.165
 Maximum number of real-space cells 4x 4x 1
 Maximum number of reciprocal cells 2x 2x 6

    FEWALD:  cpu time    0.0014: real time    0.0015


--------------------------------------- Iteration      1(   1)  ---------------------------------------


    POTLOK:  cpu time    0.0319: real time    0.0323
    SETDIJ:  cpu time    0.0042: real time    0.0043
     EDDAV:  cpu time   22.0238: real time   22.0255
 BZINTS: Fermi energy:   13.154476;  405.000000 electrons
         Band energy: 0.252304E+04;  BLOECHL correction:   -0.028560
       DOS:  cpu time    0.0619: real time    0.0620
    --------------------------------------------
      LOOP:  cpu time   22.1218: real time   22.1241

 eigenvalue-minimisations  : 17136
 total energy-change (2. order) : 0.3712186E+04  (-0.1715623E+05)
 number of electron     404.9999752 magnetization 
 augmentation part      404.9999752 magnetization 

 Free energy of the ion-electron system (eV)
  ---------------------------------------------------
  alpha Z        PSCENC =       801.93538274
  Ewald energy   TEWEN  =    206872.95487139
  -Hartree energ DENC   =   -254801.09665972
  -exchange      EXHF   =         0.00000000
  -V(xc)+E(xc)   XCENC  =      1641.12103161
  PAW double counting   =     47746.18838563   -51497.68043095
  entropy T*S    EENTRO =         0.00000000
  eigenvalues    EBANDS =      2523.03808435
  atomic energy  EATOM  =     50425.72542126
  Solvation  Ediel_sol  =         0.00000000
  ---------------------------------------------------
  free energy    TOTEN  =      3712.18608631 eV

  energy without entropy =     3712.18608631  energy(sigma->0) =     3712.18608631


--------------------------------------------------------------------------------------------------------




--------------------------------------- Iteration      1(   2)  ---------------------------------------


     EDDAV:  cpu time   24.0228: real time   24.0231
 BZINTS: Fermi energy:    3.223978;  405.000000 electrons
         Band energy:-0.839726E+03;  BLOECHL correction:   -0.017901
       DOS:  cpu time    0.0617: real time    0.0617
    --------------------------------------------
      LOOP:  cpu time   24.0845: real time   24.0848

 eigenvalue-minimisations  : 18984
 total energy-change (2. order) :-0.3362764E+04  (-0.3235184E+04)
 number of electron     404.9999752 magnetization 
 augmentation part      404.9999752 magnetization 

 Free energy of the ion-electron system (eV)
  ---------------------------------------------------
  alpha Z        PSCENC =       801.93538274
  Ewald energy   TEWEN  =    206872.95487139
  -Hartree energ DENC   =   -254801.09665972
  -exchange      EXHF   =         0.00000000
  -V(xc)+E(xc)   XCENC  =      1641.12103161
  PAW double counting   =     47746.18838563   -51497.68043095
  entropy T*S    EENTRO =         0.00000000
  eigenvalues    EBANDS =      -839.72615200
  atomic energy  EATOM  =     50425.72542126
  Solvation  Ediel_sol  =         0.00000000
  ---------------------------------------------------
  free energy    TOTEN  =       349.42184996 eV

  energy without entropy =      349.42184996  energy(sigma->0) =      349.42184996


--------------------------------------------------------------------------------------------------------




--------------------------------------- Iteration      1(   3)  ---------------------------------------


     EDDAV:  cpu time   24.6988: real time   24.6990
 BZINTS: Fermi energy:    0.623001;  405.000000 electrons
         Band energy:-0.130117E+04;  BLOECHL correction:   -0.048184
       DOS:  cpu time    0.0595: real time    0.0595
    --------------------------------------------
      LOOP:  cpu time   24.7583: real time   24.7585

 eigenvalue-minimisations  : 19628
 total energy-change (2. order) :-0.4614395E+03  (-0.4392066E+03)
 number of electron     404.9999752 magnetization 
 augmentation part      404.9999752 magnetization 

 Free energy of the ion-electron system (eV)
  ---------------------------------------------------
  alpha Z        PSCENC =       801.93538274
  Ewald energy   TEWEN  =    206872.95487139
  -Hartree energ DENC   =   -254801.09665972
  -exchange      EXHF   =         0.00000000
  -V(xc)+E(xc)   XCENC  =      1641.12103161
  PAW double counting   =     47746.18838563   -51497.68043095
  entropy T*S    EENTRO =         0.00000000
  eigenvalues    EBANDS =     -1301.16564243
  atomic energy  EATOM  =     50425.72542126
  Solvation  Ediel_sol  =         0.00000000
  ---------------------------------------------------
  free energy    TOTEN  =      -112.01764047 eV

  energy without entropy =     -112.01764047  energy(sigma->0) =     -112.01764047


--------------------------------------------------------------------------------------------------------




--------------------------------------- Iteration      1(   4)  ---------------------------------------


     EDDAV:  cpu time   30.1338: real time   30.1340
 BZINTS: Fermi energy:    0.412973;  405.000000 electrons
         Band energy:-0.133362E+04;  BLOECHL correction:   -0.039009
       DOS:  cpu time    0.0606: real time    0.0606
    --------------------------------------------
      LOOP:  cpu time   30.1944: real time   30.1947

 eigenvalue-minimisations  : 24948
 total energy-change (2. order) :-0.3245856E+02  (-0.3182264E+02)
 number of electron     404.9999752 magnetization 
 augmentation part      404.9999752 magnetization 

 Free energy of the ion-electron system (eV)
  ---------------------------------------------------
  alpha Z        PSCENC =       801.93538274
  Ewald energy   TEWEN  =    206872.95487139
  -Hartree energ DENC   =   -254801.09665972
  -exchange      EXHF   =         0.00000000
  -V(xc)+E(xc)   XCENC  =      1641.12103161
  PAW double counting   =     47746.18838563   -51497.68043095
  entropy T*S    EENTRO =         0.00000000
  eigenvalues    EBANDS =     -1333.62420446
  atomic energy  EATOM  =     50425.72542126
  Solvation  Ediel_sol  =         0.00000000
  ---------------------------------------------------
  free energy    TOTEN  =      -144.47620250 eV

  energy without entropy =     -144.47620250  energy(sigma->0) =     -144.47620250


--------------------------------------------------------------------------------------------------------




--------------------------------------- Iteration      1(   5)  ---------------------------------------


     EDDAV:  cpu time   35.4647: real time   35.4650
 BZINTS: Fermi energy:    0.404384;  405.000000 electrons
         Band energy:-0.133478E+04;  BLOECHL correction:   -0.039051
       DOS:  cpu time    0.0598: real time    0.0598
    --------------------------------------------
      LOOP:  cpu time   35.5245: real time   35.5248

 eigenvalue-minimisations  : 30016
 total energy-change (2. order) :-0.1152500E+01  (-0.1149225E+01)
 number of electron     404.9999752 magnetization 
 augmentation part      404.9999752 magnetization 

 Free energy of the ion-electron system (eV)
  ---------------------------------------------------
  alpha Z        PSCENC =       801.93538274
  Ewald energy   TEWEN  =    206872.95487139
  -Hartree energ DENC   =   -254801.09665972
  -exchange      EXHF   =         0.00000000
  -V(xc)+E(xc)   XCENC  =      1641.12103161
  PAW double counting   =     47746.18838563   -51497.68043095
  entropy T*S    EENTRO =         0.00000000
  eigenvalues    EBANDS =     -1334.77670492
  atomic energy  EATOM  =     50425.72542126
  Solvation  Ediel_sol  =         0.00000000
  ---------------------------------------------------
  free energy    TOTEN  =      -145.62870296 eV

  energy without entropy =     -145.62870296  energy(sigma->0) =     -145.62870296


--------------------------------------------------------------------------------------------------------




--------------------------------------- Iteration      1(   6)  ---------------------------------------


    EDDIAG:  cpu time    4.2620: real time    4.2658
  RMM-DIIS:  cpu time   14.7345: real time   14.7346
    ORTHCH:  cpu time    0.7687: real time    0.7687
 BZINTS: Fermi energy:    0.404296;  405.000000 electrons
         Band energy:-0.133480E+04;  BLOECHL correction:   -0.039068
       DOS:  cpu time    0.0610: real time    0.0610
    --------------------------------------------
      LOOP:  cpu time   19.8263: real time   19.8300

 eigenvalue-minimisations  : 21439
 total energy-change (2. order) :-0.1886432E-01  (-0.1885669E-01)
 number of electron     404.9999752 magnetization 
 augmentation part      404.9999752 magnetization 

 Free energy of the ion-electron system (eV)
  ---------------------------------------------------
  alpha Z        PSCENC =       801.93538274
  Ewald energy   TEWEN  =    206872.95487139
  -Hartree energ DENC   =   -254801.09665972
  -exchange      EXHF   =         0.00000000
  -V(xc)+E(xc)   XCENC  =      1641.12103161
  PAW double counting   =     47746.18838563   -51497.68043095
  entropy T*S    EENTRO =         0.00000000
  eigenvalues    EBANDS =     -1334.79556925
  atomic energy  EATOM  =     50425.72542126
  Solvation  Ediel_sol  =         0.00000000
  ---------------------------------------------------
  free energy    TOTEN  =      -145.64756729 eV

  energy without entropy =     -145.64756729  energy(sigma->0) =     -145.64756729


--------------------------------------------------------------------------------------------------------




--------------------------------------- Iteration      1(   7)  ---------------------------------------


    EDDIAG:  cpu time    4.2683: real time    4.2685
  RMM-DIIS:  cpu time   21.4216: real time   21.4216
    ORTHCH:  cpu time    0.7687: real time    0.7687
 BZINTS: Fermi energy:    0.404234;  405.000000 electrons
         Band energy:-0.133480E+04;  BLOECHL correction:   -0.039083
       DOS:  cpu time    0.0598: real time    0.0598
    --------------------------------------------
      LOOP:  cpu time   26.5184: real time   26.5187

 eigenvalue-minimisations  : 31728
 total energy-change (2. order) :-0.8217732E-02  (-0.8027843E-02)
 number of electron     404.9999752 magnetization 
 augmentation part      404.9999752 magnetization 

 Free energy of the ion-electron system (eV)
  ---------------------------------------------------
  alpha Z        PSCENC =       801.93538274
  Ewald energy   TEWEN  =    206872.95487139
  -Hartree energ DENC   =   -254801.09665972
  -exchange      EXHF   =         0.00000000
  -V(xc)+E(xc)   XCENC  =      1641.12103161
  PAW double counting   =     47746.18838563   -51497.68043095
  entropy T*S    EENTRO =         0.00000000
  eigenvalues    EBANDS =     -1334.80378698
  atomic energy  EATOM  =     50425.72542126
  Solvation  Ediel_sol  =         0.00000000
  ---------------------------------------------------
  free energy    TOTEN  =      -145.65578502 eV

  energy without entropy =     -145.65578502  energy(sigma->0) =     -145.65578502


--------------------------------------------------------------------------------------------------------




--------------------------------------- Iteration      1(   8)  ---------------------------------------


    EDDIAG:  cpu time    4.2739: real time    4.2740
  RMM-DIIS:  cpu time   22.2667: real time   22.2668
    ORTHCH:  cpu time    0.7691: real time    0.7691
 BZINTS: Fermi energy:    0.404222;  405.000000 electrons
         Band energy:-0.133481E+04;  BLOECHL correction:   -0.039087
       DOS:  cpu time    0.0612: real time    0.0612
    --------------------------------------------
      LOOP:  cpu time   27.3710: real time   27.3711

 eigenvalue-minimisations  : 33412
 total energy-change (2. order) :-0.2100530E-02  (-0.1995996E-02)
 number of electron     404.9999752 magnetization 
 augmentation part      404.9999752 magnetization 

 Free energy of the ion-electron system (eV)
  ---------------------------------------------------
  alpha Z        PSCENC =       801.93538274
  Ewald energy   TEWEN  =    206872.95487139
  -Hartree energ DENC   =   -254801.09665972
  -exchange      EXHF   =         0.00000000
  -V(xc)+E(xc)   XCENC  =      1641.12103161
  PAW double counting   =     47746.18838563   -51497.68043095
  entropy T*S    EENTRO =         0.00000000
  eigenvalues    EBANDS =     -1334.80588751
  atomic energy  EATOM  =     50425.72542126
  Solvation  Ediel_sol  =         0.00000000
  ---------------------------------------------------
  free energy    TOTEN  =      -145.65788555 eV

  energy without entropy =     -145.65788555  energy(sigma->0) =     -145.65788555


--------------------------------------------------------------------------------------------------------




--------------------------------------- Iteration      1(   9)  ---------------------------------------


    EDDIAG:  cpu time    4.2758: real time    4.2759
WARNING in EDDRMM: call to ZHEGV failed, returncode =   6  3      3
  RMM-DIIS:  cpu time   21.1201: real time   21.1202
    ORTHCH:  cpu time    0.7701: real time    0.7701
 BZINTS: Fermi energy:    0.404214;  405.000000 electrons
         Band energy:-0.133481E+04;  BLOECHL correction:   -0.039089
       DOS:  cpu time    0.0585: real time    0.0585
    --------------------------------------------
      LOOP:  cpu time   26.2245: real time   26.2248

 eigenvalue-minimisations  : 31426
 total energy-change (2. order) :-0.8325239E-03  (-0.7926170E-03)
 number of electron     404.9999752 magnetization 
 augmentation part      404.9999752 magnetization 

 Free energy of the ion-electron system (eV)
  ---------------------------------------------------
  alpha Z        PSCENC =       801.93538274
  Ewald energy   TEWEN  =    206872.95487139
  -Hartree energ DENC   =   -254801.09665972
  -exchange      EXHF   =         0.00000000
  -V(xc)+E(xc)   XCENC  =      1641.12103161
  PAW double counting   =     47746.18838563   -51497.68043095
  entropy T*S    EENTRO =         0.00000000
  eigenvalues    EBANDS =     -1334.80672003
  atomic energy  EATOM  =     50425.72542126
  Solvation  Ediel_sol  =         0.00000000
  ---------------------------------------------------
  free energy    TOTEN  =      -145.65871807 eV

  energy without entropy =     -145.65871807  energy(sigma->0) =     -145.65871807


--------------------------------------------------------------------------------------------------------




--------------------------------------- Iteration      1(  10)  ---------------------------------------


    EDDIAG:  cpu time    4.2807: real time    4.2808
  RMM-DIIS:  cpu time   19.2427: real time   19.2428
    ORTHCH:  cpu time    0.7691: real time    0.7691
 BZINTS: Fermi energy:    0.404210;  405.000000 electrons
         Band energy:-0.133481E+04;  BLOECHL correction:   -0.039090
       DOS:  cpu time    0.0612: real time    0.0612
    --------------------------------------------
      LOOP:  cpu time   24.3538: real time   24.3539

 eigenvalue-minimisations  : 27784
 total energy-change (2. order) :-0.3979823E-03  (-0.3868201E-03)
 number of electron     404.9999752 magnetization 
 augmentation part      404.9999752 magnetization 

 Free energy of the ion-electron system (eV)
  ---------------------------------------------------
  alpha Z        PSCENC =       801.93538274
  Ewald energy   TEWEN  =    206872.95487139
  -Hartree energ DENC   =   -254801.09665972
  -exchange      EXHF   =         0.00000000
  -V(xc)+E(xc)   XCENC  =      1641.12103161
  PAW double counting   =     47746.18838563   -51497.68043095
  entropy T*S    EENTRO =         0.00000000
  eigenvalues    EBANDS =     -1334.80711802
  atomic energy  EATOM  =     50425.72542126
  Solvation  Ediel_sol  =         0.00000000
  ---------------------------------------------------
  free energy    TOTEN  =      -145.65911606 eV

  energy without entropy =     -145.65911606  energy(sigma->0) =     -145.65911606


--------------------------------------------------------------------------------------------------------




--------------------------------------- Iteration      1(  11)  ---------------------------------------


    EDDIAG:  cpu time    4.2716: real time    4.2718
  RMM-DIIS:  cpu time   18.9217: real time   18.9218
    ORTHCH:  cpu time    0.7694: real time    0.7695
 BZINTS: Fermi energy:    0.404208;  405.000000 electrons
         Band energy:-0.133481E+04;  BLOECHL correction:   -0.039091
       DOS:  cpu time    0.0612: real time    0.0612
    --------------------------------------------
      LOOP:  cpu time   24.0240: real time   24.0242

 eigenvalue-minimisations  : 27533
 total energy-change (2. order) :-0.2071001E-03  (-0.2050026E-03)
 number of electron     404.9999752 magnetization 
 augmentation part      404.9999752 magnetization 

 Free energy of the ion-electron system (eV)
  ---------------------------------------------------
  alpha Z        PSCENC =       801.93538274
  Ewald energy   TEWEN  =    206872.95487139
  -Hartree energ DENC   =   -254801.09665972
  -exchange      EXHF   =         0.00000000
  -V(xc)+E(xc)   XCENC  =      1641.12103161
  PAW double counting   =     47746.18838563   -51497.68043095
  entropy T*S    EENTRO =         0.00000000
  eigenvalues    EBANDS =     -1334.80732512
  atomic energy  EATOM  =     50425.72542126
  Solvation  Ediel_sol  =         0.00000000
  ---------------------------------------------------
  free energy    TOTEN  =      -145.65932316 eV

  energy without entropy =     -145.65932316  energy(sigma->0) =     -145.65932316


--------------------------------------------------------------------------------------------------------




--------------------------------------- Iteration      1(  12)  ---------------------------------------


    EDDIAG:  cpu time    4.2572: real time    4.2573
  RMM-DIIS:  cpu time   17.1238: real time   17.1239
    ORTHCH:  cpu time    0.7686: real time    0.7686
 BZINTS: Fermi energy:    0.404206;  405.000000 electrons
         Band energy:-0.133481E+04;  BLOECHL correction:   -0.039091
       DOS:  cpu time    0.0599: real time    0.0599
    --------------------------------------------
      LOOP:  cpu time   22.2095: real time   22.2097

 eigenvalue-minimisations  : 24585
 total energy-change (2. order) :-0.1113334E-03  (-0.1114302E-03)
 number of electron     404.9999752 magnetization 
 augmentation part      404.9999752 magnetization 

 Free energy of the ion-electron system (eV)
  ---------------------------------------------------
  alpha Z        PSCENC =       801.93538274
  Ewald energy   TEWEN  =    206872.95487139
  -Hartree energ DENC   =   -254801.09665972
  -exchange      EXHF   =         0.00000000
  -V(xc)+E(xc)   XCENC  =      1641.12103161
  PAW double counting   =     47746.18838563   -51497.68043095
  entropy T*S    EENTRO =         0.00000000
  eigenvalues    EBANDS =     -1334.80743645
  atomic energy  EATOM  =     50425.72542126
  Solvation  Ediel_sol  =         0.00000000
  ---------------------------------------------------
  free energy    TOTEN  =      -145.65943449 eV

  energy without entropy =     -145.65943449  energy(sigma->0) =     -145.65943449


--------------------------------------------------------------------------------------------------------




--------------------------------------- Iteration      1(  13)  ---------------------------------------


    EDDIAG:  cpu time    4.2632: real time    4.2633
  RMM-DIIS:  cpu time   16.3777: real time   16.3778
    ORTHCH:  cpu time    0.7691: real time    0.7691
 BZINTS: Fermi energy:    0.404205;  405.000000 electrons
[...]
  0.000   0.000   0.000   0.000   0.000   0.000   0.000   0.000   0.000   0.000   1.000   0.000   0.000   0.000   0.000   0.000
  0.000   0.000   0.000   0.000   0.000   0.000   0.000   0.000   0.000   0.000   0.000   0.000   0.000   0.000   0.000   0.000
  0.000   0.000   0.000   0.000   0.000   0.000   0.000   0.000   0.000   0.000   0.000   0.000   0.000   0.000   0.000   0.000
  0.000   0.000   0.000   0.000   0.000   0.000   0.000   0.000   0.000   0.000   0.000   0.000   0.000   0.000   0.000   0.000
  0.000   0.000   0.000   0.000   0.000   0.000   0.000   0.000   0.000   0.000   0.000   0.000   0.000   0.000   0.000   0.000
  0.000   0.000   0.000   0.000   0.000   0.000   0.000   0.000   0.000   0.000   0.000   0.000   0.000   0.000   0.000   0.000
  0.000   0.000   0.000   0.000   0.000   0.000   0.000   0.000   0.000   0.000   0.000   0.000   0.000   0.000   0.000   0.000
  0.000   0.000   0.000   0.000   0.000   0.000   0.000   0.000   0.000   0.000   0.000   0.000   0.000   0.000   0.000   0.000


------------------------ aborting loop because EDIFF is reached ----------------------------------------





 total charge

# of ion       s       p       d       tot
------------------------------------------
    1        0.449   0.284   9.187   9.920
    2        0.448   0.286   9.185   9.919
    3        0.448   0.286   9.185   9.919
    4        0.448   0.286   9.185   9.919
    5        0.448   0.287   9.182   9.916
    6        0.448   0.286   9.185   9.919
    7        0.448   0.286   9.185   9.919
    8        0.448   0.286   9.185   9.919
    9        0.450   0.285   9.186   9.920
   10        0.443   0.371   9.176   9.990
   11        0.441   0.365   9.181   9.986
   12        0.443   0.371   9.176   9.990
   13        0.441   0.365   9.181   9.987
   14        0.441   0.365   9.181   9.986
   15        0.439   0.373   9.177   9.989
   16        0.442   0.371   9.177   9.990
   17        0.439   0.373   9.177   9.989
   18        0.439   0.373   9.177   9.989
   19        0.447   0.374   9.179   9.999
   20        0.456   0.380   9.162   9.997
   21        0.456   0.380   9.162   9.997
   22        0.435   0.377   9.177   9.989
   23        0.455   0.380   9.161   9.997
   24        0.435   0.377   9.177   9.989
   25        0.446   0.373   9.180   9.999
   26        0.446   0.373   9.180   9.999
   27        0.435   0.377   9.177   9.989
   28        0.442   0.303   9.177   9.922
   29        0.488   0.327   9.158   9.974
   30        0.488   0.327   9.158   9.974
   31        0.488   0.330   9.155   9.973
   32        0.488   0.330   9.155   9.973
   33        0.488   0.327   9.158   9.974
   34        0.488   0.327   9.158   9.974
   35        0.442   0.308   9.178   9.928
   36        2.219   5.976   1.577   9.772
   37        0.604   0.121   0.000   0.725
   38        0.604   0.121   0.000   0.725
   39        1.552   3.670   0.000   5.221
--------------------------------------------------
tot         20.807  21.755 322.699 365.261
 
    CHARGE:  cpu time    0.8172: real time    0.8172
    FORLOC:  cpu time    0.0095: real time    0.0095
    FORNL :  cpu time    4.4572: real time    4.4573
    STRESS:  cpu time   13.3500: real time   13.3502
    FORCOR:  cpu time    0.0328: real time    0.0329
    FORHAR:  cpu time    0.0145: real time    0.0145
    OFIELD:  cpu time    0.0002: real time    0.0002

  FORCE on cell =-STRESS in cart. coord.  units (eV):
  Direction    XX          YY          ZZ          XY          YZ          ZX
  --------------------------------------------------------------------------------------
  Alpha Z   801.93538   801.93538   801.93538
  Ewald  233207.51835233076.03147************    -0.04808    -0.54139     0.01036
  Hartree246359.75662246334.69666************    -0.01204     0.01786     0.00625
  E(xc)   -2333.40961 -2333.97525 -2338.11812    -0.00033    -0.00278     0.00006
  Local  ************************492781.05802     0.07227     0.16655    -0.01589
  n-local  -796.96289  -797.17885  -799.19376     0.00203     0.02078     0.00050
  augment  3316.93012  3319.31039  3336.98939    -0.01831     0.02108    -0.00020
  Kinetic  3494.83055  3529.88655  3522.95824     0.01423     0.31037    -0.00378
  Fock        0.00000     0.00000     0.00000     0.00000     0.00000     0.00000
  -------------------------------------------------------------------------------------
  Total      -6.19775    -6.16067    -1.55714     0.00977    -0.00753    -0.00270
  in kB      -7.97421    -7.92650    -2.00346     0.01257    -0.00968    -0.00348
  external pressure =       -5.97 kB  Pullay stress =        0.00 kB


 VOLUME and BASIS-vectors are now :
 -----------------------------------------------------------------------------
  energy-cutoff  :      500.00
  volume of cell :     1245.25
      direct lattice vectors                 reciprocal lattice vectors
     7.696786404  0.000000000  0.000000000     0.129924354 -0.075011849  0.000000000
     3.848392758  6.665612809  0.000000000     0.000000000  0.150023716  0.000000000
     0.000000000  0.000000000 24.272106894     0.000000000  0.000000000  0.041199555

  length of vectors
     7.696786404  7.696786404 24.272106894     0.150023716  0.150023716  0.041199555


 FORCES acting on ions
    electron-ion (+dipol)            ewald-force                    non-local-force                 convergence-correction
 -----------------------------------------------------------------------------------------------
   0.259E-02 0.242E-01 0.381E+04   0.592E-04 -.148E-02 -.380E+04   0.134E-03 -.144E-01 -.216E+01   -.279E-02 -.101E-01 -.111E+00
   -.928E+00 -.962E+00 0.380E+04   0.885E+00 0.936E+00 -.380E+04   0.331E-01 0.575E-01 -.189E+01   0.188E-01 -.258E-01 -.312E-01
   0.925E+00 -.976E+00 0.380E+04   -.885E+00 0.936E+00 -.380E+04   -.337E-01 0.563E-01 -.189E+01   -.155E-01 -.110E-01 -.269E-01
   -.132E+01 -.331E+00 0.380E+04   0.125E+01 0.297E+00 -.380E+04   0.850E-01 0.997E-02 -.189E+01   -.108E-01 0.275E-01 -.364E-01
   -.177E-01 0.133E-01 0.380E+04   0.116E-03 -.631E-03 -.380E+04   -.873E-02 -.169E-01 -.185E+01   0.266E-01 0.455E-02 -.267E-01
   0.133E+01 -.336E+00 0.380E+04   -.125E+01 0.297E+00 -.380E+04   -.844E-01 0.938E-02 -.189E+01   -.217E-02 0.331E-01 -.286E-01
   -.357E+00 0.129E+01 0.380E+04   0.370E+00 -.123E+01 -.380E+04   0.115E-01 -.629E-01 -.188E+01   -.206E-01 -.522E-03 -.144E-01
   0.346E+00 0.130E+01 0.380E+04   -.370E+00 -.123E+01 -.380E+04   -.135E-01 -.622E-01 -.188E+01   0.342E-01 -.995E-02 -.114E-01
   0.162E-01 -.789E-02 0.380E+04   0.262E-03 0.211E-02 -.380E+04   0.957E-02 0.130E-01 -.194E+01   -.264E-01 -.617E-02 -.276E-01
   -.104E+02 -.599E+01 0.134E+04   0.106E+02 0.611E+01 -.134E+04   -.163E+00 -.118E+00 -.875E+00   0.230E-01 0.279E-01 -.443E+00
   -.160E-01 -.849E+01 0.132E+04   0.182E-03 0.819E+01 -.132E+04   -.855E-02 0.269E+00 -.432E+00   0.248E-01 0.213E-01 -.481E+00
   0.104E+02 -.600E+01 0.134E+04   -.106E+02 0.611E+01 -.134E+04   0.164E+00 -.119E+00 -.875E+00   -.354E-01 0.411E-01 -.441E+00
   -.736E+01 0.424E+01 0.132E+04   0.711E+01 -.410E+01 -.132E+04   0.234E+00 -.138E+00 -.414E+00   0.146E-01 0.155E-02 -.453E+00
   0.734E+01 0.425E+01 0.132E+04   -.711E+01 -.410E+01 -.132E+04   -.252E+00 -.137E+00 -.414E+00   0.315E-01 -.302E-02 -.452E+00
   0.172E-01 -.203E+01 0.134E+04   0.292E-03 0.195E+01 -.134E+04   0.229E-02 0.694E-01 -.897E+00   -.197E-01 0.187E-01 -.430E+00
   -.393E-02 0.120E+02 0.134E+04   0.196E-03 -.122E+02 -.134E+04   0.235E-03 0.204E+00 -.865E+00   0.349E-02 -.386E-01 -.430E+00
   -.176E+01 0.101E+01 0.134E+04   0.168E+01 -.962E+00 -.134E+04   0.553E-01 -.220E-01 -.880E+00   0.255E-01 -.348E-01 -.445E+00
   0.176E+01 0.998E+00 0.134E+04   -.168E+01 -.962E+00 -.134E+04   -.561E-01 -.235E-01 -.880E+00   -.285E-01 -.170E-01 -.444E+00
   0.141E-01 -.464E+01 -.112E+04   0.922E-04 0.474E+01 0.112E+04   0.112E-02 -.931E-01 0.848E+00   -.153E-01 -.177E-01 -.381E+00
   -.257E+02 -.148E+02 -.120E+04   0.267E+02 0.153E+02 0.120E+04   -.109E+01 -.626E+00 -.715E+00   0.321E-01 0.688E-01 -.277E+00
   0.257E+02 -.148E+02 -.120E+04   -.267E+02 0.153E+02 0.120E+04   0.107E+01 -.627E+00 -.715E+00   0.114E-01 0.781E-01 -.280E+00
   -.108E+02 0.617E+01 -.115E+04   0.106E+02 -.600E+01 0.115E+04   0.256E+00 -.129E+00 0.683E+00   0.243E-01 -.500E-01 -.373E+00
   -.189E-01 0.296E+02 -.120E+04   0.202E-03 -.308E+02 0.120E+04   -.866E-02 0.125E+01 -.638E+00   0.278E-01 -.509E-01 -.289E+00
   0.108E+02 0.618E+01 -.115E+04   -.106E+02 -.600E+01 0.115E+04   -.254E+00 -.128E+00 0.683E+00   -.401E-01 -.580E-01 -.374E+00
   0.405E+01 0.237E+01 -.112E+04   -.418E+01 -.242E+01 0.112E+04   0.828E-01 0.318E-01 0.937E+00   0.549E-01 0.291E-01 -.400E+00
   -.405E+01 0.238E+01 -.112E+04   0.418E+01 -.242E+01 0.112E+04   -.832E-01 0.330E-01 0.937E+00   -.534E-01 0.115E-01 -.398E+00
   0.161E-02 -.125E+02 -.115E+04   0.171E-03 0.122E+02 0.115E+04   0.611E-03 0.275E+00 0.742E+00   -.243E-02 0.173E-01 -.389E+00
   0.108E-02 0.442E+00 -.363E+04   0.435E-03 -.490E+00 0.363E+04   0.315E-03 0.314E-01 0.154E+01   -.173E-02 0.208E-01 -.504E-01
   0.427E+01 -.571E+01 -.359E+04   -.395E+01 0.585E+01 0.359E+04   -.323E+00 -.185E+00 0.319E+00   -.259E-01 0.115E-01 -.174E+00
   -.427E+01 -.573E+01 -.359E+04   0.395E+01 0.585E+01 0.359E+04   0.322E+00 -.186E+00 0.319E+00   0.286E-01 0.266E-01 -.176E+00
   -.280E+01 0.709E+01 -.359E+04   0.313E+01 -.689E+01 0.359E+04   -.351E+00 -.180E+00 0.616E-01   0.229E-02 -.176E-01 -.159E+00
   0.281E+01 0.708E+01 -.359E+04   -.313E+01 -.689E+01 0.359E+04   0.351E+00 -.180E+00 0.625E-01   -.157E-01 -.121E-01 -.165E+00
   -.765E+01 -.148E+01 -.359E+04   0.762E+01 0.114E+01 0.359E+04   -.758E-02 0.369E+00 0.327E+00   0.885E-02 0.137E-02 -.195E+00
   0.764E+01 -.147E+01 -.359E+04   -.762E+01 0.114E+01 0.359E+04   0.587E-02 0.369E+00 0.328E+00   0.450E-02 -.776E-02 -.200E+00
   0.169E-01 -.577E+00 -.365E+04   -.169E-03 0.653E+00 0.365E+04   0.964E-02 -.508E-01 0.182E+01   -.268E-01 -.319E-01 -.179E+00
   -.162E-01 0.654E+00 -.403E+04   -.190E-03 -.669E+00 0.403E+04   -.779E-03 -.360E-02 0.280E+01   0.169E-01 0.383E-02 -.160E+00
   0.740E+02 0.892E+00 -.385E+03   -.811E+02 -.977E+00 0.390E+03   0.710E+01 0.830E-01 -.464E+01   -.792E-03 -.361E-03 0.121E-01
   -.740E+02 0.946E+00 -.385E+03   0.811E+02 -.104E+01 0.390E+03   -.710E+01 0.881E-01 -.464E+01   0.988E-03 -.325E-03 0.120E-01
   -.172E-01 -.131E+01 -.218E+04   0.285E-01 0.232E+01 0.214E+04   -.835E-02 -.100E+01 0.356E+02   -.455E-03 -.207E-02 0.652E-01
 -----------------------------------------------------------------------------------------------
   -.204E-01 0.845E+00 -.393E+01   -.142E-12 -.108E-12 0.227E-11   -.475E-01 -.893E+00 0.129E+02   0.707E-01 0.389E-01 -.886E+01
 
 
 POSITION                                       TOTAL-FORCE (eV/Angst)
 -----------------------------------------------------------------------------------
      0.00000      0.00000      5.37156        -0.000071     -0.001521      0.006819
      2.56560      0.00000      5.37156         0.008545      0.005991      0.045803
      5.13119      0.00000      5.37156        -0.008733      0.005869      0.045784
      1.28280      2.22187      5.37156         0.007324      0.003546      0.046921
      3.84839      2.22187      5.37156         0.000269      0.000609      0.051788
      6.41399      2.22187      5.37156        -0.007337      0.003511      0.046941
      2.56560      4.44374      5.37156         0.003625     -0.009062      0.044688
      5.13119      4.44374      5.37156        -0.003825     -0.008976      0.044740
      7.69679      4.44374      5.37156        -0.000451      0.001292      0.021505
      1.28280      0.74062      7.46636         0.039959      0.023455     -0.106076
      3.84839      0.74062      7.46636         0.000347     -0.010056     -0.012547
      6.41399      0.74062      7.46636        -0.039968      0.023388     -0.106147
      2.56560      2.96249      7.46636        -0.007370      0.008514     -0.014210
      5.13119      2.96249      7.46636         0.008223      0.008574     -0.014241
      7.69679      2.96249      7.46636         0.000015      0.008341     -0.038639
      3.84839      5.18437      7.46636        -0.000080     -0.048073     -0.105261
      6.41399      5.18437      7.46636         0.006711     -0.004711     -0.032777
      8.97958      5.18437      7.46636        -0.006773     -0.004825     -0.032812
      7.69679      1.47435      9.52922        -0.000046     -0.003815     -0.018552
      2.57570      1.48708      9.58099        -0.037187     -0.018363     -0.086095
      5.12109      1.48708      9.58099         0.038089     -0.018461     -0.086064
      8.97941      3.70322      9.55185         0.006172     -0.008038      0.002403
      3.84839      3.69145      9.58099         0.000326      0.045999     -0.083178
      6.41416      3.70322      9.55185        -0.006241     -0.007975      0.002394
     10.26835      5.92844      9.52922         0.009258      0.006121     -0.017094
      5.12522      5.92844      9.52922        -0.009386      0.006139     -0.017178
      7.69679      5.92479      9.55185        -0.000111      0.015562      0.011836
      0.00000      0.00000     11.63765         0.000026      0.005305      0.042173
      6.39598      6.62341     11.64088        -0.035309     -0.033294     -0.039660
      8.99759      6.62341     11.64088         0.035089     -0.033331     -0.039515
      8.93403      2.22738     11.64088        -0.019422     -0.001943      0.003044
      6.45955      2.22738     11.64088         0.019416     -0.002011      0.003034
     10.23483      4.48044     11.64088        -0.032675      0.033613     -0.037673
      5.15874      4.48044     11.64088         0.032517      0.033823     -0.037791
      7.69679      4.44374     11.66679        -0.000484     -0.006542      0.033648
      3.84839      2.22187     12.03290        -0.000346     -0.014033      0.470265
      3.05015      2.22048     14.87568        -0.004025     -0.002485     -0.000771
      4.64654      2.21988     14.87599         0.001463     -0.002969     -0.002727
      3.84842      2.23082     14.32024         0.002470      0.000834      0.005221
 -----------------------------------------------------------------------------------
    total drift:                                0.002782     -0.008710      0.060973


--------------------------------------------------------------------------------------------------------



  FREE ENERGIE OF THE ION-ELECTRON SYSTEM (eV)
  ---------------------------------------------------
  free  energy   TOTEN  =      -145.65957305 eV

  energy  without entropy=     -145.65957305  energy(sigma->0) =     -145.65957305
 


--------------------------------------------------------------------------------------------------------


    POTLOK:  cpu time    0.0330: real time    0.0330


--------------------------------------------------------------------------------------------------------


 stress matrix after NEB project (eV)
     -6.19775      0.00977     -0.00270
      0.00977     -6.16067     -0.00753
     -0.00270     -0.00753     -1.55714
  FORCES: max atom, RMS     0.005836    0.001391
  FORCE total and by dimension    0.008685    0.005221
  Stress total and by dimension    8.876425    6.197751
     LOOP+:  cpu time  422.8995: real time  422.9139
 -----------------------------------------------------------------------------
|                                                                             |
|           W    W    AA    RRRRR   N    N  II  N    N   GGGG   !!!           |
|           W    W   A  A   R    R  NN   N  II  NN   N  G    G  !!!           |
|           W    W  A    A  R    R  N N  N  II  N N  N  G       !!!           |
|           W WW W  AAAAAA  RRRRR   N  N N  II  N  N N  G  GGG   !            |
|           WW  WW  A    A  R   R   N   NN  II  N   NN  G    G                |
|           W    W  A    A  R    R  N    N  II  N    N   GGGG   !!!           |
|                                                                             |
|     Tetrahedron method does not include variations of the Fermi             |
|     occupations, so forces and stress will be inaccurate. We suggest        |
|     using a different smearing scheme ISMEAR = 1 or 2 for metals in         |
|     relaxations.                                                            |
|                                                                             |
 -----------------------------------------------------------------------------

    4ORBIT:  cpu time    0.0000: real time    0.0000



 total charge

# of ion       s       p       d       tot
------------------------------------------
    1        0.449   0.284   9.187   9.920
    2        0.448   0.286   9.185   9.919
    3        0.448   0.286   9.185   9.919
    4        0.448   0.286   9.185   9.919
    5        0.448   0.287   9.182   9.916
    6        0.448   0.286   9.185   9.919
    7        0.448   0.286   9.185   9.919
    8        0.448   0.286   9.185   9.919
    9        0.450   0.285   9.186   9.920
   10        0.443   0.371   9.176   9.990
   11        0.441   0.365   9.181   9.986
   12        0.443   0.371   9.176   9.990
   13        0.441   0.365   9.181   9.987
   14        0.441   0.365   9.181   9.986
   15        0.439   0.373   9.177   9.989
   16        0.442   0.371   9.177   9.990
   17        0.439   0.373   9.177   9.989
   18        0.439   0.373   9.177   9.989
   19        0.447   0.374   9.179   9.999
   20        0.456   0.380   9.162   9.997
   21        0.456   0.380   9.162   9.997
   22        0.435   0.377   9.177   9.989
   23        0.455   0.380   9.161   9.997
   24        0.435   0.377   9.177   9.989
   25        0.446   0.373   9.180   9.999
   26        0.446   0.373   9.180   9.999
   27        0.435   0.377   9.177   9.989
   28        0.442   0.303   9.177   9.922
   29        0.488   0.327   9.158   9.974
   30        0.488   0.327   9.158   9.974
   31        0.488   0.330   9.155   9.973
   32        0.488   0.330   9.155   9.973
   33        0.488   0.327   9.158   9.974
   34        0.488   0.327   9.158   9.974
   35        0.442   0.308   9.178   9.928
   36        2.219   5.976   1.577   9.772
   37        0.604   0.121   0.000   0.725
   38        0.604   0.121   0.000   0.725
   39        1.552   3.670   0.000   5.221
--------------------------------------------------
tot         20.807  21.755 322.699 365.261
 
 BZINTS: Fermi energy:    0.404203;  405.000000 electrons
         Band energy:-0.133481E+04;  BLOECHL correction:   -0.039092

 total amount of memory used by VASP MPI-rank0   225583. kBytes
=======================================================================

   base      :      30000. kBytes
   nonlr-proj:      18232. kBytes
   fftplans  :       3394. kBytes
   grid      :      15015. kBytes
   one-center:        606. kBytes
   wavefun   :     158336. kBytes
 
  
  
 General timing and accounting informations for this job:
 ========================================================
  
                  Total CPU time used (sec):      441.929
                            User time (sec):      430.249
                          System time (sec):       11.680
                         Elapsed time (sec):      442.497
  
                   Maximum memory used (kb):      495604.
                   Average memory used (kb):          N/A
  
                          Minor page faults:       157861
                          Major page faults:            0
                 Voluntary context switches:         8668
