 vasp.6.2.0 18Jan21 (build Jun 12 2021 23:27:24) complex                        
  
 executed on             LinuxIFC date 2022.05.30  17:42:39
 running on   28 total cores
 distrk:  each k-point on   28 cores,    1 groups
 distr:  one band on NCORE=   1 cores,   28 groups


--------------------------------------------------------------------------------------------------------


 INCAR:
   ISMEAR = -5
   SIGMA = 0.1
   ISPIN = 1
   EDIFF = 1.d-5
   EDIFFG = -0.01
   NSW = 0
   NELM = 150
   ENCUT = 500
   ISIF = 2
   IBRION = 2
   LREAL = Auto
   ALGO = Fast
   ICHARG = 11
   LORBIT = 10
   LCHARG = .F.
   LWAVE = .F.

 POTCAR:    PAW_PBE Ag 02Apr2005                  
 POTCAR:    PAW_PBE Os 17Jan2003                  
 POTCAR:    PAW_PBE C 08Apr2002                   
 -----------------------------------------------------------------------------
|                                                                             |
|           W    W    AA    RRRRR   N    N  II  N    N   GGGG   !!!           |
|           W    W   A  A   R    R  NN   N  II  NN   N  G    G  !!!           |
|           W    W  A    A  R    R  N N  N  II  N N  N  G       !!!           |
|           W WW W  AAAAAA  RRRRR   N  N N  II  N  N N  G  GGG   !            |
|           WW  WW  A    A  R   R   N   NN  II  N   NN  G    G                |
|           W    W  A    A  R    R  N    N  II  N    N   GGGG   !!!           |
|                                                                             |
|     For optimal performance we recommend to set                             |
|       NCORE = 2 up to number-of-cores-per-socket                            |
|     NCORE specifies how many cores store one orbital (NPAR=cpu/NCORE).      |
|     This setting can greatly improve the performance of VASP for DFT.       |
|     The default, NCORE=1 might be grossly inefficient on modern             |
|     multi-core architectures or massively parallel machines. Do your        |
|     own testing! More info at https://www.vasp.at/wiki/index.php/NCORE      |
|     Unfortunately you need to use the default for GW and RPA                |
|     calculations (for HF NCORE is supported but not extensively tested      |
|     yet).                                                                   |
|                                                                             |
 -----------------------------------------------------------------------------

 POTCAR:    PAW_PBE Ag 02Apr2005                  
   VRHFIN =Ag : s1 d10                                                                              
   LEXCH  = PE                                                                                      
   EATOM  =  1037.2675 eV,   76.2370 Ry                                                             
                                                                                                    
   TITEL  = PAW_PBE Ag 02Apr2005                                                                    
   LULTRA =        F    use ultrasoft PP ?                                                          
   IUNSCR =        1    unscreen: 0-lin 1-nonlin 2-no                                               
   RPACOR =    2.000    partial core radius                                                         
   POMASS =  107.868; ZVAL   =   11.000    mass and valenz                                          
   RCORE  =    2.500    outmost cutoff radius                                                       
   RWIGS  =    2.840; RWIGS  =    1.503    wigner-seitz radius (au A)                               
   ENMAX  =  249.844; ENMIN  =  187.383 eV                                                          
   ICORE  =        3    local potential                                                             
   LCOR   =        T    correct aug charges                                                         
   LPAW   =        T    paw PP                                                                      
   EAUG   =  412.496                                                                                
   DEXC   =    0.000                                                                                
   RMAX   =    2.560    core radius for proj-oper                                                   
   RAUG   =    1.300    factor for augmentation sphere                                              
   RDEP   =    2.576    radius for radial grids                                                     
   RDEPT  =    2.072    core radius for aug-charge                                                  
                                                                                                    
   Atomic configuration                                                                             
   12 entries                                                                                       
     n  l   j            E        occ.                                                              
     1  0  0.50    -25324.9161   2.0000                                                             
     2  0  0.50     -3728.5341   2.0000                                                             
     2  1  1.50     -3344.0404   6.0000                                                             
     3  0  0.50      -683.5581   2.0000                                                             
     3  1  1.50      -557.3225   6.0000                                                             
     3  2  2.50      -358.3853  10.0000                                                             
     4  0  0.50       -95.0341   2.0000                                                             
     4  1  1.50       -58.5511   6.0000                                                             
     4  2  2.50        -7.4440  10.0000                                                             
     5  0  0.50        -4.4045   1.0000                                                             
     5  1  0.50        -1.3606   0.0000                                                             
     4  3  2.50        -1.3606   0.0000                                                             
   Description                                                                                      
     l       E           TYP  RCUT    TYP  RCUT                                                     
     2     -7.4439781     23  2.400                                                                 
     2     -8.8045607     23  2.400                                                                 
     0     -4.4044681     23  2.400                                                                 
     0      1.9520038     23  2.400                                                                 
     1     -1.3605826     23  2.500                                                                 
     1     27.2116520     23  2.500                                                                 
     3     -4.0817478     23  2.400                                                                 
  local pseudopotential read in
  partial core-charges read in
  partial kinetic energy density read in
  atomic valenz-charges read in
  non local Contribution for L=           2  read in
    real space projection operators read in
  non local Contribution for L=           2  read in
    real space projection operators read in
  non local Contribution for L=           0  read in
    real space projection operators read in
  non local Contribution for L=           0  read in
    real space projection operators read in
  non local Contribution for L=           1  read in
    real space projection operators read in
  non local Contribution for L=           1  read in
    real space projection operators read in
    PAW grid and wavefunctions read in
 
   number of l-projection  operators is LMAX  =           6
   number of lm-projection operators is LMMAX =          18
 
 POTCAR:    PAW_PBE Os 17Jan2003                  
   VRHFIN =Os: 6s5d                                                                                 
   LEXCH  = PE                                                                                      
   EATOM  =   417.5999 eV,   30.6927 Ry                                                             
                                                                                                    
   TITEL  = PAW_PBE Os 17Jan2003                                                                    
   LULTRA =        F    use ultrasoft PP ?                                                          
   IUNSCR =        1    unscreen: 0-lin 1-nonlin 2-no                                               
   RPACOR =    2.250    partial core radius                                                         
   POMASS =  190.200; ZVAL   =    8.000    mass and valenz                                          
   RCORE  =    2.700    outmost cutoff radius                                                       
   RWIGS  =    2.670; RWIGS  =    1.413    wigner-seitz radius (au A)                               
   ENMAX  =  228.022; ENMIN  =  171.017 eV                                                          
   RCLOC  =    2.004    cutoff for local pot                                                        
   LCOR   =        T    correct aug charges                                                         
   LPAW   =        T    paw PP                                                                      
   EAUG   =  365.080                                                                                
   DEXC   =    0.000                                                                                
   RMAX   =    2.766    core radius for proj-oper                                                   
   RAUG   =    1.300    factor for augmentation sphere                                              
   RDEP   =    2.738    radius for radial grids                                                     
   RDEPT  =    2.220    core radius for aug-charge                                                  
                                                                                                    
   Atomic configuration                                                                             
   16 entries                                                                                       
     n  l   j            E        occ.                                                              
     1  0  0.50    -73844.2437   2.0000                                                             
     2  0  0.50    -12856.6893   2.0000                                                             
     2  1  1.50    -11191.7995   6.0000                                                             
     3  0  0.50     -2990.1422   2.0000                                                             
     3  1  1.50     -2501.5221   6.0000                                                             
     3  2  2.50     -1956.5818  10.0000                                                             
     4  0  0.50      -629.1606   2.0000                                                             
     4  1  1.50      -468.9548   6.0000                                                             
     4  2  2.50      -270.2868  10.0000                                                             
     4  3  3.50       -49.5699  14.0000                                                             
     5  0  0.50       -89.1521   2.0000                                                             
     5  1  1.50       -48.6063   6.0000                                                             
     5  2  2.50        -4.7055   7.0000                                                             
     6  0  0.50        -5.4288   1.0000                                                             
     6  1  1.50        -2.7212   0.0000                                                             
     5  3  2.50        -6.8029   0.0000                                                             
   Description                                                                                      
     l       E           TYP  RCUT    TYP  RCUT                                                     
     2     -4.7055230     23  2.500                                                                 
     2     -6.0661056     23  2.500                                                                 
     0     -5.4288441     23  2.500                                                                 
     0      3.7338294     23  2.500                                                                 
     1     -2.7211652     23  2.700                                                                 
     1     27.2116520     23  2.700                                                                 
  local pseudopotential read in
  partial core-charges read in
  partial kinetic energy density read in
  atomic valenz-charges read in
  non local Contribution for L=           2  read in
    real space projection operators read in
  non local Contribution for L=           2  read in
    real space projection operators read in
  non local Contribution for L=           0  read in
    real space projection operators read in
  non local Contribution for L=           0  read in
    real space projection operators read in
  non local Contribution for L=           1  read in
    real space projection operators read in
  non local Contribution for L=           1  read in
    real space projection operators read in
    PAW grid and wavefunctions read in
 
   number of l-projection  operators is LMAX  =           6
   number of lm-projection operators is LMMAX =          18
 
 POTCAR:    PAW_PBE C 08Apr2002                   
   VRHFIN =C: s2p2                                                                                  
   LEXCH  = PE                                                                                      
   EATOM  =   147.1560 eV,   10.8157 Ry                                                             
                                                                                                    
   TITEL  = PAW_PBE C 08Apr2002                                                                     
   LULTRA =        F    use ultrasoft PP ?                                                          
   IUNSCR =        1    unscreen: 0-lin 1-nonlin 2-no                                               
   RPACOR =    1.200    partial core radius                                                         
   POMASS =   12.011; ZVAL   =    4.000    mass and valenz                                          
   RCORE  =    1.500    outmost cutoff radius                                                       
   RWIGS  =    1.630; RWIGS  =    0.863    wigner-seitz radius (au A)                               
   ENMAX  =  400.000; ENMIN  =  300.000 eV                                                          
   ICORE  =        2    local potential                                                             
   LCOR   =        T    correct aug charges                                                         
   LPAW   =        T    paw PP                                                                      
   EAUG   =  644.873                                                                                
   DEXC   =    0.000                                                                                
   RMAX   =    1.529    core radius for proj-oper                                                   
   RAUG   =    1.300    factor for augmentation sphere                                              
   RDEP   =    1.501    radius for radial grids                                                     
   RDEPT  =    1.300    core radius for aug-charge                                                  
                                                                                                    
   Atomic configuration                                                                             
    4 entries                                                                                       
     n  l   j            E        occ.                                                              
     1  0  0.50      -273.3789   2.0000                                                             
     2  0  0.50       -13.7508   2.0000                                                             
     2  1  0.50        -5.2854   2.0000                                                             
     3  2  1.50        -5.4423   0.0000                                                             
   Description                                                                                      
     l       E           TYP  RCUT    TYP  RCUT                                                     
     0    -13.7508458     23  1.200                                                                 
     0     -8.2022199     23  1.200                                                                 
     1     -5.2854383     23  1.500                                                                 
     1     34.0145650     23  1.500                                                                 
     2     -5.4423304      7  1.500                                                                 
  local pseudopotential read in
  partial core-charges read in
  partial kinetic energy density read in
  atomic valenz-charges read in
  non local Contribution for L=           0  read in
    real space projection operators read in
  non local Contribution for L=           0  read in
    real space projection operators read in
  non local Contribution for L=           1  read in
    real space projection operators read in
  non local Contribution for L=           1  read in
    real space projection operators read in
    PAW grid and wavefunctions read in
 
   number of l-projection  operators is LMAX  =           4
   number of lm-projection operators is LMMAX =           8
 
 Optimization of the real space projectors (new method)

 maximal supplied QI-value         = 15.12
 optimisation between [QCUT,QGAM] = [ 11.34, 22.83] = [ 36.00,145.93] Ry 
 Optimized for a Real-space Cutoff    1.43 Angstroem

   l    n(q)    QCUT    max X(q) W(low)/X(q) W(high)/X(q)  e(spline) 
   2      9    11.338    53.897    0.16E-03    0.20E-03    0.28E-06
   2      9    11.338    52.416    0.16E-03    0.20E-03    0.29E-06
   0     10    11.338   122.045    0.31E-04    0.76E-04    0.15E-06
   0     10    11.338    73.629    0.30E-04    0.72E-04    0.15E-06
   1      9    11.338    15.255    0.20E-03    0.19E-04    0.17E-06
   1      9    11.338     9.562    0.16E-03    0.15E-04    0.14E-06
 Optimization of the real space projectors (new method)

 maximal supplied QI-value         = 13.98
 optimisation between [QCUT,QGAM] = [ 11.33, 22.79] = [ 35.93,145.49] Ry 
 Optimized for a Real-space Cutoff    1.56 Angstroem

   l    n(q)    QCUT    max X(q) W(low)/X(q) W(high)/X(q)  e(spline) 
   2     10    11.327   152.873    0.32E-03    0.72E-03    0.11E-05
   2     10    11.327   151.010    0.32E-03    0.72E-03    0.11E-05
   0     11    11.327    72.114    0.43E-04    0.61E-04    0.13E-06
   0     11    11.327    44.596    0.40E-04    0.57E-04    0.12E-06
   1     10    11.327    13.742    0.16E-03    0.10E-03    0.19E-06
   1     10    11.327     8.461    0.12E-03    0.78E-04    0.15E-06
 Optimization of the real space projectors (new method)

 maximal supplied QI-value         = 25.13
 optimisation between [QCUT,QGAM] = [ 11.31, 22.87] = [ 35.82,146.48] Ry 
 Optimized for a Real-space Cutoff    1.00 Angstroem

   l    n(q)    QCUT    max X(q) W(low)/X(q) W(high)/X(q)  e(spline) 
   0      7    11.310   115.676    0.43E-03    0.13E-02    0.19E-06
   0      7    11.310    87.132    0.43E-03    0.13E-02    0.18E-06
   1      6    11.310     4.429    0.42E-03    0.74E-03    0.11E-06
   1      6    11.310     2.733    0.34E-03    0.55E-03    0.92E-07
  PAW_PBE Ag 02Apr2005                  :
 energy of atom  1       EATOM=-1037.2675
 kinetic energy error for atom=    0.0052 (will be added to EATOM!!)
  PAW_PBE Os 17Jan2003                  :
 energy of atom  2       EATOM= -417.5999
 kinetic energy error for atom=    0.0029 (will be added to EATOM!!)
  PAW_PBE C 08Apr2002                   :
 energy of atom  3       EATOM= -147.1560
 kinetic energy error for atom=    0.0076 (will be added to EATOM!!)
 
 
 POSCAR: Ag-Os-C
  positions in direct lattice
  velocities in cartesian coordinates
 exchange correlation table for  LEXCH =        8
   RHO(1)=    0.500       N(1)  =     2000
   RHO(2)=  100.500       N(2)  =     4000

 VTST: version 3.2, (02/03/18)

 CHAIN: initializing optimizer
 
 OPT: Using VASP Conjugate-Gradient optimizer
 CHAIN: Read ICHAIN            0
 
 POSCAR: Ag-Os-C
  positions in direct lattice
  velocities in cartesian coordinates
 


--------------------------------------------------------------------------------------------------------


 ion  position               nearest neighbor table
   1  0.000  0.000  0.217-   2 2.93   8 2.93   7 2.93   6 2.93   4 2.93  12 2.93  16 2.93  10 2.93
                             3 2.93
   2  0.333  0.000  0.217-   1 2.93   8 2.93   9 2.93   3 2.93   4 2.93   5 2.93  10 2.93  17 2.93
                            11 2.93
   3  0.667  0.000  0.217-   9 2.93   2 2.93   5 2.93  11 2.93   7 2.93  18 2.93   1 2.93   6 2.93
                            12 2.93
   4  0.000  0.333  0.217-   5 2.93   6 2.93   2 2.93   1 2.93   7 2.93  13 2.93  15 2.93   9 2.93
                            10 2.93
   5  0.333  0.333  0.217-   4 2.93   3 2.93   7 2.93   2 2.93   8 2.93  14 2.93  13 2.93  11 2.93
                             6 2.93
   6  0.667  0.333  0.217-   4 2.93   9 2.93   1 2.93  15 2.93   8 2.93  12 2.93   3 2.93   5 2.93
                            14 2.93
   7  0.000  0.667  0.217-   8 2.93   1 2.93   5 2.93   3 2.93   4 2.93  16 2.93  18 2.93  13 2.93
                             9 2.93
   8  0.333  0.667  0.217-   7 2.93   1 2.93   2 2.93   9 2.93   5 2.93  16 2.93   6 2.93  17 2.93
                            14 2.93
   9  0.667  0.667  0.217-   3 2.93   2 2.93   8 2.93   6 2.93  17 2.93   4 2.93  15 2.93   7 2.93
                            18 2.93
  10  0.111  0.111  0.315-  20 2.89  12 2.93  16 2.93  15 2.93  17 2.93  13 2.93  11 2.93   2 2.93
                             1 2.93   4 2.93  19 2.93  26 2.93
  11  0.444  0.111  0.315-  21 2.89  20 2.89  27 2.92  14 2.93  17 2.93  18 2.93   3 2.93  12 2.93
                            13 2.93  10 2.93   5 2.93   2 2.93
  12  0.778  0.111  0.315-  21 2.89  10 2.93  16 2.93  18 2.93  15 2.93  11 2.93   1 2.93  14 2.93
                             6 2.93   3 2.93  25 2.93  19 2.93
  13  0.111  0.444  0.315-  20 2.89  23 2.89  22 2.92  15 2.93  14 2.93  18 2.93  10 2.93  11 2.93
                            16 2.93   4 2.93   5 2.93   7 2.93
  14  0.444  0.444  0.315-  23 2.89  21 2.89  24 2.92  13 2.93  11 2.93  16 2.93   5 2.93  12 2.93
                            17 2.93   8 2.93  15 2.93   6 2.93
  15  0.778  0.444  0.315-  24 2.92  22 2.92  19 2.93  13 2.93  10 2.93  12 2.93  17 2.93  18 2.93
                             4 2.93   6 2.93   9 2.93  14 2.93
  16  0.111  0.778  0.315-  23 2.89  18 2.93  12 2.93  10 2.93  14 2.93  17 2.93  13 2.93   7 2.93
                             8 2.93   1 2.93  26 2.93  25 2.93
  17  0.444  0.778  0.315-  27 2.92  24 2.92  26 2.93  11 2.93  10 2.93   9 2.93  18 2.93  15 2.93
                            16 2.93   2 2.93  14 2.93   8 2.93
  18  0.778  0.778  0.315-  22 2.92  27 2.92  25 2.93  16 2.93  12 2.93  13 2.93  11 2.93  17 2.93
                            15 2.93   7 2.93   3 2.93   9 2.93
  19  0.888  0.223  0.413-  28 2.90  24 2.93  22 2.93  15 2.93  20 2.93  21 2.93  10 2.93  12 2.93
                            26 2.94  25 2.94  32 2.95  31 2.95
  20  0.222  0.222  0.411-  36 2.76  13 2.89  11 2.89  10 2.89  31 2.93  29 2.93  21 2.93  23 2.93
                            19 2.93  26 2.93  27 2.94  22 2.94
  21  0.556  0.222  0.411-  36 2.76  11 2.89  14 2.89  12 2.89  30 2.93  32 2.93  20 2.93  23 2.93
                            25 2.93  19 2.93  27 2.94  24 2.94
  22  0.888  0.556  0.413-  35 2.90  18 2.92  15 2.92  24 2.92  27 2.92  13 2.92  25 2.93  19 2.93
                            33 2.94  31 2.94  23 2.94  20 2.94
  23  0.222  0.556  0.411-  36 2.76  14 2.89  13 2.89  16 2.89  34 2.93  33 2.93  21 2.93  20 2.93
                            26 2.93  25 2.93  22 2.94  24 2.94
  24  0.556  0.556  0.413-  35 2.90  15 2.92  17 2.92  27 2.92  22 2.92  14 2.92  19 2.93  26 2.93
                            32 2.94  34 2.94  23 2.94  21 2.94
  25  0.888  0.888  0.413-  28 2.90  22 2.93  27 2.93  18 2.93  23 2.93  21 2.93  16 2.93  12 2.93
                            26 2.94  19 2.94  33 2.95  30 2.95
  26  0.223  0.888  0.413-  28 2.90  27 2.93  24 2.93  17 2.93  23 2.93  20 2.93  16 2.93  10 2.93
                            25 2.94  19 2.94  34 2.95  29 2.95
  27  0.556  0.888  0.413-  35 2.90  17 2.92  18 2.92  24 2.92  22 2.92  11 2.92  26 2.93  25 2.93
                            29 2.94  30 2.94  20 2.94  21 2.94
  28  0.000  0.000  0.510-  26 2.90  25 2.90  19 2.90  29 2.96  34 2.96  33 2.96  32 2.96  31 2.96
                            30 2.96
  29  0.333  0.008  0.511-  31 2.86  30 2.87  36 2.88  20 2.93  27 2.94  26 2.95  28 2.96  35 2.97
                            34 3.06
  30  0.659  0.008  0.511-  32 2.86  29 2.87  36 2.88  21 2.93  27 2.94  25 2.95  28 2.96  35 2.97
                            33 3.06
  31  0.008  0.333  0.511-  29 2.86  33 2.87  36 2.88  20 2.93  22 2.94  19 2.95  28 2.96  35 2.97
                            32 3.06
  32  0.659  0.333  0.511-  30 2.86  34 2.87  36 2.88  21 2.93  24 2.94  19 2.95  28 2.96  35 2.97
                            31 3.06
  33  0.008  0.659  0.511-  34 2.86  31 2.87  36 2.88  23 2.93  22 2.94  25 2.95  28 2.96  35 2.97
                            30 3.06
  34  0.333  0.659  0.511-  33 2.86  32 2.87  36 2.88  23 2.93  24 2.94  26 2.95  28 2.96  35 2.97
                            29 3.06
  35  0.667  0.667  0.510-  24 2.90  27 2.90  22 2.90  30 2.97  32 2.97  29 2.97  34 2.97  31 2.97
                            33 2.97
  36  0.333  0.333  0.501-  37 1.73  21 2.76  20 2.76  23 2.76  31 2.88  30 2.88  33 2.88  29 2.88
                            34 2.88  32 2.88
  37  0.333  0.333  0.572-  36 1.73
 
  LATTYP: Found a hexagonal cell.
 ALAT       =     8.7913665772
 C/A-ratio  =     2.7711238095
  
  Lattice vectors:
  
 A1 = (  -4.3956832886,  -7.6135467898,   0.0000000000)
 A2 = (   8.7913665771,   0.0000000000,   0.0000000000)
 A3 = (   0.0000000000,   0.0000000000,  24.3619652401)


Analysis of symmetry for initial positions (statically):
=====================================================================
 Subroutine PRICEL returns:
 Original cell was already a primitive cell.
 

 Routine SETGRP: Setting up the symmetry group for a 
 hexagonal supercell.


 Subroutine GETGRP returns: Found  6 space group operations
 (whereof  6 operations were pure point group operations)
 out of a pool of 24 trial point group operations.


The static configuration has the point symmetry C_3v.


Analysis of symmetry for dynamics (positions and initial velocities):
=====================================================================
 Subroutine PRICEL returns:
 Original cell was already a primitive cell.
 

 Routine SETGRP: Setting up the symmetry group for a 
 hexagonal supercell.


 Subroutine GETGRP returns: Found  6 space group operations
 (whereof  6 operations were pure point group operations)
 out of a pool of 24 trial point group operations.


The dynamic configuration has the point symmetry C_3v.


Analysis of constrained symmetry for selective dynamics:
=====================================================================
 Subroutine PRICEL returns:
 Original cell was already a primitive cell.
 

 Routine SETGRP: Setting up the symmetry group for a 
 hexagonal supercell.


 Subroutine GETGRP returns: Found  6 space group operations
 (whereof  6 operations were pure point group operations)
 out of a pool of 24 trial point group operations.


The constrained configuration has the point symmetry C_3v.


 Subroutine INISYM returns: Found  6 space group operations
 (whereof  6 operations are pure point group operations),
 and found     1 'primitive' translations


----------------------------------------------------------------------------------------

                                     Primitive cell                                     

  volume of cell :    1630.6311

  direct lattice vectors                    reciprocal lattice vectors
     8.791366577  0.000000000  0.000000000     0.113747958 -0.065672414  0.000000000
     4.395683289  7.613546790  0.000000000     0.000000000  0.131344829  0.000000000
     0.000000000  0.000000000 24.361965240     0.000000000  0.000000000  0.041047592

  length of vectors
     8.791366577  8.791366577 24.361965240     0.131344829  0.131344829  0.041047592

  position of ions in fractional coordinates (direct lattice)
     0.000000000  0.000000000  0.216821102
     0.333333313  0.000000000  0.216821102
     0.666666627  0.000000000  0.216821102
     1.000000000  0.333333343  0.216821102
     0.333333313  0.333333343  0.216821102
     0.666666687  0.333333343  0.216821102
     1.000000000  0.666666687  0.216821102
     0.333333313  0.666666687  0.216821102
     0.666666627  0.666666687  0.216821102
     0.111111104  0.111111112  0.315035970
     0.444444448  0.111111112  0.315035970
     0.777777791  0.111111112  0.315035970
     0.111111097  0.444444448  0.315035970
     0.444444418  0.444444448  0.315035970
     0.777777791  0.444444448  0.315035970
     0.111111104  0.777777791  0.315035970
     0.444444448  0.777777791  0.315035970
     0.777777791  0.777777791  0.315035970
     0.888472583  0.223054850  0.413367381
     0.222244894  0.222244909  0.411379424
     0.555510152  0.222244909  0.411379424
     0.887954736  0.556022662  0.412724545
     0.222244909  0.555510212  0.411379424
     0.556022662  0.556022662  0.412724545
     0.888472583  0.888472583  0.413367381
     0.223054820  0.888472583  0.413367381
     0.556022602  0.887954736  0.412724545
     0.000000000  0.000000000  0.510109817
     0.333023651  0.007549730  0.510977959
     0.659426559  0.007549730  0.510977959
     0.007549730  0.333023681  0.510977959
     0.659426619  0.333023681  0.510977959
     0.007549730  0.659426619  0.510977959
     0.333023651  0.659426619  0.510977959
     0.666666627  0.666666687  0.509860969
     0.333333313  0.333333343  0.500908496
     0.333333313  0.333333343  0.572012950

  ion indices of the primitive-cell ions
   primitive index   ion index
                 1           1
                 2           2
                 3           3
                 4           4
                 5           5
                 6           6
                 7           7
                 8           8
                 9           9
                10          10
                11          11
                12          12
                13          13
                14          14
                15          15
                16          16
                17          17
                18          18
                19          19
                20          20
                21          21
                22          22
                23          23
                24          24
                25          25
                26          26
                27          27
                28          28
                29          29
                30          30
                31          31
                32          32
                33          33
                34          34
                35          35
                36          36
                37          37

----------------------------------------------------------------------------------------

 
 
 KPOINTS: Automatic mesh                          

Automatic generation of k-mesh.
 Grid dimensions read from file:
 generate k-points for:    8    8    1

 Generating k-lattice:

  Cartesian coordinates                     Fractional coordinates (reciprocal lattice)
     0.014218495 -0.008209052  0.000000000     0.125000000 -0.000000000  0.000000000
     0.000000000  0.016418104  0.000000000     0.000000000  0.125000000  0.000000000
     0.000000000  0.000000000  0.041047592     0.000000000  0.000000000  1.000000000

  Length of vectors
     0.016418104  0.016418104  0.041047592

  Shift w.r.t. Gamma in fractional coordinates (k-lattice)
     0.000000000  0.000000000  0.000000000

 TETIRR: Found     36 inequivalent tetrahedra from      384
 
 Subroutine IBZKPT returns following result:
 ===========================================
 
 Found     10 irreducible k-points:
 
 Following reciprocal coordinates:
            Coordinates               Weight
  0.000000  0.000000  0.000000      1.000000
  0.125000  0.000000  0.000000      6.000000
  0.250000  0.000000  0.000000      6.000000
  0.375000 -0.000000  0.000000      6.000000
  0.500000  0.000000  0.000000      3.000000
  0.250000  0.125000  0.000000      6.000000
  0.375000  0.125000  0.000000     12.000000
  0.500000  0.125000  0.000000     12.000000
  0.500000  0.250000  0.000000      6.000000
 -0.375000  0.250000  0.000000      6.000000
 
 Following cartesian coordinates:
            Coordinates               Weight
  0.000000  0.000000  0.000000      1.000000
  0.014218 -0.008209  0.000000      6.000000
  0.028437 -0.016418  0.000000      6.000000
  0.042655 -0.024627  0.000000      6.000000
  0.056874 -0.032836  0.000000      3.000000
  0.028437 -0.000000  0.000000      6.000000
  0.042655 -0.008209  0.000000     12.000000
  0.056874 -0.016418  0.000000     12.000000
  0.056874 -0.000000  0.000000      6.000000
 -0.042655  0.057463  0.000000      6.000000
 


--------------------------------------------------------------------------------------------------------




 Dimension of arrays:
   k-points           NKPTS =     10   k-points in BZ     NKDIM =     10   number of bands    NBANDS=    252
   number of dos      NEDOS =    301   number of ions     NIONS =     37
   non local maximal  LDIM  =      6   non local SUM 2l+1 LMDIM =     18
   total plane-waves  NPLWV = 322560
   max r-space proj   IRMAX =   3221   max aug-charges    IRDMAX=  11879
   dimension x,y,z NGX =    48 NGY =   48 NGZ =  140
   dimension x,y,z NGXF=    96 NGYF=   96 NGZF=  280
   support grid    NGXF=    96 NGYF=   96 NGZF=  280
   ions per type =              35   1   1
   NGX,Y,Z   is equivalent  to a cutoff of   9.08,  9.08,  9.55 a.u.
   NGXF,Y,Z  is equivalent  to a cutoff of  18.15, 18.15, 19.11 a.u.

 SYSTEM =  unknown system                          
 POSCAR =  Ag-Os-C                                 

 Startparameter for this run:
   NWRITE =      2    write-flag & timer
   PREC   = normal    normal or accurate (medium, high low for compatibility)
   ISTART =      0    job   : 0-new  1-cont  2-samecut
   ICHARG =     11    charge: 1-file 2-atom 10-const
   ISPIN  =      1    spin polarized calculation?
   LNONCOLLINEAR =      F non collinear calculations
   LSORBIT =      F    spin-orbit coupling
   INIWAV =      1    electr: 0-lowe 1-rand  2-diag
   LASPH  =      F    aspherical Exc in radial PAW
   METAGGA=      F    non-selfconsistent MetaGGA calc.

 Electronic Relaxation 1
   ENCUT  =  500.0 eV  36.75 Ry    6.06 a.u.  16.03 16.03 44.42*2*pi/ulx,y,z
   ENINI  =  500.0     initial cutoff
   ENAUG  =  644.9 eV  augmentation charge cutoff
   NELM   =    150;   NELMIN=  2; NELMDL= -5     # of ELM steps 
   EDIFF  = 0.1E-04   stopping-criterion for ELM
   LREAL  =      T    real-space projection
   NLSPLINE    = F    spline interpolate recip. space projectors
   LCOMPAT=      F    compatible to vasp.4.4
   GGA_COMPAT  = T    GGA compatible to vasp.4.4-vasp.4.6
   LMAXPAW     = -100 max onsite density
   LMAXMIX     =    2 max onsite mixed and CHGCAR
   VOSKOWN=      0    Vosko Wilk Nusair interpolation
   ROPT   =   -0.00050  -0.00050  -0.00050
 Ionic relaxation
   EDIFFG = -.1E-01   stopping-criterion for IOM
   NSW    =      0    number of steps for IOM
   NBLOCK =      1;   KBLOCK =      1    inner block; outer block 
   IBRION =     -1    ionic relax: 0-MD 1-quasi-New 2-CG
   NFREE  =      1    steps in history (QN), initial steepest desc. (CG)
   ISIF   =      2    stress and relaxation
   IWAVPR =     10    prediction:  0-non 1-charg 2-wave 3-comb
   ISYM   =      2    0-nonsym 1-usesym 2-fastsym
   LCORR  =      T    Harris-Foulkes like correction to forces

   POTIM  = 0.5000    time-step for ionic-motion
   TEIN   =    0.0    initial temperature
   TEBEG  =    0.0;   TEEND  =   0.0 temperature during run
   SMASS  =  -3.00    Nose mass-parameter (am)
   estimated Nose-frequenzy (Omega)   =  0.10E-29 period in steps = 0.13E+47 mass=  -0.177E-26a.u.
   SCALEE = 1.0000    scale energy and forces
   NPACO  =    256;   APACO  = 16.0  distance and # of slots for P.C.
   PSTRESS=    0.0 pullay stress

  Mass of Ions in am
   POMASS = 107.87190.20 12.01
  Ionic Valenz
   ZVAL   =  11.00  8.00  4.00
  Atomic Wigner-Seitz radii
   RWIGS  =  -1.00 -1.00 -1.00
  virtual crystal weights 
   VCA    =   1.00  1.00  1.00
   NELECT =     397.0000    total number of electrons
   NUPDOWN=      -1.0000    fix difference up-down

 DOS related values:
   EMIN   =  10.00;   EMAX   =-10.00  energy-range for DOS
   EFERMI =   0.00
   ISMEAR =    -5;   SIGMA  =   0.10  broadening in eV -4-tet -1-fermi 0-gaus

 Electronic relaxation 2 (details)
   IALGO  =     68    algorithm
   LDIAG  =      T    sub-space diagonalisation (order eigenvalues)
   LSUBROT=      F    optimize rotation matrix (better conditioning)
   TURBO    =      0    0=normal 1=particle mesh
   IRESTART =      0    0=no restart 2=restart with 2 vectors
   NREBOOT  =      0    no. of reboots
   NMIN     =      0    reboot dimension
   EREF     =   0.00    reference energy to select bands
   IMIX   =      4    mixing-type and parameters
     AMIX     =   0.40;   BMIX     =  1.00
     AMIX_MAG =   1.60;   BMIX_MAG =  1.00
     AMIN     =   0.10
     WC   =   100.;   INIMIX=   1;  MIXPRE=   1;  MAXMIX= -45

 Intra band minimization:
   WEIMIN = 0.0000     energy-eigenvalue tresh-hold
   EBREAK =  0.99E-08  absolut break condition
   DEPER  =   0.30     relativ break condition  

   TIME   =   0.40     timestep for ELM

  volume/ion in A,a.u.               =      44.07       297.41
  Fermi-wavevector in a.u.,A,eV,Ry     =   1.022241  1.931754 14.217757  1.044976
  Thomas-Fermi vector in A             =   2.155909
 
 Write flags
   LWAVE        =      F    write WAVECAR
   LDOWNSAMPLE  =      F    k-point downsampling of WAVECAR
   LCHARG       =      F    write CHGCAR
   LVTOT        =      F    write LOCPOT, total local potential
   LVHAR        =      F    write LOCPOT, Hartree potential only
   LELF         =      F    write electronic localiz. function (ELF)
   LORBIT       =     10    0 simple, 1 ext, 2 COOP (PROOUT), +10 PAW based schemes


 Dipole corrections
   LMONO  =      F    monopole corrections only (constant potential shift)
   LDIPOL =      F    correct potential (dipole corrections)
   IDIPOL =      0    1-x, 2-y, 3-z, 4-all directions 
   EPSILON=  1.0000000 bulk dielectric constant

 Exchange correlation treatment:
   GGA     =    --    GGA type
   LEXCH   =     8    internal setting for exchange type
   VOSKOWN=      0    Vosko Wilk Nusair interpolation
   LHFCALC =     F    Hartree Fock is set to
   LHFONE  =     F    Hartree Fock one center treatment
   AEXX    =    0.0000 exact exchange contribution

 Linear response parameters
   LEPSILON=     F    determine dielectric tensor
   LRPA    =     F    only Hartree local field effects (RPA)
   LNABLA  =     F    use nabla operator in PAW spheres
   LVEL    =     F    velocity operator in full k-point grid
   LINTERFAST=   F  fast interpolation
   KINTER  =     0    interpolate to denser k-point grid
   CSHIFT  =0.1000    complex shift for real part using Kramers Kronig
   OMEGAMAX=  -1.0    maximum frequency
   DEG_THRESHOLD= 0.2000000E-02 threshold for treating states as degnerate
   RTIME   =   -0.100 relaxation time in fs
  (WPLASMAI=    0.000 imaginary part of plasma frequency in eV, 0.658/RTIME)
   DFIELD  = 0.0000000 0.0000000 0.0000000 field for delta impulse in time
 
 Orbital magnetization related:
   ORBITALMAG=     F  switch on orbital magnetization
   LCHIMAG   =     F  perturbation theory with respect to B field
   DQ        =  0.001000  dq finite difference perturbation B field
   LLRAUG    =     F  two centre corrections for induced B field



--------------------------------------------------------------------------------------------------------


 Static calculation
 charge density and potential remain constant during run
 non-spin polarized calculation
 RMM-DIIS sequential band-by-band and
  variant of blocked Davidson during initial phase
 perform sub-space diagonalisation
    before iterative eigenvector-optimisation
 no mixing
 using additional bands           53
 real space projection scheme for non local part
 use partial core corrections
 calculate Harris-corrections to forces 
   (improved forces if not selfconsistent)
 use gradient corrections 
 WARNING: stress and forces are not correct
  (second derivative of E(xc) not defined)
 use of overlap-Matrix (Vanderbilt PP)
 Fermi weights with tetrahedron method with Bloechl corrections


--------------------------------------------------------------------------------------------------------


  energy-cutoff  :      500.00
  volume of cell :     1630.63
      direct lattice vectors                 reciprocal lattice vectors
     8.791366577  0.000000000  0.000000000     0.113747958 -0.065672414  0.000000000
     4.395683289  7.613546790  0.000000000     0.000000000  0.131344829  0.000000000
     0.000000000  0.000000000 24.361965240     0.000000000  0.000000000  0.041047592

  length of vectors
     8.791366577  8.791366577 24.361965240     0.131344829  0.131344829  0.041047592


 
 k-points in units of 2pi/SCALE and weight: Automatic mesh                          
   0.00000000  0.00000000  0.00000000       0.016
   0.01421849 -0.00820905  0.00000000       0.094
   0.02843699 -0.01641810  0.00000000       0.094
   0.04265548 -0.02462716  0.00000000       0.094
   0.05687398 -0.03283621  0.00000000       0.047
   0.02843699 -0.00000000  0.00000000       0.094
   0.04265548 -0.00820905  0.00000000       0.188
   0.05687398 -0.01641810  0.00000000       0.188
   0.05687398 -0.00000000  0.00000000       0.094
  -0.04265548  0.05746336  0.00000000       0.094
 
 k-points in reciprocal lattice and weights: Automatic mesh                          
   0.00000000  0.00000000  0.00000000       0.016
   0.12500000  0.00000000  0.00000000       0.094
   0.25000000  0.00000000  0.00000000       0.094
   0.37500000 -0.00000000  0.00000000       0.094
   0.50000000  0.00000000  0.00000000       0.047
   0.25000000  0.12500000  0.00000000       0.094
   0.37500000  0.12500000  0.00000000       0.188
   0.50000000  0.12500000  0.00000000       0.188
   0.50000000  0.25000000  0.00000000       0.094
  -0.37500000  0.25000000  0.00000000       0.094
 
 position of ions in fractional coordinates (direct lattice) 
   0.00000000  0.00000000  0.21682110
   0.33333331  0.00000000  0.21682110
   0.66666663  0.00000000  0.21682110
   0.00000000  0.33333334  0.21682110
   0.33333331  0.33333334  0.21682110
   0.66666669  0.33333334  0.21682110
   0.00000000  0.66666669  0.21682110
   0.33333331  0.66666669  0.21682110
   0.66666663  0.66666669  0.21682110
   0.11111110  0.11111111  0.31503597
   0.44444445  0.11111111  0.31503597
   0.77777779  0.11111111  0.31503597
   0.11111110  0.44444445  0.31503597
   0.44444442  0.44444445  0.31503597
   0.77777779  0.44444445  0.31503597
   0.11111110  0.77777779  0.31503597
   0.44444445  0.77777779  0.31503597
   0.77777779  0.77777779  0.31503597
   0.88847258  0.22305485  0.41336738
   0.22224489  0.22224491  0.41137942
   0.55551015  0.22224491  0.41137942
   0.88795474  0.55602266  0.41272455
   0.22224491  0.55551021  0.41137942
   0.55602266  0.55602266  0.41272455
   0.88847258  0.88847258  0.41336738
   0.22305482  0.88847258  0.41336738
   0.55602260  0.88795474  0.41272455
   0.00000000  0.00000000  0.51010982
   0.33302365  0.00754973  0.51097796
   0.65942656  0.00754973  0.51097796
   0.00754973  0.33302368  0.51097796
   0.65942662  0.33302368  0.51097796
   0.00754973  0.65942662  0.51097796
   0.33302365  0.65942662  0.51097796
   0.66666663  0.66666669  0.50986097
   0.33333331  0.33333334  0.50090850
   0.33333331  0.33333334  0.57201295
 
 position of ions in cartesian coordinates  (Angst):
   0.00000000  0.00000000  5.28218814
   2.93045535  0.00000000  5.28218814
   5.86091070  0.00000000  5.28218814
   1.46522781  2.53784900  5.28218814
   4.39568315  2.53784900  5.28218814
   7.32613904  2.53784900  5.28218814
   2.93045562  5.07569801  5.28218814
   5.86091096  5.07569801  5.28218814
   8.79136632  5.07569801  5.28218814
   1.46522770  0.84594965  7.67489535
   4.39568332  0.84594965  7.67489535
   7.32613893  0.84594965  7.67489535
   2.93045542  3.38379860  7.67489535
   5.86091083  3.38379860  7.67489535
   8.79136671  3.38379860  7.67489535
   4.39568328  5.92164760  7.67489535
   7.32613890  5.92164760  7.67489535
  10.25659451  5.92164760  7.67489535
   8.79136665  1.69823853 10.07044178
   2.93075457  1.69207201 10.02201122
   5.86061162  1.69207201 10.02201122
  10.25043511  4.23330455 10.05478103
   4.39568342  4.22940299 10.02201122
   7.33229857  4.23330455 10.05478103
  11.71633226  6.76442758 10.07044178
   5.86640077  6.76442758 10.07044178
   8.79136631  6.76048493 10.05478103
   0.00000000  0.00000000 12.42727764
   2.96091922  0.05748023 12.44842727
   5.83044683  0.05748023 12.44842727
   1.53023908  2.53549138 12.44842727
   7.26112776  2.53549138 12.44842727
   2.96500301  5.02057542 12.44842727
   5.82636356  5.02057542 12.44842727
   8.79136632  5.07569801 12.42121520
   4.39568315  2.53784900 12.20311537
   4.39568315  2.53784900 13.93535961
 


--------------------------------------------------------------------------------------------------------


 k-point   1 :   0.0000 0.0000 0.0000  plane waves:   41267
 k-point   2 :   0.1250 0.0000 0.0000  plane waves:   41346
 k-point   3 :   0.2500 0.0000 0.0000  plane waves:   41360
 k-point   4 :   0.3750-0.0000 0.0000  plane waves:   41412
 k-point   5 :   0.5000 0.0000 0.0000  plane waves:   41412
 k-point   6 :   0.2500 0.1250 0.0000  plane waves:   41336
 k-point   7 :   0.3750 0.1250 0.0000  plane waves:   41420
 k-point   8 :   0.5000 0.1250 0.0000  plane waves:   41406
 k-point   9 :   0.5000 0.2500 0.0000  plane waves:   41444
 k-point  10 :  -0.3750 0.2500 0.0000  plane waves:   41438

 maximum and minimum number of plane-waves per node :     41444    41267

 maximum number of plane-waves:     41444
 maximum index in each direction: 
   IXMAX=   16   IYMAX=   16   IZMAX=   44
   IXMIN=  -16   IYMIN=  -16   IZMIN=  -44


 serial   3D FFT for wavefunctions
 parallel 3D FFT for charge:
    minimum data exchange during FFTs selected (reduces bandwidth)


 total amount of memory used by VASP MPI-rank0   131585. kBytes
=======================================================================

   base      :      30000. kBytes
   nonlr-proj:      15664. kBytes
   fftplans  :       4808. kBytes
   grid      :      19857. kBytes
   one-center:        575. kBytes
   wavefun   :      60681. kBytes
 
     INWAV:  cpu time    0.0000: real time    0.0000
 initial charge density was supplied:
 number of electron     397.0000053 magnetization 
 keeping initial charge density in first step


--------------------------------------------------------------------------------------------------------


 Maximum index for non-local projection operator         3072
 Maximum index for augmentation-charges          710 (set IRDMAX)


--------------------------------------------------------------------------------------------------------


 First call to EWALD:  gamma=   0.151
 Maximum number of real-space cells 4x 4x 2
 Maximum number of reciprocal cells 2x 2x 5

    FEWALD:  cpu time    0.0013: real time    0.0013


--------------------------------------- Iteration      1(   1)  ---------------------------------------


    POTLOK:  cpu time    0.0503: real time    0.0508
    SETDIJ:  cpu time    0.0049: real time    0.0050
     EDDAV:  cpu time    7.8118: real time    7.8134
 BZINTS: Fermi energy:    8.998665;  397.000000 electrons
         Band energy: 0.100929E+04;  BLOECHL correction:   -0.010645
       DOS:  cpu time    0.0101: real time    0.0131
    --------------------------------------------
      LOOP:  cpu time    7.8770: real time    7.8823

 eigenvalue-minimisations  :  5040
 total energy-change (2. order) : 0.2402143E+04  (-0.1800039E+05)
 number of electron     397.0000053 magnetization 
 augmentation part      397.0000053 magnetization 

 Free energy of the ion-electron system (eV)
  ---------------------------------------------------
  alpha Z        PSCENC =       696.84886496
  Ewald energy   TEWEN  =    130630.57930508
  -Hartree energ DENC   =   -167979.86507547
  -exchange      EXHF   =         0.00000000
  -V(xc)+E(xc)   XCENC  =      -408.66653465
  PAW double counting   =     39211.47396483   -37626.44621686
  entropy T*S    EENTRO =         0.00000000
  eigenvalues    EBANDS =      1009.29232792
  atomic energy  EATOM  =     36868.92627090
  Solvation  Ediel_sol  =         0.00000000
  ---------------------------------------------------
  free energy    TOTEN  =      2402.14290671 eV

  energy without entropy =     2402.14290671  energy(sigma->0) =     2402.14290671


--------------------------------------------------------------------------------------------------------




--------------------------------------- Iteration      1(   2)  ---------------------------------------


     EDDAV:  cpu time    8.1426: real time    8.1428
 BZINTS: Fermi energy:    0.904237;  397.000000 electrons
         Band energy:-0.140819E+04;  BLOECHL correction:   -0.035954
       DOS:  cpu time    0.0098: real time    0.0098
    --------------------------------------------
      LOOP:  cpu time    8.1523: real time    8.1526

 eigenvalue-minimisations  :  5320
 total energy-change (2. order) :-0.2417487E+04  (-0.2295658E+04)
 number of electron     397.0000053 magnetization 
 augmentation part      397.0000053 magnetization 

 Free energy of the ion-electron system (eV)
  ---------------------------------------------------
  alpha Z        PSCENC =       696.84886496
  Ewald energy   TEWEN  =    130630.57930508
  -Hartree energ DENC   =   -167979.86507547
  -exchange      EXHF   =         0.00000000
  -V(xc)+E(xc)   XCENC  =      -408.66653465
  PAW double counting   =     39211.47396483   -37626.44621686
  entropy T*S    EENTRO =         0.00000000
  eigenvalues    EBANDS =     -1408.19436039
  atomic energy  EATOM  =     36868.92627090
  Solvation  Ediel_sol  =         0.00000000
  ---------------------------------------------------
  free energy    TOTEN  =       -15.34378160 eV

  energy without entropy =      -15.34378160  energy(sigma->0) =      -15.34378160


--------------------------------------------------------------------------------------------------------




--------------------------------------- Iteration      1(   3)  ---------------------------------------


     EDDAV:  cpu time    8.8152: real time    8.8154
 BZINTS: Fermi energy:    0.312590;  397.000000 electrons
         Band energy:-0.149655E+04;  BLOECHL correction:   -0.072262
       DOS:  cpu time    0.0101: real time    0.0101
    --------------------------------------------
      LOOP:  cpu time    8.8254: real time    8.8255

 eigenvalue-minimisations  :  5852
 total energy-change (2. order) :-0.8835285E+02  (-0.8606435E+02)
 number of electron     397.0000053 magnetization 
 augmentation part      397.0000053 magnetization 

 Free energy of the ion-electron system (eV)
  ---------------------------------------------------
  alpha Z        PSCENC =       696.84886496
  Ewald energy   TEWEN  =    130630.57930508
  -Hartree energ DENC   =   -167979.86507547
  -exchange      EXHF   =         0.00000000
  -V(xc)+E(xc)   XCENC  =      -408.66653465
  PAW double counting   =     39211.47396483   -37626.44621686
  entropy T*S    EENTRO =         0.00000000
  eigenvalues    EBANDS =     -1496.54721268
  atomic energy  EATOM  =     36868.92627090
  Solvation  Ediel_sol  =         0.00000000
  ---------------------------------------------------
  free energy    TOTEN  =      -103.69663389 eV

  energy without entropy =     -103.69663389  energy(sigma->0) =     -103.69663389


--------------------------------------------------------------------------------------------------------




--------------------------------------- Iteration      1(   4)  ---------------------------------------


     EDDAV:  cpu time    8.4593: real time    8.4594
 BZINTS: Fermi energy:    0.302060;  397.000000 electrons
         Band energy:-0.149795E+04;  BLOECHL correction:   -0.067604
       DOS:  cpu time    0.0097: real time    0.0097
    --------------------------------------------
      LOOP:  cpu time    8.4690: real time    8.4690

 eigenvalue-minimisations  :  5572
 total energy-change (2. order) :-0.1403151E+01  (-0.1404155E+01)
 number of electron     397.0000053 magnetization 
 augmentation part      397.0000053 magnetization 

 Free energy of the ion-electron system (eV)
  ---------------------------------------------------
  alpha Z        PSCENC =       696.84886496
  Ewald energy   TEWEN  =    130630.57930508
  -Hartree energ DENC   =   -167979.86507547
  -exchange      EXHF   =         0.00000000
  -V(xc)+E(xc)   XCENC  =      -408.66653465
  PAW double counting   =     39211.47396483   -37626.44621686
  entropy T*S    EENTRO =         0.00000000
  eigenvalues    EBANDS =     -1497.95036409
  atomic energy  EATOM  =     36868.92627090
  Solvation  Ediel_sol  =         0.00000000
  ---------------------------------------------------
  free energy    TOTEN  =      -105.09978530 eV

  energy without entropy =     -105.09978530  energy(sigma->0) =     -105.09978530


--------------------------------------------------------------------------------------------------------




--------------------------------------- Iteration      1(   5)  ---------------------------------------


     EDDAV:  cpu time    9.1432: real time    9.1434
 BZINTS: Fermi energy:    0.301911;  397.000000 electrons
         Band energy:-0.149799E+04;  BLOECHL correction:   -0.067621
       DOS:  cpu time    0.0097: real time    0.0097
    --------------------------------------------
      LOOP:  cpu time    9.1529: real time    9.1531

 eigenvalue-minimisations  :  6104
 total energy-change (2. order) :-0.3729976E-01  (-0.3728893E-01)
 number of electron     397.0000053 magnetization 
 augmentation part      397.0000053 magnetization 

 Free energy of the ion-electron system (eV)
  ---------------------------------------------------
  alpha Z        PSCENC =       696.84886496
  Ewald energy   TEWEN  =    130630.57930508
  -Hartree energ DENC   =   -167979.86507547
  -exchange      EXHF   =         0.00000000
  -V(xc)+E(xc)   XCENC  =      -408.66653465
  PAW double counting   =     39211.47396483   -37626.44621686
  entropy T*S    EENTRO =         0.00000000
  eigenvalues    EBANDS =     -1497.98766385
  atomic energy  EATOM  =     36868.92627090
  Solvation  Ediel_sol  =         0.00000000
  ---------------------------------------------------
  free energy    TOTEN  =      -105.13708506 eV

  energy without entropy =     -105.13708506  energy(sigma->0) =     -105.13708506


--------------------------------------------------------------------------------------------------------




--------------------------------------- Iteration      1(   6)  ---------------------------------------


    EDDIAG:  cpu time    1.5342: real time    1.5346
  RMM-DIIS:  cpu time    4.4301: real time    4.4301
    ORTHCH:  cpu time    0.2790: real time    0.2790
 BZINTS: Fermi energy:    0.301910;  397.000000 electrons
         Band energy:-0.149799E+04;  BLOECHL correction:   -0.067621
       DOS:  cpu time    0.0090: real time    0.0090
    --------------------------------------------
      LOOP:  cpu time    6.2523: real time    6.2527

 eigenvalue-minimisations  :  5104
 total energy-change (2. order) :-0.8584140E-03  (-0.8584530E-03)
 number of electron     397.0000053 magnetization 
 augmentation part      397.0000053 magnetization 

 Free energy of the ion-electron system (eV)
  ---------------------------------------------------
  alpha Z        PSCENC =       696.84886496
  Ewald energy   TEWEN  =    130630.57930508
  -Hartree energ DENC   =   -167979.86507547
  -exchange      EXHF   =         0.00000000
  -V(xc)+E(xc)   XCENC  =      -408.66653465
  PAW double counting   =     39211.47396483   -37626.44621686
  entropy T*S    EENTRO =         0.00000000
  eigenvalues    EBANDS =     -1497.98852226
  atomic energy  EATOM  =     36868.92627090
  Solvation  Ediel_sol  =         0.00000000
  ---------------------------------------------------
  free energy    TOTEN  =      -105.13794347 eV

  energy without entropy =     -105.13794347  energy(sigma->0) =     -105.13794347


--------------------------------------------------------------------------------------------------------




--------------------------------------- Iteration      1(   7)  ---------------------------------------


    EDDIAG:  cpu time    1.5344: real time    1.5347
  RMM-DIIS:  cpu time    6.2214: real time    6.2214
    ORTHCH:  cpu time    0.2787: real time    0.2787
 BZINTS: Fermi energy:    0.301909;  397.000000 electrons
         Band energy:-0.149799E+04;  BLOECHL correction:   -0.067621
       DOS:  cpu time    0.0095: real time    0.0095
    --------------------------------------------
      LOOP:  cpu time    8.0440: real time    8.0443

 eigenvalue-minimisations  :  7253
 total energy-change (2. order) :-0.2917336E-03  (-0.2903580E-03)
 number of electron     397.0000053 magnetization 
 augmentation part      397.0000053 magnetization 

 Free energy of the ion-electron system (eV)
  ---------------------------------------------------
  alpha Z        PSCENC =       696.84886496
  Ewald energy   TEWEN  =    130630.57930508
  -Hartree energ DENC   =   -167979.86507547
  -exchange      EXHF   =         0.00000000
  -V(xc)+E(xc)   XCENC  =      -408.66653465
  PAW double counting   =     39211.47396483   -37626.44621686
  entropy T*S    EENTRO =         0.00000000
  eigenvalues    EBANDS =     -1497.98881400
  atomic energy  EATOM  =     36868.92627090
  Solvation  Ediel_sol  =         0.00000000
  ---------------------------------------------------
  free energy    TOTEN  =      -105.13823520 eV

  energy without entropy =     -105.13823520  energy(sigma->0) =     -105.13823520


--------------------------------------------------------------------------------------------------------




--------------------------------------- Iteration      1(   8)  ---------------------------------------


    EDDIAG:  cpu time    1.5360: real time    1.5361
  RMM-DIIS:  cpu time    4.2579: real time    4.2579
    ORTHCH:  cpu time    0.2791: real time    0.2791
 BZINTS: Fermi energy:    0.301909;  397.000000 electrons
         Band energy:-0.149799E+04;  BLOECHL correction:   -0.067621
       DOS:  cpu time    0.0096: real time    0.0096
    --------------------------------------------
      LOOP:  cpu time    6.0826: real time    6.0827

 eigenvalue-minimisations  :  4507
 total energy-change (2. order) :-0.2152595E-04  (-0.2063587E-04)
 number of electron     397.0000053 magnetization 
 augmentation part      397.0000053 magnetization 

 Free energy of the ion-electron system (eV)
  ---------------------------------------------------
  alpha Z        PSCENC =       696.84886496
  Ewald energy   TEWEN  =    130630.57930508
  -Hartree energ DENC   =   -167979.86507547
  -exchange      EXHF   =         0.00000000
  -V(xc)+E(xc)   XCENC  =      -408.66653465
  PAW double counting   =     39211.47396483   -37626.44621686
  entropy T*S    EENTRO =         0.00000000
  eigenvalues    EBANDS =     -1497.98883552
  atomic energy  EATOM  =     36868.92627090
  Solvation  Ediel_sol  =         0.00000000
  ---------------------------------------------------
  free energy    TOTEN  =      -105.13825673 eV

  energy without entropy =     -105.13825673  energy(sigma->0) =     -105.13825673


--------------------------------------------------------------------------------------------------------




--------------------------------------- Iteration      1(   9)  ---------------------------------------


    EDDIAG:  cpu time    1.5349: real time    1.5351
  RMM-DIIS:  cpu time    3.7466: real time    3.7466
    ORTHCH:  cpu time    0.2792: real time    0.2792
 BZINTS: Fermi energy:    0.301909;  397.000000 electrons
         Band energy:-0.149799E+04;  BLOECHL correction:   -0.067621
       DOS:  cpu time    0.0094: real time    0.0094
    --------------------------------------------
      LOOP:  cpu time    5.5701: real time    5.5703

 eigenvalue-minimisations  :  3468
 total energy-change (2. order) :-0.2705870E-05  (-0.2666430E-05)
 number of electron     397.0000053 magnetization 
 augmentation part      397.0000053 magnetization 

 Free energy of the ion-electron system (eV)
  ---------------------------------------------------
  alpha Z        PSCENC =       696.84886496
  Ewald energy   TEWEN  =    130630.57930508
  -Hartree energ DENC   =   -167979.86507547
  -exchange      EXHF   =         0.00000000
  -V(xc)+E(xc)   XCENC  =      -408.66653465
  PAW double counting   =     39211.47396483   -37626.44621686
  entropy T*S    EENTRO =         0.00000000
  eigenvalues    EBANDS =     -1497.98883823
  atomic energy  EATOM  =     36868.92627090
  Solvation  Ediel_sol  =         0.00000000
  ---------------------------------------------------
  free energy    TOTEN  =      -105.13825944 eV

  energy without entropy =     -105.13825944  energy(sigma->0) =     -105.13825944


--------------------------------------------------------------------------------------------------------




 average (electrostatic) potential at core
  the test charge radii are     1.1249  1.1957  0.6991
  (the norm of the test charge is              1.0000)
       1 -78.5858       2 -78.5761       3 -78.5760       4 -78.5761       5 -78.5689
       6 -78.5758       7 -78.5760       8 -78.5758       9 -78.5854      10 -78.8131
      11 -78.8185      12 -78.8128      13 -78.8185      14 -78.8181      15 -78.8011
      16 -78.8128      17 -78.8011      18 -78.8013      19 -78.7764      20 -78.9314
      21 -78.9310      22 -78.7971      23 -78.9310      24 -78.7968      25 -78.7764
      26 -78.7764      27 -78.7971      28 -78.5326      29 -78.4945      30 -78.4945
      31 -78.4945      32 -78.4943      33 -78.4945      34 -78.4943      35 -78.5032
      36 -51.3610      37 -54.7757
 
 
 
 E-fermi :   0.3019     XC(G=0):  -5.4433     alpha+bet : -5.1197

 Fermi energy:         0.3019091844

 k-point     1 :       0.0000    0.0000    0.0000
  band No.  band energies     occupation 
      1      -9.4794      2.00000
      2      -6.8134      2.00000
      3      -5.9471      2.00000
      4      -5.6912      2.00000
      5      -5.5931      2.00000
      6      -5.5680      2.00000
      7      -5.5680      2.00000
      8      -5.5559      2.00000
      9      -5.5442      2.00000
     10      -5.5442      2.00000
     11      -5.5347      2.00000
     12      -5.4992      2.00000
     13      -5.4975      2.00000
     14      -5.4975      2.00000
     15      -5.4896      2.00000
     16      -5.4858      2.00000
     17      -5.4858      2.00000
     18      -5.3644      2.00000
     19      -5.3644      2.00000
     20      -5.3548      2.00000
     21      -5.3263      2.00000
     22      -5.3123      2.00000
     23      -5.3122      2.00000
     24      -5.1564      2.00000
     25      -5.1287      2.00000
     26      -5.1216      2.00000
     27      -5.1216      2.00000
     28      -5.1181      2.00000
     29      -5.1181      2.00000
     30      -5.1142      2.00000
     31      -5.1068      2.00000
     32      -5.0908      2.00000
     33      -5.0908      2.00000
     34      -5.0727      2.00000
     35      -5.0727      2.00000
     36      -5.0014      2.00000
     37      -4.9557      2.00000
     38      -4.9466      2.00000
     39      -4.9466      2.00000
     40      -4.8873      2.00000
     41      -4.8873      2.00000
     42      -4.7678      2.00000
     43      -4.7678      2.00000
     44      -4.7465      2.00000
     45      -4.7455      2.00000
     46      -4.7454      2.00000
     47      -4.7225      2.00000
     48      -4.7225      2.00000
     49      -4.7078      2.00000
     50      -4.7074      2.00000
     51      -4.7073      2.00000
     52      -4.6086      2.00000
     53      -4.5836      2.00000
     54      -4.5752      2.00000
     55      -4.5490      2.00000
     56      -4.3541      2.00000
     57      -4.3540      2.00000
     58      -4.3489      2.00000
     59      -4.3489      2.00000
     60      -4.3488      2.00000
     61      -4.3423      2.00000
     62      -4.3336      2.00000
     63      -4.3228      2.00000
     64      -4.3228      2.00000
     65      -4.2958      2.00000
     66      -4.2958      2.00000
     67      -4.2050      2.00000
     68      -4.2050      2.00000
     69      -4.1744      2.00000
     70      -4.1679      2.00000
     71      -4.1679      2.00000
     72      -4.1635      2.00000
     73      -4.1567      2.00000
     74      -4.1567      2.00000
     75      -4.1426      2.00000
     76      -4.1426      2.00000
     77      -4.1399      2.00000
     78      -4.1287      2.00000
     79      -4.1287      2.00000
     80      -4.1001      2.00000
     81      -4.0918      2.00000
     82      -4.0918      2.00000
     83      -4.0752      2.00000
     84      -4.0294      2.00000
     85      -4.0294      2.00000
     86      -3.9912      2.00000
     87      -3.9911      2.00000
     88      -3.9543      2.00000
     89      -3.9426      2.00000
     90      -3.9426      2.00000
     91      -3.9146      2.00000
     92      -3.8998      2.00000
     93      -3.8997      2.00000
     94      -3.8820      2.00000
     95      -3.8820      2.00000
     96      -3.8760      2.00000
     97      -3.8760      2.00000
     98      -3.8528      2.00000
     99      -3.8528      2.00000
    100      -3.6363      2.00000
    101      -3.6363      2.00000
    102      -3.6330      2.00000
    103      -3.6263      2.00000
    104      -3.6263      2.00000
    105      -3.6128      2.00000
    106      -3.6128      2.00000
    107      -3.5959      2.00000
    108      -3.5675      2.00000
    109      -3.5393      2.00000
    110      -3.5393      2.00000
    111      -3.5200      2.00000
    112      -3.5132      2.00000
    113      -3.5131      2.00000
    114      -3.5106      2.00000
    115      -3.4608      2.00000
    116      -3.3747      2.00000
    117      -3.3747      2.00000
    118      -3.3475      2.00000
    119      -3.3475      2.00000
    120      -3.3120      2.00000
    121      -3.3120      2.00000
    122      -3.2897      2.00000
    123      -3.2896      2.00000
    124      -3.2732      2.00000
    125      -3.2581      2.00000
    126      -3.2581      2.00000
    127      -3.2506      2.00000
    128      -3.2412      2.00000
    129      -3.2404      2.00000
    130      -3.2404      2.00000
    131      -3.2319      2.00000
    132      -3.2318      2.00000
    133      -3.2192      2.00000
    134      -3.1725      2.00000
    135      -3.1725      2.00000
    136      -3.0523      2.00000
    137      -3.0479      2.00000
    138      -3.0478      2.00000
    139      -3.0468      2.00000
    140      -3.0314      2.00000
    141      -3.0314      2.00000
    142      -3.0212      2.00000
    143      -3.0211      2.00000
    144      -3.0105      2.00000
    145      -3.0033      2.00000
    146      -3.0032      2.00000
    147      -3.0025      2.00000
    148      -2.9481      2.00000
    149      -2.9322      2.00000
    150      -2.9277      2.00000
    151      -2.9273      2.00000
    152      -2.9272      2.00000
    153      -2.9161      2.00000
    154      -2.9161      2.00000
    155      -2.9100      2.00000
    156      -2.8671      2.00000
    157      -2.8670      2.00000
    158      -2.8613      2.00000
    159      -2.8613      2.00000
    160      -2.8433      2.00000
    161      -2.8353      2.00000
    162      -2.8325      2.00000
    163      -2.8296      2.00000
    164      -2.8296      2.00000
    165      -2.8076      2.00000
    166      -2.7942      2.00000
    167      -2.7942      2.00000
    168      -2.7771      2.00000
    169      -2.7771      2.00000
    170      -2.7573      2.00000
    171      -2.7431      2.00000
    172      -2.7431      2.00000
    173      -2.7406      2.00000
    174      -2.6712      2.00000
    175      -2.6712      2.00000
    176      -2.6408      2.00000
    177      -2.6408      2.00000
    178      -2.6388      2.00000
    179      -2.6059      2.00000
    180      -2.5953      2.00000
    181      -2.5911      2.00000
    182      -2.5911      2.00000
    183      -2.5337      2.00000
    184      -2.5337      2.00000
    185      -2.5166      2.00000
    186      -2.1977      2.00000
    187      -2.1977      2.00000
    188      -1.9306      2.00000
    189      -1.7975      2.00000
    190      -1.7974      2.00000
    191      -1.7483      2.00000
    192      -1.7376      2.00000
    193      -1.6998      2.00000
    194      -1.6998      2.00000
    195      -0.4284      2.00000
    196      -0.3364      2.00000
    197      -0.3363      2.00000
    198      -0.1293      2.00000
    199      -0.0218      2.00000
    200       0.0678      2.00000
    201       0.0678      2.88306
    202       0.1060      1.89431
    203       0.1060      1.08847
    204       0.8849      0.00000
    205       1.9195      0.00000
    206       2.1890      0.00000
    207       2.2314      0.00000
    208       2.2314      0.00000
    209       2.4062      0.00000
    210       2.4062      0.00000
    211       2.8109      0.00000
    212       2.8109      0.00000
    213       3.5567      0.00000
    214       3.5770      0.00000
    215       3.7895      0.00000
    216       3.7896      0.00000
    217       3.9581      0.00000
    218       3.9581      0.00000
    219       4.2305      0.00000
    220       4.5539      0.00000
    221       4.5667      0.00000
    222       4.5933      0.00000
    223       4.5933      0.00000
    224       4.6110      0.00000
    225       4.6110      0.00000
    226       4.7306      0.00000
    227       4.7306      0.00000
    228       4.8436      0.00000
    229       4.8532      0.00000
    230       4.9331      0.00000
    231       5.1168      0.00000
    232       5.1168      0.00000
    233       5.6094      0.00000
    234       5.8091      0.00000
    235       5.9749      0.00000
    236       6.2041      0.00000
    237       6.2042      0.00000
    238       6.3447      0.00000
    239       6.4009      0.00000
    240       6.4009      0.00000
    241       6.5445      0.00000
    242       6.5445      0.00000
    243       6.5631      0.00000
    244       6.7113      0.00000
    245       6.7114      0.00000
    246       6.7145      0.00000
    247       6.8196      0.00000
    248       6.8574      0.00000
    249       6.8640      0.00000
    250       6.8649      0.00000
    251       6.9562      0.00000
    252       6.9601      0.00000

 k-point     2 :       0.1250    0.0000    0.0000
  band No.  band energies     occupation 
      1      -9.4788      2.00000
      2      -6.7683      2.00000
      3      -5.9075      2.00000
      4      -5.6631      2.00000
      5      -5.6183      2.00000
      6      -5.5895      2.00000
      7      -5.5658      2.00000
      8      -5.5586      2.00000
      9      -5.5501      2.00000
     10      -5.5310      2.00000
     11      -5.5287      2.00000
     12      -5.5041      2.00000
     13      -5.4910      2.00000
     14      -5.4786      2.00000
     15      -5.4447      2.00000
     16      -5.4311      2.00000
     17      -5.4278      2.00000
     18      -5.4129      2.00000
     19      -5.3907      2.00000
     20      -5.3846      2.00000
     21      -5.2839      2.00000
     22      -5.2715      2.00000
     23      -5.2270      2.00000
     24      -5.2071      2.00000
     25      -5.2016      2.00000
     26      -5.1924      2.00000
     27      -5.1459      2.00000
     28      -5.1351      2.00000
     29      -5.1055      2.00000
     30      -5.0985      2.00000
     31      -5.0722      2.00000
     32      -5.0550      2.00000
     33      -5.0379      2.00000
     34      -5.0245      2.00000
     35      -4.9984      2.00000
     36      -4.9937      2.00000
     37      -4.9641      2.00000
     38      -4.9406      2.00000
     39      -4.9032      2.00000
     40      -4.8541      2.00000
     41      -4.8513      2.00000
     42      -4.8222      2.00000
     43      -4.8144      2.00000
     44      -4.7997      2.00000
     45      -4.7838      2.00000
     46      -4.7746      2.00000
     47      -4.7611      2.00000
     48      -4.7485      2.00000
     49      -4.6894      2.00000
     50      -4.6884      2.00000
     51      -4.6498      2.00000
     52      -4.5976      2.00000
     53      -4.5650      2.00000
     54      -4.5448      2.00000
     55      -4.5443      2.00000
     56      -4.3839      2.00000
     57      -4.3774      2.00000
     58      -4.3754      2.00000
     59      -4.3645      2.00000
     60      -4.3460      2.00000
     61      -4.3405      2.00000
     62      -4.3361      2.00000
     63      -4.3297      2.00000
     64      -4.3140      2.00000
     65      -4.3122      2.00000
     66      -4.2801      2.00000
     67      -4.2455      2.00000
     68      -4.2209      2.00000
     69      -4.2195      2.00000
     70      -4.1962      2.00000
     71      -4.1954      2.00000
     72      -4.1665      2.00000
     73      -4.1621      2.00000
     74      -4.1529      2.00000
     75      -4.1505      2.00000
     76      -4.1410      2.00000
     77      -4.1290      2.00000
     78      -4.1187      2.00000
     79      -4.1147      2.00000
     80      -4.1098      2.00000
     81      -4.0902      2.00000
     82      -4.0802      2.00000
     83      -4.0730      2.00000
     84      -4.0635      2.00000
     85      -4.0471      2.00000
     86      -4.0459      2.00000
     87      -4.0361      2.00000
     88      -4.0090      2.00000
     89      -3.9781      2.00000
     90      -3.9709      2.00000
     91      -3.9314      2.00000
     92      -3.9310      2.00000
     93      -3.8977      2.00000
     94      -3.8948      2.00000
     95      -3.8512      2.00000
     96      -3.8233      2.00000
     97      -3.7790      2.00000
     98      -3.7498      2.00000
     99      -3.7487      2.00000
    100      -3.6936      2.00000
    101      -3.6874      2.00000
    102      -3.6707      2.00000
    103      -3.6609      2.00000
    104      -3.6575      2.00000
    105      -3.6402      2.00000
    106      -3.6220      2.00000
    107      -3.6134      2.00000
    108      -3.5907      2.00000
    109      -3.5617      2.00000
    110      -3.5597      2.00000
    111      -3.5335      2.00000
    112      -3.5293      2.00000
    113      -3.4775      2.00000
    114      -3.4752      2.00000
    115      -3.4464      2.00000
    116      -3.4252      2.00000
    117      -3.4186      2.00000
    118      -3.4034      2.00000
    119      -3.3977      2.00000
    120      -3.3764      2.00000
    121      -3.3689      2.00000
    122      -3.3290      2.00000
    123      -3.3285      2.00000
    124      -3.3171      2.00000
    125      -3.3056      2.00000
    126      -3.3026      2.00000
    127      -3.2773      2.00000
    128      -3.2637      2.00000
    129      -3.2481      2.00000
    130      -3.2450      2.00000
    131      -3.2259      2.00000
    132      -3.2199      2.00000
    133      -3.2063      2.00000
    134      -3.1981      2.00000
    135      -3.1766      2.00000
    136      -3.1604      2.00000
    137      -3.1507      2.00000
    138      -3.1292      2.00000
    139      -3.1247      2.00000
    140      -3.0907      2.00000
    141      -3.0816      2.00000
    142      -3.0619      2.00000
    143      -3.0277      2.00000
    144      -3.0125      2.00000
    145      -3.0124      2.00000
    146      -2.9952      2.00000
    147      -2.9826      2.00000
    148      -2.9759      2.00000
    149      -2.9673      2.00000
    150      -2.9617      2.00000
    151      -2.9446      2.00000
    152      -2.9432      2.00000
    153      -2.9320      2.00000
    154      -2.9106      2.00000
    155      -2.9104      2.00000
    156      -2.8999      2.00000
    157      -2.8962      2.00000
    158      -2.8913      2.00000
    159      -2.8758      2.00000
    160      -2.8708      2.00000
    161      -2.8517      2.00000
    162      -2.8457      2.00000
    163      -2.8397      2.00000
    164      -2.8290      2.00000
    165      -2.8118      2.00000
    166      -2.7924      2.00000
[...]
  0.000   0.000   0.000   0.000   0.000   0.000   0.000   0.000   0.000   0.000   0.000   0.000   0.000   0.000   0.000   0.000
  0.000   0.000   0.000   0.000   0.000   0.000   0.000   0.000   0.000   0.000   0.000   0.000   0.000   0.000   0.000   0.000
  0.000   0.000   0.000   0.000   0.000   0.000   0.000   0.000   0.000   0.000   0.000   0.000   0.000   0.000   0.000   0.000
  0.000   0.000   0.000   0.000   0.000   0.000   0.000   0.000   0.000   0.000   0.000   0.000   0.000   0.000   0.000   0.000
  0.000   0.000   0.000   0.000   0.000   0.000   0.000   0.000   0.000   0.000   0.000   0.000   0.000   0.000   0.000   0.000
  0.000   0.000   0.000   0.000   0.000   0.000   0.000   0.000   0.000   0.000   1.000   0.000   0.000   0.000   0.000   0.000
  0.000   0.000   0.000   0.000   0.000   0.000   0.000   0.000   0.000   0.000   0.000   0.000   0.000   0.000   0.000   0.000
  0.000   0.000   0.000   0.000   0.000   0.000   0.000   0.000   0.000   0.000   0.000   0.000   0.000   0.000   0.000   0.000
  0.000   0.000   0.000   0.000   0.000   0.000   0.000   0.000   0.000   0.000   0.000   0.000   0.000   0.000   0.000   0.000
  0.000   0.000   0.000   0.000   0.000   0.000   0.000   0.000   0.000   0.000   0.000   0.000   0.000   0.000   0.000   0.000
  0.000   0.000   0.000   0.000   0.000   0.000   0.000   0.000   0.000   0.000   0.000   0.000   0.000   0.000   0.000   0.000
  0.000   0.000   0.000   0.000   0.000   0.000   0.000   0.000   0.000   0.000   0.000   0.000   0.000   0.000   0.000   0.000
  0.000   0.000   0.000   0.000   0.000   0.000   0.000   0.000   0.000   0.000   0.000   0.000   0.000   0.000   0.000   0.000


------------------------ aborting loop because EDIFF is reached ----------------------------------------





 total charge

# of ion       s       p       d       tot
------------------------------------------
    1        0.416   0.203   9.177   9.796
    2        0.416   0.203   9.177   9.797
    3        0.416   0.203   9.177   9.797
    4        0.416   0.203   9.177   9.797
    5        0.421   0.201   9.178   9.800
    6        0.416   0.203   9.177   9.797
    7        0.416   0.203   9.177   9.797
    8        0.416   0.203   9.177   9.797
    9        0.412   0.205   9.176   9.793
   10        0.406   0.269   9.166   9.840
   11        0.404   0.274   9.165   9.842
   12        0.406   0.269   9.166   9.840
   13        0.404   0.274   9.165   9.842
   14        0.404   0.274   9.165   9.842
   15        0.403   0.270   9.165   9.837
   16        0.406   0.269   9.166   9.840
   17        0.403   0.270   9.165   9.837
   18        0.403   0.270   9.165   9.837
   19        0.405   0.263   9.168   9.836
   20        0.425   0.299   9.153   9.878
   21        0.425   0.299   9.153   9.878
   22        0.394   0.276   9.166   9.836
   23        0.425   0.299   9.153   9.878
   24        0.394   0.276   9.166   9.836
   25        0.405   0.263   9.168   9.836
   26        0.405   0.263   9.168   9.836
   27        0.394   0.276   9.166   9.836
   28        0.417   0.193   9.182   9.792
   29        0.407   0.218   9.176   9.801
   30        0.407   0.218   9.176   9.801
   31        0.407   0.218   9.176   9.801
   32        0.407   0.218   9.176   9.801
   33        0.407   0.218   9.176   9.801
   34        0.407   0.218   9.176   9.801
   35        0.412   0.195   9.183   9.789
   36        0.660   0.516   6.273   7.449
   37        1.006   1.251   0.000   2.257
--------------------------------------------------
tot         15.991  10.244 327.233 353.469
 
    CHARGE:  cpu time    0.3896: real time    0.3897
    FORLOC:  cpu time    0.0111: real time    0.0111
    FORNL :  cpu time    1.6369: real time    1.6370
    STRESS:  cpu time    4.9036: real time    4.9037
    FORCOR:  cpu time    0.0587: real time    0.0588
    FORHAR:  cpu time    0.0182: real time    0.0183
    OFIELD:  cpu time    0.0003: real time    0.0003

  FORCE on cell =-STRESS in cart. coord.  units (eV):
  Direction    XX          YY          ZZ          XY          YZ          ZX
  --------------------------------------------------------------------------------------
  Alpha Z   696.84886   696.84886   696.84886
  Ewald  153343.62994153343.62996************     0.00002    -0.00000     0.00002
  Hartree163247.25592163247.25592************     0.00001    -0.00000     0.00001
  E(xc)   -2079.95810 -2079.95809 -2085.79985    -0.00001     0.00000     0.00000
  Local  ************************328100.84546     0.00024    -0.00004    -0.00010
  n-local  -353.92073  -335.41251  -346.63069    11.68620    -0.43857     0.63556
  augment  3237.63679  3237.63690  3243.50980    -0.00009    -0.00001     0.00008
  Kinetic  4944.82430  4948.90926  4950.21406     5.33188     0.77777    -0.29694
  Fock        0.00000     0.00000     0.00000     0.00000     0.00000     0.00000
  -------------------------------------------------------------------------------------
  Total      -6.34001    -6.34001     0.30487    -0.00000     0.00000     0.00000
  in kB      -6.22938    -6.22938     0.29955    -0.00000     0.00000     0.00000
  external pressure =       -4.05 kB  Pullay stress =        0.00 kB


 VOLUME and BASIS-vectors are now :
 -----------------------------------------------------------------------------
  energy-cutoff  :      500.00
  volume of cell :     1630.63
      direct lattice vectors                 reciprocal lattice vectors
     8.791366577  0.000000000  0.000000000     0.113747958 -0.065672414  0.000000000
     4.395683289  7.613546790  0.000000000     0.000000000  0.131344829  0.000000000
     0.000000000  0.000000000 24.361965240     0.000000000  0.000000000  0.041047592

  length of vectors
     8.791366577  8.791366577 24.361965240     0.131344829  0.131344829  0.041047592


 FORCES acting on ions
    electron-ion (+dipol)            ewald-force                    non-local-force                 convergence-correction
 -----------------------------------------------------------------------------------------------
   0.463E-04 -.280E-04 0.268E+04   -.954E-04 0.593E-04 -.267E+04   0.119E-18 -.187E-18 -.185E+01   -.126E-03 -.179E-03 -.285E+00
   0.563E+00 0.468E+00 0.268E+04   -.543E+00 -.524E+00 -.268E+04   -.701E-02 0.621E-01 -.172E+01   -.101E-01 -.944E-02 -.247E+00
   -.563E+00 0.468E+00 0.268E+04   0.544E+00 -.524E+00 -.268E+04   0.701E-02 0.621E-01 -.172E+01   0.959E-02 -.745E-02 -.246E+00
   0.686E+00 0.254E+00 0.268E+04   -.726E+00 -.208E+00 -.268E+04   0.503E-01 -.371E-01 -.172E+01   -.130E-01 -.386E-02 -.247E+00
   -.720E-05 -.197E-04 0.268E+04   0.980E-04 -.197E-05 -.268E+04   -.233E-17 0.661E-18 -.176E+01   0.630E-02 0.385E-02 -.239E+00
   -.686E+00 0.254E+00 0.268E+04   0.726E+00 -.209E+00 -.268E+04   -.503E-01 -.371E-01 -.172E+01   0.116E-01 -.292E-02 -.246E+00
   0.124E+00 -.721E+00 0.268E+04   -.182E+00 0.733E+00 -.268E+04   0.573E-01 -.250E-01 -.172E+01   -.121E-02 0.126E-01 -.246E+00
   -.124E+00 -.721E+00 0.268E+04   0.182E+00 0.733E+00 -.268E+04   -.573E-01 -.250E-01 -.172E+01   0.289E-02 0.115E-01 -.246E+00
   0.362E-04 -.130E-04 0.268E+04   0.792E-04 -.643E-04 -.267E+04   0.652E-17 -.183E-17 -.178E+01   -.670E-02 -.346E-02 -.212E+00
   0.619E+01 0.357E+01 0.899E+03   -.602E+01 -.348E+01 -.899E+03   -.212E+00 -.122E+00 -.541E+00   0.229E-01 0.133E-01 0.629E-01
   -.284E-04 0.546E+01 0.907E+03   0.410E-04 -.552E+01 -.906E+03   0.381E-12 0.581E-01 -.725E+00   0.644E-02 -.323E-01 0.471E-01
   -.619E+01 0.357E+01 0.899E+03   0.602E+01 -.348E+01 -.899E+03   0.212E+00 -.122E+00 -.541E+00   -.247E-01 0.147E-01 0.634E-01
   0.473E+01 -.273E+01 0.907E+03   -.478E+01 0.276E+01 -.906E+03   0.503E-01 -.290E-01 -.725E+00   -.249E-01 0.218E-01 0.471E-01
   -.473E+01 -.273E+01 0.907E+03   0.478E+01 0.276E+01 -.906E+03   -.503E-01 -.290E-01 -.725E+00   0.360E-01 0.210E-01 0.472E-01
   0.162E-04 0.165E+01 0.900E+03   -.108E-03 -.182E+01 -.900E+03   0.152E-12 0.231E-01 -.593E+00   -.195E-02 0.112E+00 0.338E-01
   -.783E-05 -.714E+01 0.899E+03   0.205E-04 0.695E+01 -.899E+03   0.161E-11 0.245E+00 -.541E+00   0.387E-03 -.288E-01 0.635E-01
   0.143E+01 -.827E+00 0.900E+03   -.158E+01 0.910E+00 -.900E+03   0.200E-01 -.116E-01 -.593E+00   0.959E-01 -.577E-01 0.338E-01
   -.143E+01 -.827E+00 0.900E+03   0.158E+01 0.910E+00 -.900E+03   -.200E-01 -.116E-01 -.593E+00   -.960E-01 -.555E-01 0.342E-01
   0.391E-04 0.190E+01 -.909E+03   -.128E-03 -.177E+01 0.908E+03   -.632E-12 -.963E-01 0.646E+00   -.615E-02 -.330E-01 0.289E+00
   0.900E+01 0.520E+01 -.870E+03   -.866E+01 -.500E+01 0.870E+03   -.623E+00 -.359E+00 -.466E+00   0.412E-01 0.238E-01 0.331E+00
   -.900E+01 0.520E+01 -.870E+03   0.866E+01 -.500E+01 0.870E+03   0.623E+00 -.359E+00 -.466E+00   -.397E-01 0.252E-01 0.331E+00
   0.708E+00 -.409E+00 -.896E+03   -.105E+01 0.605E+00 0.895E+03   0.393E+00 -.227E+00 0.743E+00   -.267E-01 0.105E-01 0.202E+00
   -.536E-04 -.104E+02 -.870E+03   0.426E-04 0.100E+02 0.870E+03   0.472E-11 0.719E+00 -.466E+00   0.230E-02 -.463E-01 0.331E+00
   -.708E+00 -.409E+00 -.896E+03   0.105E+01 0.604E+00 0.895E+03   -.393E+00 -.227E+00 0.743E+00   0.161E-01 0.938E-02 0.201E+00
   -.165E+01 -.952E+00 -.909E+03   0.153E+01 0.884E+00 0.908E+03   0.834E-01 0.481E-01 0.646E+00   0.226E-01 0.129E-01 0.289E+00
   0.165E+01 -.952E+00 -.909E+03   -.153E+01 0.884E+00 0.908E+03   -.834E-01 0.481E-01 0.646E+00   -.320E-01 0.111E-01 0.289E+00
   0.200E-04 0.817E+00 -.896E+03   0.110E-03 -.121E+01 0.895E+03   0.298E-11 0.453E+00 0.743E+00   -.489E-02 -.284E-01 0.202E+00
   0.535E-04 -.364E-04 -.266E+04   -.115E-03 0.776E-04 0.266E+04   0.656E-17 -.788E-17 0.205E+01   0.116E-02 0.533E-03 0.341E+00
   0.170E+02 0.309E+02 -.266E+04   -.165E+02 -.303E+02 0.265E+04   -.633E+00 -.890E+00 0.233E+01   -.322E-01 0.656E-01 0.259E+00
   -.170E+02 0.309E+02 -.266E+04   0.165E+02 -.303E+02 0.265E+04   0.633E+00 -.890E+00 0.233E+01   0.216E-01 0.675E-01 0.258E+00
   0.353E+02 -.705E+00 -.266E+04   -.345E+02 0.879E+00 0.265E+04   -.109E+01 -.103E+00 0.233E+01   0.410E-01 -.605E-01 0.259E+00
   -.353E+02 -.705E+00 -.266E+04   0.345E+02 0.879E+00 0.265E+04   0.109E+01 -.103E+00 0.233E+01   -.526E-01 -.597E-01 0.258E+00
   0.183E+02 -.302E+02 -.266E+04   -.180E+02 0.294E+02 0.265E+04   -.455E+00 0.993E+00 0.233E+01   0.698E-01 -.145E-01 0.258E+00
   -.183E+02 -.302E+02 -.266E+04   0.180E+02 0.294E+02 0.265E+04   0.455E+00 0.993E+00 0.233E+01   -.784E-01 -.156E-01 0.258E+00
   0.228E-04 -.126E-04 -.266E+04   0.105E-03 -.656E-04 0.266E+04   0.346E-17 0.777E-18 0.220E+01   -.550E-02 -.275E-02 0.321E+00
   -.938E-05 -.177E-04 -.172E+04   0.774E-04 0.978E-05 0.172E+04   -.214E-17 0.152E-17 0.141E+01   0.271E-02 0.161E-02 0.140E+00
   0.477E-04 -.285E-04 -.120E+04   0.197E-04 0.288E-06 0.121E+04   -.557E-18 -.357E-19 -.105E+02   0.986E-03 0.595E-03 -.462E-01
 -----------------------------------------------------------------------------------------------
   0.393E-03 -.729E-03 0.627E+01   -.141E-13 0.281E-13 -.955E-11   -.110E-15 -.109E-15 -.938E+01   -.453E-01 -.229E-01 0.299E+01
 
 
 POSITION                                       TOTAL-FORCE (eV/Angst)
 -----------------------------------------------------------------------------------
      0.00000      0.00000      5.28219        -0.000000      0.000000      0.024099
      2.93046      0.00000      5.28219         0.002803     -0.002957      0.033144
      5.86091      0.00000      5.28219        -0.002803     -0.002957      0.033144
      1.46523      2.53785      5.28219        -0.001160      0.003906      0.033144
      4.39568      2.53785      5.28219        -0.000000      0.000000     -0.001567
      7.32614      2.53785      5.28219         0.001160      0.003906      0.033144
      2.93046      5.07570      5.28219        -0.003962     -0.000949      0.033144
      5.86091      5.07570      5.28219         0.003962     -0.000949      0.033144
      8.79137      5.07570      5.28219        -0.000000      0.000000      0.037579
      1.46523      0.84595      7.67490        -0.024612     -0.014210      0.000232
      4.39568      0.84595      7.67490        -0.000000     -0.038182     -0.073872
      7.32614      0.84595      7.67490         0.024612     -0.014210      0.000232
      2.93046      3.38380      7.67490        -0.033067      0.019091     -0.073872
      5.86091      3.38380      7.67490         0.033067      0.019091     -0.073872
      8.79137      3.38380      7.67490        -0.000000     -0.030516      0.012244
      4.39568      5.92165      7.67490         0.000000      0.028419      0.000232
      7.32614      5.92165      7.67490        -0.026428      0.015258      0.012244
     10.25659      5.92165      7.67490         0.026428      0.015258      0.012244
      8.79137      1.69824     10.07044         0.000000      0.008449      0.020904
      2.93075      1.69207     10.02201        -0.240782     -0.139016     -0.229940
      5.86061      1.69207     10.02201         0.240782     -0.139016     -0.229940
     10.25044      4.23330     10.05478         0.031606     -0.018248      0.020513
      4.39568      4.22940     10.02201         0.000000      0.278031     -0.229940
      7.33230      4.23330     10.05478        -0.031606     -0.018248      0.020513
     11.71633      6.76443     10.07044        -0.007317     -0.004224      0.020904
      5.86640      6.76443     10.07044         0.007317     -0.004224      0.020904
      8.79137      6.76048     10.05478         0.000000      0.036496      0.020513
      0.00000      0.00000     12.42728        -0.000000      0.000000      0.002237
      2.96092      0.05748     12.44843        -0.095619     -0.191716     -0.093389
      5.83045      0.05748     12.44843         0.095619     -0.191716     -0.093389
      1.53024      2.53549     12.44843        -0.213840      0.013049     -0.093389
      7.26113      2.53549     12.44843         0.213840      0.013049     -0.093389
      2.96500      5.02058     12.44843        -0.118221      0.178666     -0.093389
      5.82636      5.02058     12.44843         0.118221      0.178666     -0.093389
      8.79137      5.07570     12.42122        -0.000000      0.000000     -0.008935
      4.39568      2.53785     12.20312        -0.000000      0.000000      1.035483
      4.39568      2.53785     13.93536        -0.000000      0.000000      0.022326
 -----------------------------------------------------------------------------------
    total drift:                               -0.044896     -0.023648     -0.116818


--------------------------------------------------------------------------------------------------------



  FREE ENERGIE OF THE ION-ELECTRON SYSTEM (eV)
  ---------------------------------------------------
  free  energy   TOTEN  =      -105.13825944 eV

  energy  without entropy=     -105.13825944  energy(sigma->0) =     -105.13825944
 


--------------------------------------------------------------------------------------------------------


    POTLOK:  cpu time    0.0480: real time    0.0480


--------------------------------------------------------------------------------------------------------


 stress matrix after NEB project (eV)
     -6.34001     -0.00000      0.00000
     -0.00000     -6.34001     -0.00000
     -0.00000      0.00000      0.30487
  FORCES: max atom, RMS     0.022326    0.003670
  FORCE total and by dimension    0.022326    0.022326
  Stress total and by dimension    8.971303    6.340006
     LOOP+:  cpu time   75.5399: real time   75.5518
 -----------------------------------------------------------------------------
|                                                                             |
|           W    W    AA    RRRRR   N    N  II  N    N   GGGG   !!!           |
|           W    W   A  A   R    R  NN   N  II  NN   N  G    G  !!!           |
|           W    W  A    A  R    R  N N  N  II  N N  N  G       !!!           |
|           W WW W  AAAAAA  RRRRR   N  N N  II  N  N N  G  GGG   !            |
|           WW  WW  A    A  R   R   N   NN  II  N   NN  G    G                |
|           W    W  A    A  R    R  N    N  II  N    N   GGGG   !!!           |
|                                                                             |
|     Tetrahedron method does not include variations of the Fermi             |
|     occupations, so forces and stress will be inaccurate. We suggest        |
|     using a different smearing scheme ISMEAR = 1 or 2 for metals in         |
|     relaxations.                                                            |
|                                                                             |
 -----------------------------------------------------------------------------

    4ORBIT:  cpu time    0.0000: real time    0.0000



 total charge

# of ion       s       p       d       tot
------------------------------------------
    1        0.416   0.203   9.177   9.796
    2        0.416   0.203   9.177   9.797
    3        0.416   0.203   9.177   9.797
    4        0.416   0.203   9.177   9.797
    5        0.421   0.201   9.178   9.800
    6        0.416   0.203   9.177   9.797
    7        0.416   0.203   9.177   9.797
    8        0.416   0.203   9.177   9.797
    9        0.412   0.205   9.176   9.793
   10        0.406   0.269   9.166   9.840
   11        0.404   0.274   9.165   9.842
   12        0.406   0.269   9.166   9.840
   13        0.404   0.274   9.165   9.842
   14        0.404   0.274   9.165   9.842
   15        0.403   0.270   9.165   9.837
   16        0.406   0.269   9.166   9.840
   17        0.403   0.270   9.165   9.837
   18        0.403   0.270   9.165   9.837
   19        0.405   0.263   9.168   9.836
   20        0.425   0.299   9.153   9.878
   21        0.425   0.299   9.153   9.878
   22        0.394   0.276   9.166   9.836
   23        0.425   0.299   9.153   9.878
   24        0.394   0.276   9.166   9.836
   25        0.405   0.263   9.168   9.836
   26        0.405   0.263   9.168   9.836
   27        0.394   0.276   9.166   9.836
   28        0.417   0.193   9.182   9.792
   29        0.407   0.218   9.176   9.801
   30        0.407   0.218   9.176   9.801
   31        0.407   0.218   9.176   9.801
   32        0.407   0.218   9.176   9.801
   33        0.407   0.218   9.176   9.801
   34        0.407   0.218   9.176   9.801
   35        0.412   0.195   9.183   9.789
   36        0.660   0.516   6.273   7.449
   37        1.006   1.251   0.000   2.257
--------------------------------------------------
tot         15.991  10.244 327.233 353.469
 
 BZINTS: Fermi energy:    0.301909;  397.000000 electrons
         Band energy:-0.149799E+04;  BLOECHL correction:   -0.067621

 total amount of memory used by VASP MPI-rank0   131585. kBytes
=======================================================================

   base      :      30000. kBytes
   nonlr-proj:      15664. kBytes
   fftplans  :       4808. kBytes
   grid      :      19857. kBytes
   one-center:        575. kBytes
   wavefun   :      60681. kBytes
 
  
  
 General timing and accounting informations for this job:
 ========================================================
  
                  Total CPU time used (sec):       83.409
                            User time (sec):       80.387
                          System time (sec):        3.022
                         Elapsed time (sec):       83.913
  
                   Maximum memory used (kb):      397016.
                   Average memory used (kb):          N/A
  
                          Minor page faults:        74999
                          Major page faults:            0
                 Voluntary context switches:         5058
