PROCAR new format
# of k-points:   10         # of bands:  252         # of ions:   37

 k-point     1 :    0.00000000 0.00000000 0.00000000     weight = 0.01562500

band     1 # energy   -9.47936825 # occ.  2.00000000
 
ion      s      p      d    tot
    1  0.000  0.000  0.000  0.000
    2  0.000  0.000  0.000  0.000
    3  0.000  0.000  0.000  0.000
    4  0.000  0.000  0.000  0.000
    5  0.000  0.000  0.000  0.000
    6  0.000  0.000  0.000  0.000
    7  0.000  0.000  0.000  0.000
    8  0.000  0.000  0.000  0.000
    9  0.000  0.000  0.000  0.000
   10  0.000  0.000  0.000  0.000
   11  0.000  0.000  0.000  0.000
   12  0.000  0.000  0.000  0.000
   13  0.000  0.000  0.000  0.000
   14  0.000  0.000  0.000  0.000
   15  0.000  0.000  0.000  0.000
   16  0.000  0.000  0.000  0.000
   17  0.000  0.000  0.000  0.000
   18  0.000  0.000  0.000  0.000
   19  0.000  0.000  0.000  0.000
   20  0.002  0.001  0.003  0.005
   21  0.002  0.001  0.003  0.005
   22  0.000  0.000  0.000  0.000
   23  0.002  0.001  0.003  0.005
   24  0.000  0.000  0.000  0.000
   25  0.000  0.000  0.000  0.000
   26  0.000  0.000  0.000  0.000
   27  0.000  0.000  0.000  0.000
   28  0.000  0.000  0.000  0.000
   29  0.001  0.000  0.001  0.002
   30  0.001  0.000  0.001  0.002
   31  0.001  0.000  0.001  0.002
   32  0.001  0.000  0.001  0.002
   33  0.001  0.000  0.001  0.002
   34  0.001  0.000  0.001  0.002
   35  0.000  0.000  0.000  0.000
   36  0.134  0.056  0.201  0.391
   37  0.405  0.031  0.000  0.436
tot    0.550  0.091  0.213  0.855
 
band     2 # energy   -6.81335025 # occ.  2.00000000
 
ion      s      p      d    tot
    1  0.006  0.001  0.000  0.007
    2  0.006  0.001  0.000  0.007
    3  0.006  0.001  0.000  0.007
    4  0.006  0.001  0.000  0.007
    5  0.006  0.001  0.000  0.007
    6  0.006  0.001  0.000  0.007
    7  0.006  0.001  0.000  0.007
    8  0.006  0.001  0.000  0.007
    9  0.006  0.001  0.000  0.006
   10  0.023  0.000  0.000  0.024
   11  0.024  0.000  0.000  0.025
   12  0.023  0.000  0.000  0.024
   13  0.024  0.000  0.000  0.025
   14  0.024  0.000  0.000  0.025
   15  0.023  0.000  0.000  0.023
   16  0.023  0.000  0.000  0.024
   17  0.023  0.000  0.000  0.023
   18  0.023  0.000  0.000  0.023
   19  0.022  0.000  0.000  0.022
   20  0.025  0.000  0.000  0.025
   21  0.025  0.000  0.000  0.025
   22  0.022  0.000  0.000  0.023
   23  0.025  0.000  0.000  0.025
   24  0.022  0.000  0.000  0.023
   25  0.022  0.000  0.000  0.022
   26  0.022  0.000  0.000  0.022
   27  0.022  0.000  0.000  0.023
   28  0.005  0.001  0.000  0.006
   29  0.005  0.001  0.000  0.006
   30  0.005  0.001  0.000  0.006
   31  0.005  0.001  0.000  0.006
   32  0.005  0.001  0.000  0.006
   33  0.005  0.001  0.000  0.006
   34  0.005  0.001  0.000  0.006
   35  0.005  0.001  0.000  0.006
   36  0.004  0.005  0.004  0.013
   37  0.006  0.000  0.000  0.006
tot    0.521  0.017  0.011  0.550
 
band     3 # energy   -5.94708927 # occ.  2.00000000
 
ion      s      p      d    tot
    1  0.008  0.000  0.000  0.008
    2  0.008  0.000  0.000  0.008
    3  0.008  0.000  0.000  0.008
    4  0.008  0.000  0.000  0.008
    5  0.008  0.000  0.000  0.008
    6  0.008  0.000  0.000  0.008
    7  0.008  0.000  0.000  0.008
    8  0.008  0.000  0.000  0.008
    9  0.008  0.000  0.000  0.009
   10  0.011  0.001  0.015  0.028
   11  0.011  0.001  0.016  0.028
   12  0.011  0.001  0.015  0.028
   13  0.011  0.001  0.016  0.028
   14  0.011  0.001  0.016  0.028
   15  0.011  0.001  0.014  0.025
   16  0.011  0.001  0.015  0.028
   17  0.011  0.001  0.014  0.025
   18  0.011  0.001  0.014  0.025
   19  0.011  0.001  0.017  0.028
   20  0.014  0.001  0.019  0.034
   21  0.014  0.001  0.019  0.034
   22  0.012  0.001  0.017  0.029
   23  0.014  0.001  0.019  0.034
   24  0.012  0.001  0.017  0.029
   25  0.011  0.001  0.017  0.028
   26  0.011  0.001  0.017  0.028
   27  0.012  0.001  0.017  0.029
   28  0.006  0.000  0.000  0.007
   29  0.006  0.000  0.000  0.007
   30  0.006  0.000  0.000  0.007
   31  0.006  0.000  0.000  0.007
   32  0.006  0.000  0.000  0.007
   33  0.006  0.000  0.000  0.007
   34  0.006  0.000  0.000  0.007
   35  0.006  0.000  0.000  0.006
   36  0.006  0.004  0.003  0.013
   37  0.005  0.000  0.000  0.005
tot    0.335  0.028  0.299  0.662
 
band     4 # energy   -5.69117624 # occ.  2.00000000
 
ion      s      p      d    tot
    1  0.009  0.000  0.019  0.029
    2  0.010  0.000  0.014  0.024
    3  0.010  0.000  0.014  0.024
    4  0.010  0.000  0.014  0.024
    5  0.009  0.000  0.011  0.020
    6  0.010  0.000  0.014  0.024
    7  0.010  0.000  0.014  0.024
    8  0.010  0.000  0.014  0.024
    9  0.012  0.000  0.012  0.024
   10  0.000  0.000  0.022  0.022
   11  0.000  0.000  0.014  0.014
   12  0.000  0.000  0.022  0.022
   13  0.000  0.000  0.014  0.014
   14  0.000  0.000  0.014  0.014
   15  0.000  0.000  0.011  0.011
   16  0.000  0.000  0.022  0.022
   17  0.000  0.000  0.011  0.011
   18  0.000  0.000  0.011  0.011
   19  0.001  0.000  0.011  0.012
   20  0.000  0.000  0.039  0.040
   21  0.000  0.000  0.039  0.040
   22  0.000  0.000  0.010  0.010
   23  0.000  0.000  0.039  0.040
   24  0.000  0.000  0.010  0.010
   25  0.001  0.000  0.011  0.012
   26  0.001  0.000  0.011  0.012
   27  0.000  0.000  0.010  0.010
   28  0.006  0.000  0.010  0.016
   29  0.010  0.000  0.014  0.025
   30  0.010  0.000  0.014  0.025
   31  0.010  0.000  0.014  0.025
   32  0.010  0.000  0.014  0.025
   33  0.010  0.000  0.014  0.025
   34  0.010  0.000  0.014  0.025
   35  0.008  0.000  0.009  0.017
   36  0.017  0.001  0.028  0.046
   37  0.002  0.001  0.000  0.002
tot    0.188  0.008  0.579  0.775
 
band     5 # energy   -5.59311565 # occ.  2.00000000
 
ion      s      p      d    tot
    1  0.002  0.001  0.004  0.007
    2  0.000  0.000  0.004  0.005
    3  0.000  0.000  0.004  0.005
    4  0.000  0.000  0.004  0.005
    5  0.002  0.000  0.000  0.003
    6  0.000  0.000  0.004  0.005
    7  0.000  0.000  0.004  0.005
    8  0.000  0.000  0.004  0.005
    9  0.003  0.000  0.000  0.003
   10  0.004  0.000  0.026  0.030
   11  0.000  0.001  0.021  0.022
   12  0.004  0.000  0.026  0.030
   13  0.000  0.001  0.021  0.022
   14  0.000  0.001  0.021  0.022
   15  0.005  0.000  0.008  0.013
   16  0.004  0.000  0.026  0.030
   17  0.005  0.000  0.008  0.013
   18  0.005  0.000  0.008  0.013
   19  0.000  0.001  0.041  0.042
   20  0.010  0.000  0.100  0.111
   21  0.010  0.000  0.100  0.111
   22  0.014  0.001  0.004  0.018
   23  0.010  0.000  0.100  0.111
   24  0.014  0.001  0.004  0.018
   25  0.000  0.001  0.041  0.042
   26  0.000  0.001  0.041  0.042
   27  0.014  0.001  0.004  0.018
   28  0.000  0.000  0.001  0.002
   29  0.000  0.000  0.004  0.005
   30  0.000  0.000  0.004  0.005
   31  0.000  0.000  0.004  0.005
   32  0.000  0.000  0.004  0.005
   33  0.000  0.000  0.004  0.005
   34  0.000  0.000  0.004  0.005
   35  0.005  0.001  0.001  0.007
   36  0.003  0.009  0.003  0.016
   37  0.007  0.001  0.000  0.007
tot    0.127  0.022  0.661  0.810
 
band     6 # energy   -5.56798115 # occ.  2.00000000
 
ion      s      p      d    tot
    1  0.000  0.000  0.008  0.009
    2  0.001  0.000  0.003  0.004
    3  0.001  0.000  0.003  0.004
    4  0.001  0.000  0.003  0.003
    5  0.000  0.000  0.005  0.005
    6  0.000  0.000  0.002  0.003
    7  0.001  0.000  0.002  0.003
    8  0.000  0.000  0.002  0.003
    9  0.000  0.000  0.001  0.001
   10  0.001  0.000  0.023  0.024
   11  0.004  0.000  0.024  0.029
   12  0.006  0.001  0.018  0.025
   13  0.002  0.001  0.024  0.027
   14  0.000  0.001  0.023  0.025
   15  0.002  0.000  0.010  0.012
   16  0.012  0.001  0.013  0.025
   17  0.001  0.000  0.013  0.015
   18  0.000  0.000  0.017  0.017
   19  0.016  0.000  0.037  0.053
   20  0.002  0.000  0.136  0.138
   21  0.017  0.000  0.075  0.092
   22  0.001  0.001  0.042  0.044
   23  0.032  0.000  0.015  0.048
   24  0.000  0.001  0.059  0.059
   25  0.001  0.001  0.013  0.016
   26  0.009  0.001  0.025  0.035
   27  0.001  0.000  0.027  0.029
   28  0.000  0.000  0.003  0.003
   29  0.000  0.000  0.005  0.006
   30  0.000  0.000  0.005  0.005
   31  0.000  0.000  0.006  0.007
   32  0.001  0.001  0.006  0.008
   33  0.001  0.001  0.005  0.006
   34  0.001  0.001  0.006  0.008
   35  0.000  0.000  0.001  0.001
   36  0.000  0.001  0.013  0.015
   37  0.000  0.001  0.000  0.001
tot    0.117  0.017  0.673  0.807
 
band     7 # energy   -5.56798050 # occ.  2.00000000
 
ion      s      p      d    tot
    1  0.000  0.000  0.008  0.009
    2  0.000  0.000  0.002  0.003
    3  0.000  0.000  0.002  0.003
    4  0.001  0.000  0.002  0.003
    5  0.000  0.000  0.005  0.005
    6  0.001  0.000  0.003  0.004
    7  0.001  0.000  0.003  0.003
    8  0.001  0.000  0.003  0.004
    9  0.000  0.000  0.001  0.001
   10  0.012  0.001  0.013  0.025
   11  0.000  0.001  0.023  0.025
   12  0.006  0.001  0.018  0.025
   13  0.002  0.001  0.024  0.027
   14  0.004  0.000  0.024  0.029
   15  0.000  0.000  0.017  0.017
   16  0.001  0.000  0.023  0.024
   17  0.001  0.000  0.013  0.015
   18  0.002  0.000  0.010  0.013
   19  0.001  0.001  0.013  0.016
   20  0.032  0.000  0.015  0.048
   21  0.017  0.000  0.076  0.093
   22  0.001  0.001  0.043  0.044
   23  0.002  0.000  0.135  0.138
   24  0.001  0.000  0.026  0.028
   25  0.016  0.000  0.037  0.054
   26  0.008  0.001  0.025  0.034
   27  0.000  0.001  0.059  0.060
   28  0.000  0.000  0.003  0.003
   29  0.001  0.001  0.006  0.008
   30  0.001  0.001  0.006  0.008
   31  0.001  0.001  0.005  0.006
   32  0.000  0.000  0.005  0.005
   33  0.000  0.000  0.006  0.007
   34  0.000  0.000  0.005  0.006
   35  0.000  0.000  0.001  0.001
   36  0.000  0.001  0.013  0.015
   37  0.000  0.001  0.000  0.001
tot    0.117  0.017  0.673  0.807
 
band     8 # energy   -5.55588167 # occ.  2.00000000
 
ion      s      p      d    tot
    1  0.012  0.001  0.001  0.013
    2  0.005  0.000  0.015  0.020
    3  0.005  0.000  0.015  0.020
    4  0.005  0.000  0.015  0.020
    5  0.008  0.000  0.027  0.035
    6  0.005  0.000  0.015  0.020
    7  0.005  0.000  0.015  0.020
    8  0.005  0.000  0.015  0.020
    9  0.000  0.001  0.015  0.016
   10  0.001  0.000  0.030  0.031
   11  0.000  0.000  0.049  0.050
   12  0.001  0.000  0.030  0.031
   13  0.001  0.000  0.049  0.050
   14  0.000  0.000  0.049  0.050
   15  0.008  0.000  0.014  0.022
   16  0.001  0.000  0.030  0.031
   17  0.008  0.000  0.014  0.022
   18  0.007  0.000  0.014  0.021
   19  0.005  0.000  0.004  0.009
   20  0.000  0.000  0.042  0.042
   21  0.001  0.000  0.042  0.042
   22  0.000  0.000  0.016  0.016
   23  0.001  0.000  0.042  0.042
   24  0.000  0.000  0.016  0.017
   25  0.005  0.000  0.004  0.009
   26  0.005  0.000  0.004  0.009
   27  0.000  0.000  0.016  0.016
   28  0.001  0.001  0.004  0.005
   29  0.001  0.000  0.013  0.014
   30  0.001  0.000  0.013  0.014
   31  0.001  0.000  0.013  0.014
   32  0.001  0.000  0.013  0.014
   33  0.001  0.000  0.013  0.014
   34  0.001  0.000  0.013  0.014
   35  0.000  0.000  0.000  0.000
   36  0.015  0.002  0.012  0.029
   37  0.002  0.000  0.000  0.002
tot    0.116  0.011  0.692  0.819
 
band     9 # energy   -5.54423367 # occ.  2.00000000
 
ion      s      p      d    tot
    1  0.000  0.000  0.002  0.002
    2  0.001  0.001  0.005  0.007
    3  0.001  0.000  0.003  0.004
    4  0.001  0.001  0.007  0.008
    5  0.000  0.000  0.008  0.009
    6  0.001  0.000  0.006  0.007
    7  0.000  0.000  0.002  0.002
    8  0.000  0.000  0.003  0.004
    9  0.000  0.000  0.003  0.003
   10  0.000  0.001  0.071  0.072
   11  0.026  0.001  0.015  0.042
   12  0.001  0.001  0.051  0.053
   13  0.013  0.000  0.061  0.075
   14  0.002  0.000  0.100  0.102
   15  0.013  0.000  0.036  0.049
   16  0.002  0.000  0.027  0.029
   17  0.007  0.001  0.022  0.029
   18  0.001  0.001  0.010  0.013
   19  0.004  0.000  0.013  0.017
   20  0.000  0.001  0.033  0.034
   21  0.002  0.001  0.036  0.038
   22  0.006  0.001  0.019  0.026
   23  0.004  0.000  0.039  0.043
   24  0.001  0.001  0.022  0.024
   25  0.000  0.000  0.036  0.036
   26  0.002  0.000  0.025  0.028
   27  0.013  0.001  0.014  0.028
   28  0.000  0.000  0.002  0.002
   29  0.000  0.000  0.002  0.003
   30  0.001  0.000  0.003  0.003
   31  0.000  0.000  0.002  0.002
   32  0.000  0.000  0.003  0.003
   33  0.001  0.000  0.003  0.004
   34  0.001  0.000  0.003  0.004
   35  0.000  0.000  0.006  0.006
   36  0.000  0.000  0.003  0.003
   37  0.000  0.000  0.000  0.000
tot    0.105  0.015  0.695  0.814
 
band    10 # energy   -5.54423296 # occ.  2.00000000
 
ion      s      p      d    tot
    1  0.000  0.000  0.002  0.002
    2  0.000  0.000  0.004  0.004
    3  0.001  0.000  0.006  0.007
    4  0.000  0.000  0.002  0.002
    5  0.000  0.000  0.008  0.009
    6  0.000  0.000  0.003  0.004
    7  0.001  0.001  0.007  0.008
    8  0.001  0.001  0.005  0.007
    9  0.000  0.000  0.003  0.003
   10  0.002  0.000  0.029  0.031
   11  0.002  0.000  0.102  0.104
   12  0.001  0.001  0.048  0.050
   13  0.015  0.001  0.056  0.071
   14  0.025  0.001  0.018  0.044
   15  0.001  0.002  0.009  0.011
   16  0.000  0.001  0.072  0.073
   17  0.008  0.001  0.023  0.032
   18  0.013  0.000  0.035  0.049
   19  0.000  0.000  0.036  0.037
   20  0.004  0.000  0.039  0.043
   21  0.002  0.001  0.036  0.039
   22  0.007  0.001  0.018  0.026
   23  0.000  0.001  0.033  0.034
   24  0.012  0.001  0.014  0.028
   25  0.004  0.000  0.013  0.018
   26  0.002  0.000  0.024  0.026
   27  0.001  0.001  0.023  0.024
   28  0.000  0.000  0.002  0.002
   29  0.001  0.000  0.003  0.004
   30  0.000  0.000  0.003  0.003
   31  0.001  0.000  0.003  0.004
   32  0.001  0.000  0.003  0.004
   33  0.000  0.000  0.002  0.002
   34  0.000  0.000  0.002  0.003
   35  0.000  0.000  0.006  0.006
   36  0.000  0.000  0.003  0.003
   37  0.000  0.000  0.000  0.000
tot    0.105  0.015  0.695  0.814
 
band    11 # energy   -5.53470287 # occ.  2.00000000
 
ion      s      p      d    tot
    1  0.001  0.000  0.002  0.002
    2  0.000  0.000  0.006  0.006
    3  0.000  0.000  0.006  0.006
    4  0.000  0.000  0.006  0.006
    5  0.005  0.001  0.003  0.009
    6  0.000  0.000  0.006  0.006
    7  0.000  0.000  0.006  0.006
    8  0.000  0.000  0.006  0.006
    9  0.001  0.000  0.004  0.004
   10  0.009  0.001  0.003  0.013
   11  0.012  0.001  0.048  0.061
   12  0.009  0.001  0.003  0.013
   13  0.012  0.001  0.048  0.061
   14  0.012  0.001  0.048  0.061
   15  0.000  0.000  0.045  0.046
   16  0.009  0.001  0.003  0.013
   17  0.000  0.000  0.045  0.046
   18  0.000  0.000  0.045  0.046
   19  0.013  0.001  0.027  0.040
   20  0.004  0.001  0.019  0.025
   21  0.004  0.001  0.019  0.025
   22  0.000  0.000  0.053  0.053
   23  0.004  0.001  0.019  0.025
   24  0.000  0.000  0.052  0.053
   25  0.013  0.001  0.027  0.040
   26  0.013  0.001  0.027  0.040
   27  0.000  0.000  0.053  0.053
   28  0.003  0.001  0.005  0.009
   29  0.000  0.000  0.003  0.003
   30  0.000  0.000  0.003  0.003
   31  0.000  0.000  0.003  0.003
   32  0.000  0.000  0.003  0.003
   33  0.000  0.000  0.003  0.003
   34  0.000  0.000  0.003  0.003
   35  0.002  0.000  0.004  0.006
   36  0.000  0.000  0.000  0.000
   37  0.000  0.000  0.000  0.000
tot    0.129  0.017  0.653  0.800
 
band    12 # energy   -5.49920394 # occ.  2.00000000
 
ion      s      p      d    tot
    1  0.000  0.000  0.002  0.002
    2  0.001  0.000  0.010  0.012
    3  0.002  0.000  0.010  0.012
    4  0.001  0.000  0.010  0.012
    5  0.002  0.000  0.001  0.003
    6  0.001  0.000  0.010  0.012
    7  0.002  0.000  0.010  0.012
    8  0.001  0.000  0.010  0.012
    9  0.005  0.000  0.019  0.024
   10  0.002  0.000  0.024  0.026
   11  0.001  0.000  0.007  0.008
   12  0.002  0.000  0.023  0.025
   13  0.001  0.000  0.007  0.008
   14  0.001  0.000  0.006  0.008
   15  0.003  0.000  0.059  0.062
   16  0.002  0.000  0.023  0.025
   17  0.003  0.000  0.059  0.062
   18  0.003  0.000  0.059  0.062
   19  0.002  0.001  0.018  0.021
   20  0.002  0.000  0.029  0.031
   21  0.002  0.000  0.029  0.031
   22  0.001  0.000  0.053  0.054
   23  0.002  0.000  0.029  0.031
   24  0.001  0.000  0.053  0.055
   25  0.002  0.001  0.019  0.021
   26  0.002  0.001  0.018  0.021
   27  0.001  0.000  0.053  0.054
   28  0.006  0.000  0.000  0.006
   29  0.004  0.000  0.010  0.014
   30  0.004  0.000  0.010  0.014
   31  0.004  0.000  0.010  0.014
   32  0.003  0.000  0.010  0.014
   33  0.004  0.000  0.010  0.014
   34  0.003  0.000  0.010  0.014
   35  0.006  0.000  0.020  0.026
   36  0.000  0.001  0.005  0.006
   37  0.000  0.000  0.000  0.001
tot    0.080  0.009  0.739  0.827
 
band    13 # energy   -5.49753267 # occ.  2.00000000
 
ion      s      p      d    tot
    1  0.000  0.001  0.013  0.014
    2  0.002  0.000  0.006  0.008
    3  0.001  0.001  0.011  0.012
    4  0.001  0.000  0.006  0.008
    5  0.000  0.000  0.008  0.008
    6  0.004  0.001  0.007  0.011
    7  0.000  0.001  0.011  0.012
    8  0.004  0.001  0.007  0.011
    9  0.000  0.001  0.008  0.009
   10  0.000  0.001  0.066  0.067
   11  0.000  0.000  0.038  0.039
   12  0.016  0.000  0.035  0.051
   13  0.000  0.000  0.039  0.039
   14  0.000  0.001  0.017  0.018
   15  0.013  0.000  0.035  0.048
   16  0.016  0.000  0.035  0.052
   17  0.013  0.000  0.033  0.046
   18  0.000  0.000  0.122  0.122
   19  0.001  0.000  0.022  0.023
   20  0.000  0.000  0.024  0.025
   21  0.001  0.000  0.015  0.017
   22  0.004  0.000  0.019  0.023
   23  0.001  0.000  0.015  0.017
   24  0.000  0.000  0.021  0.022
   25  0.000  0.000  0.029  0.029
   26  0.001  0.000  0.021  0.022
   27  0.004  0.000  0.019  0.023
   28  0.000  0.000  0.011  0.011
   29  0.002  0.000  0.003  0.005
   30  0.003  0.000  0.004  0.007
   31  0.002  0.000  0.003  0.005
   32  0.000  0.000  0.004  0.004
   33  0.003  0.000  0.004  0.007
   34  0.000  0.000  0.004  0.004
   35  0.000  0.000  0.004  0.004
   36  0.000  0.000  0.002  0.002
   37  0.000  0.000  0.000  0.000
tot    0.091  0.011  0.722  0.824
 
band    14 # energy   -5.49750713 # occ.  2.00000000
 
ion      s      p      d    tot
    1  0.000  0.001  0.013  0.014
    2  0.002  0.001  0.010  0.013
    3  0.003  0.001  0.005  0.009
    4  0.002  0.001  0.010  0.013
    5  0.000  0.000  0.008  0.008
    6  0.000  0.000  0.009  0.009
    7  0.003  0.001  0.005  0.009
    8  0.000  0.000  0.009  0.010
    9  0.000  0.001  0.008  0.009
   10  0.022  0.000  0.024  0.046
   11  0.000  0.001  0.025  0.025
   12  0.005  0.000  0.056  0.062
   13  0.000  0.001  0.024  0.025
   14  0.000  0.000  0.046  0.046
   15  0.004  0.000  0.091  0.095
   16  0.006  0.000  0.056  0.062
   17  0.004  0.000  0.093  0.098
   18  0.017  0.000  0.005  0.023
   19  0.000  0.000  0.026  0.027
   20  0.001  0.000  0.012  0.014
   21  0.000  0.000  0.022  0.022
   22  0.001  0.000  0.021  0.022
   23  0.000  0.000  0.021  0.022
   24  0.005  0.000  0.018  0.024
   25  0.001  0.000  0.019  0.020
   26  0.000  0.000  0.026  0.027
   27  0.001  0.000  0.021  0.022
   28  0.000  0.000  0.011  0.011
   29  0.001  0.000  0.004  0.006
   30  0.000  0.000  0.003  0.004
   31  0.001  0.000  0.004  0.006
   32  0.003  0.000  0.004  0.007
   33  0.000  0.000  0.003  0.004
   34  0.003  0.000  0.004  0.007
   35  0.000  0.000  0.004  0.004
   36  0.000  0.000  0.002  0.002
   37  0.000  0.000  0.000  0.000
tot    0.091  0.011  0.722  0.824
 
band    15 # energy   -5.48959533 # occ.  2.00000000
 
ion      s      p      d    tot
    1  0.004  0.000  0.024  0.028
    2  0.002  0.000  0.012  0.014
    3  0.002  0.000  0.012  0.014
    4  0.002  0.000  0.012  0.014
    5  0.000  0.000  0.004  0.004
    6  0.002  0.000  0.012  0.014
    7  0.002  0.000  0.012  0.014
    8  0.002  0.000  0.012  0.014
    9  0.006  0.000  0.000  0.007
   10  0.002  0.000  0.061  0.063
   11  0.006  0.000  0.013  0.020
   12  0.002  0.000  0.061  0.063
   13  0.006  0.000  0.013  0.020
   14  0.006  0.000  0.013  0.020
   15  0.003  0.000  0.016  0.019
   16  0.002  0.000  0.061  0.063
   17  0.003  0.000  0.016  0.019
   18  0.003  0.000  0.016  0.019
   19  0.000  0.000  0.030  0.030
   20  0.000  0.001  0.011  0.012
   21  0.000  0.001  0.010  0.012
   22  0.002  0.000  0.025  0.027
   23  0.000  0.001  0.010  0.012
   24  0.002  0.000  0.026  0.027
   25  0.000  0.000  0.030  0.030
   26  0.000  0.000  0.030  0.030
   27  0.002  0.000  0.025  0.027
   28  0.011  0.000  0.017  0.028
   29  0.005  0.000  0.015  0.020
   30  0.005  0.000  0.015  0.020
   31  0.005  0.000  0.015  0.020
   32  0.005  0.000  0.015  0.020
   33  0.005  0.000  0.015  0.020
   34  0.005  0.000  0.015  0.020
   35  0.001  0.000  0.017  0.019
   36  0.005  0.001  0.005  0.011
   37  0.001  0.000  0.000  0.002
tot    0.112  0.009  0.695  0.815
 
band    16 # energy   -5.48581367 # occ.  2.00000000
 
ion      s      p      d    tot
    1  0.000  0.000  0.007  0.007
    2  0.002  0.000  0.007  0.009
    3  0.000  0.000  0.008  0.008
    4  0.002  0.000  0.006  0.009
    5  0.000  0.000  0.005  0.006
    6  0.002  0.000  0.005  0.007
    7  0.000  0.000  0.008  0.008
    8  0.002  0.000  0.005  0.007
    9  0.000  0.000  0.019  0.019
   10  0.001  0.000  0.031  0.032
   11  0.001  0.000  0.039  0.040
   12  0.000  0.000  0.016  0.017
   13  0.001  0.000  0.038  0.039
   14  0.003  0.000  0.008  0.012
   15  0.000  0.000  0.036  0.036
   16  0.000  0.000  0.016  0.016
   17  0.000  0.000  0.036  0.036
   18  0.001  0.000  0.033  0.034
   19  0.002  0.000  0.081  0.084
   20  0.000  0.000  0.053  0.053
   21  0.000  0.000  0.024  0.025
   22  0.003  0.000  0.056  0.060
   23  0.000  0.000  0.023  0.024
   24  0.013  0.000  0.030  0.044
   25  0.010  0.000  0.005  0.015
   26  0.003  0.000  0.078  0.081
   27  0.003  0.000  0.057  0.060
   28  0.000  0.000  0.006  0.006
   29  0.000  0.000  0.007  0.008
   30  0.002  0.000  0.002  0.004
   31  0.000  0.000  0.008  0.008
   32  0.001  0.000  0.008  0.009
   33  0.002  0.000  0.002  0.004
   34  0.001  0.000  0.008  0.009
   35  0.000  0.000  0.010  0.010
   36  0.000  0.000  0.002  0.002
   37  0.000  0.000  0.000  0.000
tot    0.055  0.007  0.784  0.846
 
band    17 # energy   -5.48577382 # occ.  2.00000000
 
ion      s      p      d    tot
    1  0.000  0.000  0.007  0.007
    2  0.001  0.000  0.007  0.007
    3  0.003  0.000  0.005  0.008
    4  0.000  0.000  0.007  0.007
    5  0.000  0.000  0.005  0.006
    6  0.001  0.000  0.008  0.009
    7  0.003  0.000  0.005  0.008
    8  0.001  0.000  0.008  0.009
    9  0.000  0.000  0.019  0.019
   10  0.000  0.000  0.011  0.011
   11  0.003  0.000  0.017  0.020
   12  0.001  0.000  0.026  0.026
   13  0.003  0.000  0.019  0.021
   14  0.000  0.000  0.049  0.049
   15  0.001  0.000  0.034  0.035
   16  0.001  0.000  0.026  0.027
   17  0.001  0.000  0.034  0.035
   18  0.000  0.000  0.037  0.037
   19  0.007  0.000  0.028  0.036
   20  0.000  0.000  0.014  0.014
   21  0.000  0.000  0.043  0.043
   22  0.010  0.000  0.039  0.049
   23  0.000  0.000  0.044  0.044
   24  0.000  0.000  0.065  0.066
   25  0.000  0.000  0.105  0.105
   26  0.007  0.000  0.031  0.039
   27  0.010  0.000  0.038  0.049
   28  0.000  0.000  0.006  0.006
   29  0.001  0.001  0.005  0.006
   30  0.000  0.000  0.010  0.010
   31  0.001  0.001  0.004  0.006
   32  0.001  0.000  0.004  0.005
   33  0.000  0.000  0.010  0.010
   34  0.001  0.000  0.004  0.005
   35  0.000  0.000  0.010  0.010
   36  0.000  0.000  0.002  0.002
   37  0.000  0.000  0.000  0.000
tot    0.055  0.007  0.784  0.846
 
band    18 # energy   -5.36438856 # occ.  2.00000000
 
ion      s      p      d    tot
    1  0.000  0.000  0.002  0.002
    2  0.001  0.001  0.008  0.009
    3  0.000  0.000  0.007  0.007
    4  0.001  0.001  0.008  0.009
    5  0.000  0.001  0.015  0.016
    6  0.002  0.001  0.005  0.007
    7  0.000  0.000  0.007  0.007
    8  0.002  0.001  0.005  0.007
    9  0.000  0.000  0.010  0.010
   10  0.000  0.001  0.027  0.028
   11  0.001  0.000  0.070  0.071
   12  0.000  0.000  0.012  0.012
   13  0.001  0.000  0.071  0.072
   14  0.003  0.000  0.044  0.047
   15  0.001  0.000  0.021  0.022
   16  0.000  0.000  0.012  0.013
   17  0.001  0.000  0.021  0.022
   18  0.002  0.000  0.029  0.032
   19  0.000  0.000  0.007  0.007
   20  0.002  0.000  0.072  0.074
   21  0.001  0.000  0.094  0.095
   22  0.000  0.000  0.040  0.040
   23  0.001  0.000  0.094  0.095
   24  0.000  0.001  0.021  0.022
   25  0.000  0.001  0.026  0.027
   26  0.000  0.000  0.006  0.007
   27  0.000  0.000  0.040  0.040
   28  0.000  0.000  0.003  0.003
   29  0.000  0.000  0.006  0.006
   30  0.001  0.000  0.008  0.009
   31  0.000  0.000  0.006  0.006
   32  0.001  0.001  0.007  0.009
   33  0.001  0.000  0.008  0.009
   34  0.001  0.001  0.007  0.009
   35  0.000  0.000  0.001  0.001
   36  0.000  0.002  0.015  0.017
   37  0.000  0.001  0.000  0.001
tot    0.022  0.015  0.834  0.870
 
band    19 # energy   -5.36437256 # occ.  2.00000000
 
ion      s      p      d    tot
    1  0.000  0.000  0.002  0.002
    2  0.001  0.000  0.006  0.007
    3  0.002  0.001  0.006  0.008
    4  0.001  0.000  0.006  0.007
    5  0.000  0.001  0.015  0.016
    6  0.000  0.000  0.008  0.009
    7  0.002  0.001  0.006  0.008
    8  0.000  0.000  0.008  0.009
    9  0.000  0.000  0.010  0.010
   10  0.000  0.000  0.007  0.008
   11  0.002  0.000  0.053  0.055
   12  0.000  0.001  0.022  0.023
   13  0.002  0.000  0.053  0.055
   14  0.000  0.000  0.079  0.079
   15  0.002  0.000  0.026  0.028
   16  0.000  0.001  0.022  0.023
   17  0.002  0.000  0.027  0.029
   18  0.000  0.000  0.018  0.018
   19  0.000  0.001  0.019  0.020
   20  0.000  0.000  0.102  0.102
   21  0.002  0.000  0.079  0.081
   22  0.000  0.001  0.027  0.028
   23  0.002  0.000  0.079  0.081
   24  0.000  0.000  0.046  0.046
   25  0.000  0.000  0.000  0.000
   26  0.000  0.001  0.020  0.021
   27  0.000  0.001  0.028  0.028
   28  0.000  0.000  0.003  0.003
   29  0.001  0.001  0.008  0.010
   30  0.001  0.000  0.006  0.008
   31  0.001  0.001  0.008  0.010
   32  0.000  0.000  0.007  0.007
   33  0.001  0.000  0.006  0.008
   34  0.000  0.000  0.007  0.007
   35  0.000  0.000  0.001  0.001
   36  0.000  0.002  0.015  0.017
   37  0.000  0.001  0.000  0.001
tot    0.022  0.015  0.834  0.870
 
band    20 # energy   -5.35476888 # occ.  2.00000000
 
ion      s      p      d    tot
    1  0.000  0.000  0.000  0.001
    2  0.000  0.000  0.005  0.006
    3  0.000  0.000  0.005  0.006
    4  0.000  0.000  0.005  0.006
    5  0.000  0.000  0.014  0.014
    6  0.000  0.000  0.005  0.006
    7  0.000  0.000  0.005  0.006
    8  0.000  0.000  0.005  0.006
    9  0.001  0.001  0.010  0.011
   10  0.000  0.000  0.012  0.012
   11  0.000  0.000  0.073  0.074
   12  0.000  0.000  0.012  0.012
   13  0.000  0.000  0.073  0.074
   14  0.000  0.000  0.073  0.074
   15  0.000  0.001  0.045  0.046
   16  0.000  0.000  0.012  0.012
   17  0.000  0.001  0.045  0.046
   18  0.000  0.001  0.045  0.046
   19  0.000  0.000  0.015  0.015
   20  0.001  0.001  0.066  0.068
   21  0.001  0.001  0.067  0.068
   22  0.003  0.000  0.024  0.027
   23  0.001  0.001  0.066  0.068
   24  0.003  0.000  0.024  0.027
   25  0.000  0.000  0.014  0.015
   26  0.000  0.000  0.015  0.015
   27  0.003  0.000  0.024  0.027
   28  0.004  0.001  0.000  0.004
   29  0.000  0.000  0.011  0.011
   30  0.000  0.000  0.010  0.011
   31  0.000  0.000  0.011  0.011
   32  0.000  0.000  0.010  0.011
   33  0.000  0.000  0.010  0.011
   34  0.000  0.000  0.010  0.011
   35  0.001  0.000  0.002  0.003
   36  0.001  0.003  0.001  0.005
   37  0.002  0.000  0.000  0.002
tot    0.025  0.016  0.828  0.869
 
band    21 # energy   -5.32628360 # occ.  2.00000000
 
ion      s      p      d    tot
    1  0.000  0.000  0.005  0.005
    2  0.000  0.001  0.013  0.013
    3  0.000  0.001  0.013  0.013
    4  0.000  0.001  0.013  0.013
    5  0.004  0.001  0.000  0.006
    6  0.000  0.001  0.013  0.013
    7  0.000  0.001  0.013  0.013
    8  0.000  0.001  0.013  0.013
    9  0.003  0.000  0.001  0.005
   10  0.002  0.001  0.042  0.045
   11  0.000  0.000  0.031  0.032
   12  0.002  0.001  0.042  0.045
   13  0.000  0.000  0.031  0.032
   14  0.000  0.000  0.031  0.032
   15  0.003  0.000  0.018  0.022
   16  0.002  0.001  0.042  0.045
   17  0.003  0.000  0.018  0.022
   18  0.003  0.000  0.019  0.022
   19  0.001  0.000  0.055  0.057
   20  0.001  0.000  0.012  0.013
   21  0.001  0.000  0.012  0.013
   22  0.000  0.001  0.042  0.043
   23  0.001  0.000  0.012  0.013
   24  0.000  0.001  0.042  0.043
   25  0.001  0.000  0.056  0.057
   26  0.001  0.000  0.055  0.057
   27  0.000  0.001  0.042  0.043
   28  0.001  0.000  0.022  0.023
   29  0.001  0.000  0.012  0.013
   30  0.001  0.000  0.012  0.013
   31  0.001  0.000  0.012  0.013
   32  0.001  0.000  0.012  0.013
   33  0.001  0.000  0.012  0.013
   34  0.001  0.000  0.012  0.013
   35  0.008  0.001  0.000  0.009
   36  0.002  0.000  0.000  0.002