PROCAR new format
# of k-points:   10         # of bands:  252         # of ions:   36

 k-point     1 :    0.00000000 0.00000000 0.00000000     weight = 0.01562500

band     1 # energy   -6.29368738 # occ.  2.00000000
 
ion      s      p      d    tot
    1  0.006  0.001  0.000  0.007
    2  0.006  0.001  0.000  0.007
    3  0.006  0.001  0.000  0.007
    4  0.006  0.001  0.000  0.007
    5  0.006  0.001  0.000  0.007
    6  0.006  0.001  0.000  0.007
    7  0.006  0.001  0.000  0.007
    8  0.006  0.001  0.000  0.007
    9  0.006  0.001  0.000  0.007
   10  0.024  0.000  0.000  0.024
   11  0.024  0.000  0.000  0.024
   12  0.024  0.000  0.000  0.024
   13  0.024  0.000  0.000  0.024
   14  0.024  0.000  0.000  0.024
   15  0.023  0.000  0.000  0.024
   16  0.024  0.000  0.000  0.024
   17  0.023  0.000  0.000  0.024
   18  0.023  0.000  0.000  0.024
   19  0.022  0.000  0.000  0.023
   20  0.024  0.000  0.000  0.025
   21  0.024  0.000  0.000  0.025
   22  0.022  0.000  0.000  0.023
   23  0.024  0.000  0.000  0.025
   24  0.022  0.000  0.000  0.023
   25  0.022  0.000  0.000  0.023
   26  0.022  0.000  0.000  0.023
   27  0.022  0.000  0.000  0.023
   28  0.005  0.001  0.000  0.006
   29  0.005  0.001  0.000  0.006
   30  0.005  0.001  0.000  0.006
   31  0.005  0.001  0.000  0.006
   32  0.005  0.001  0.000  0.006
   33  0.005  0.001  0.000  0.006
   34  0.005  0.001  0.000  0.006
   35  0.005  0.001  0.000  0.006
   36  0.008  0.001  0.000  0.009
tot    0.526  0.013  0.006  0.545
 
band     2 # energy   -5.42417034 # occ.  2.00000000
 
ion      s      p      d    tot
    1  0.008  0.000  0.000  0.009
    2  0.008  0.000  0.000  0.009
    3  0.008  0.000  0.000  0.009
    4  0.008  0.000  0.000  0.009
    5  0.008  0.000  0.000  0.009
    6  0.008  0.000  0.000  0.009
    7  0.008  0.000  0.000  0.009
    8  0.008  0.000  0.000  0.009
    9  0.008  0.000  0.000  0.009
   10  0.011  0.001  0.015  0.027
   11  0.011  0.001  0.015  0.026
   12  0.011  0.001  0.015  0.027
   13  0.011  0.001  0.015  0.026
   14  0.011  0.001  0.015  0.026
   15  0.011  0.001  0.014  0.025
   16  0.011  0.001  0.015  0.027
   17  0.011  0.001  0.014  0.025
   18  0.011  0.001  0.014  0.025
   19  0.012  0.001  0.016  0.028
   20  0.013  0.001  0.019  0.033
   21  0.013  0.001  0.019  0.033
   22  0.012  0.001  0.015  0.027
   23  0.013  0.001  0.019  0.033
   24  0.012  0.001  0.015  0.027
   25  0.012  0.001  0.016  0.028
   26  0.012  0.001  0.016  0.028
   27  0.012  0.001  0.015  0.027
   28  0.007  0.000  0.000  0.008
   29  0.007  0.000  0.000  0.008
   30  0.007  0.000  0.000  0.008
   31  0.007  0.000  0.000  0.008
   32  0.007  0.000  0.000  0.008
   33  0.007  0.000  0.000  0.008
   34  0.007  0.000  0.000  0.008
   35  0.007  0.000  0.000  0.007
   36  0.009  0.001  0.000  0.010
tot    0.345  0.025  0.282  0.652
 
band     3 # energy   -5.14477173 # occ.  2.00000000
 
ion      s      p      d    tot
    1  0.013  0.000  0.026  0.038
    2  0.014  0.000  0.023  0.037
    3  0.014  0.000  0.023  0.037
    4  0.014  0.000  0.023  0.037
    5  0.014  0.000  0.022  0.036
    6  0.014  0.000  0.023  0.037
    7  0.014  0.000  0.023  0.037
    8  0.014  0.000  0.023  0.037
    9  0.015  0.000  0.021  0.037
   10  0.001  0.000  0.021  0.022
   11  0.001  0.000  0.023  0.024
   12  0.001  0.000  0.021  0.022
   13  0.001  0.000  0.023  0.024
   14  0.001  0.000  0.023  0.024
   15  0.000  0.000  0.020  0.021
   16  0.001  0.000  0.021  0.022
   17  0.000  0.000  0.020  0.021
   18  0.000  0.000  0.020  0.021
   19  0.000  0.000  0.009  0.010
   20  0.000  0.000  0.016  0.016
   21  0.000  0.000  0.016  0.016
   22  0.000  0.000  0.011  0.011
   23  0.000  0.000  0.016  0.016
   24  0.000  0.000  0.011  0.011
   25  0.000  0.000  0.009  0.010
   26  0.000  0.000  0.009  0.010
   27  0.000  0.000  0.011  0.011
   28  0.006  0.000  0.008  0.014
   29  0.006  0.000  0.008  0.015
   30  0.006  0.000  0.008  0.015
   31  0.006  0.000  0.008  0.015
   32  0.006  0.000  0.008  0.015
   33  0.006  0.000  0.008  0.015
   34  0.006  0.000  0.008  0.015
   35  0.006  0.000  0.009  0.015
   36  0.008  0.000  0.001  0.010
tot    0.192  0.006  0.570  0.768
 
band     4 # energy   -5.03260783 # occ.  2.00000000
 
ion      s      p      d    tot
    1  0.009  0.001  0.002  0.011
    2  0.000  0.000  0.006  0.006
    3  0.000  0.000  0.006  0.006
    4  0.000  0.000  0.006  0.006
    5  0.000  0.000  0.005  0.005
    6  0.000  0.000  0.006  0.006
    7  0.000  0.000  0.006  0.006
    8  0.000  0.000  0.006  0.006
    9  0.001  0.001  0.004  0.005
   10  0.006  0.000  0.054  0.060
   11  0.000  0.001  0.031  0.031
   12  0.006  0.000  0.054  0.060
   13  0.000  0.001  0.031  0.031
   14  0.000  0.001  0.031  0.031
   15  0.012  0.001  0.004  0.018
   16  0.006  0.000  0.054  0.060
   17  0.012  0.001  0.004  0.018
   18  0.012  0.001  0.004  0.018
   19  0.000  0.001  0.025  0.026
   20  0.005  0.000  0.068  0.073
   21  0.005  0.000  0.068  0.073
   22  0.014  0.001  0.008  0.022
   23  0.005  0.000  0.068  0.073
   24  0.014  0.001  0.008  0.022
   25  0.000  0.001  0.025  0.026
   26  0.000  0.001  0.025  0.026
   27  0.014  0.001  0.008  0.022
   28  0.000  0.000  0.002  0.002
   29  0.000  0.000  0.006  0.006
   30  0.000  0.000  0.006  0.006
   31  0.000  0.000  0.006  0.006
   32  0.000  0.000  0.006  0.006
   33  0.000  0.000  0.006  0.006
   34  0.000  0.000  0.006  0.006
   35  0.002  0.001  0.004  0.006
   36  0.009  0.002  0.001  0.013
tot    0.137  0.017  0.653  0.808
 
band     5 # energy   -5.01236572 # occ.  2.00000000
 
ion      s      p      d    tot
    1  0.000  0.000  0.001  0.001
    2  0.000  0.000  0.003  0.003
    3  0.001  0.001  0.007  0.008
    4  0.000  0.000  0.004  0.004
    5  0.000  0.000  0.009  0.009
    6  0.001  0.000  0.004  0.006
    7  0.001  0.000  0.006  0.008
    8  0.001  0.000  0.003  0.004
    9  0.000  0.000  0.004  0.004
   10  0.001  0.000  0.028  0.029
   11  0.010  0.000  0.071  0.081
   12  0.000  0.001  0.059  0.060
   13  0.004  0.000  0.092  0.097
   14  0.026  0.001  0.009  0.035
   15  0.006  0.001  0.020  0.028
   16  0.000  0.001  0.051  0.052
   17  0.003  0.001  0.015  0.019
   18  0.017  0.000  0.037  0.054
   19  0.002  0.000  0.031  0.034
   20  0.004  0.000  0.035  0.039
   21  0.001  0.001  0.027  0.028
   22  0.003  0.001  0.025  0.028
   23  0.001  0.001  0.029  0.031
   24  0.016  0.001  0.014  0.031
   25  0.005  0.000  0.011  0.016
   26  0.001  0.000  0.038  0.039
   27  0.006  0.001  0.022  0.029
   28  0.000  0.000  0.002  0.002
   29  0.001  0.000  0.003  0.004
   30  0.000  0.000  0.002  0.002
   31  0.001  0.000  0.003  0.004
   32  0.000  0.000  0.002  0.003
   33  0.000  0.000  0.002  0.002
   34  0.001  0.000  0.003  0.004
   35  0.000  0.000  0.007  0.007
   36  0.000  0.000  0.001  0.001
tot    0.113  0.015  0.681  0.809
 
band     6 # energy   -5.01236457 # occ.  2.00000000
 
ion      s      p      d    tot
    1  0.000  0.000  0.001  0.001
    2  0.001  0.001  0.006  0.008
    3  0.000  0.000  0.002  0.003
    4  0.001  0.001  0.005  0.007
    5  0.000  0.000  0.009  0.009
    6  0.000  0.000  0.005  0.005
    7  0.000  0.000  0.003  0.003
    8  0.001  0.000  0.006  0.007
    9  0.000  0.000  0.004  0.004
   10  0.000  0.001  0.065  0.066
   11  0.017  0.001  0.043  0.061
   12  0.001  0.000  0.033  0.034
   13  0.023  0.001  0.022  0.046
   14  0.000  0.000  0.106  0.107
   15  0.011  0.001  0.028  0.039
   16  0.001  0.001  0.041  0.042
   17  0.015  0.001  0.033  0.048
   18  0.000  0.002  0.012  0.014
   19  0.003  0.000  0.022  0.026
   20  0.000  0.001  0.026  0.027
   21  0.003  0.000  0.033  0.037
   22  0.014  0.001  0.015  0.030
   23  0.002  0.001  0.031  0.034
   24  0.000  0.001  0.027  0.028
   25  0.000  0.000  0.043  0.043
   26  0.004  0.000  0.015  0.020
   27  0.010  0.001  0.018  0.030
   28  0.000  0.000  0.002  0.002
   29  0.000  0.000  0.002  0.002
   30  0.001  0.000  0.003  0.004
   31  0.000  0.000  0.002  0.003
   32  0.001  0.000  0.003  0.003
   33  0.001  0.000  0.003  0.004
   34  0.000  0.000  0.002  0.003
   35  0.000  0.000  0.007  0.007
   36  0.000  0.000  0.001  0.001
tot    0.113  0.015  0.681  0.809
 
band     7 # energy   -5.01101715 # occ.  2.00000000
 
ion      s      p      d    tot
    1  0.000  0.000  0.000  0.001
    2  0.000  0.000  0.005  0.006
    3  0.000  0.000  0.005  0.006
    4  0.000  0.000  0.005  0.006
    5  0.004  0.001  0.005  0.010
    6  0.000  0.000  0.006  0.006
    7  0.000  0.000  0.005  0.006
    8  0.000  0.000  0.005  0.006
    9  0.001  0.000  0.005  0.006
   10  0.008  0.001  0.007  0.015
   11  0.014  0.001  0.044  0.059
   12  0.007  0.001  0.007  0.015
   13  0.014  0.001  0.044  0.059
   14  0.015  0.001  0.043  0.059
   15  0.001  0.000  0.061  0.063
   16  0.007  0.001  0.007  0.015
   17  0.001  0.000  0.061  0.063
   18  0.001  0.000  0.060  0.061
   19  0.009  0.000  0.032  0.042
   20  0.006  0.001  0.015  0.023
   21  0.007  0.001  0.015  0.023
   22  0.000  0.000  0.036  0.036
   23  0.007  0.001  0.015  0.023
   24  0.000  0.000  0.036  0.036
   25  0.009  0.000  0.033  0.042
   26  0.009  0.000  0.033  0.042
   27  0.000  0.000  0.036  0.036
   28  0.003  0.001  0.003  0.007
   29  0.000  0.000  0.004  0.004
   30  0.000  0.000  0.004  0.005
   31  0.000  0.000  0.004  0.004
   32  0.000  0.000  0.004  0.005
   33  0.000  0.000  0.004  0.005
   34  0.000  0.000  0.004  0.005
   35  0.001  0.000  0.002  0.003
   36  0.000  0.000  0.000  0.000
tot    0.126  0.017  0.658  0.801
 
band     8 # energy   -5.00822057 # occ.  2.00000000
 
ion      s      p      d    tot
    1  0.000  0.000  0.010  0.010
    2  0.001  0.000  0.003  0.004
    3  0.002  0.001  0.005  0.007
    4  0.001  0.000  0.003  0.004
    5  0.000  0.000  0.003  0.003
    6  0.000  0.000  0.003  0.004
    7  0.002  0.001  0.005  0.007
    8  0.000  0.000  0.003  0.004
    9  0.000  0.000  0.003  0.003
   10  0.000  0.001  0.048  0.048
   11  0.005  0.001  0.029  0.034
   12  0.018  0.001  0.022  0.041
   13  0.005  0.001  0.029  0.034
   14  0.000  0.001  0.013  0.015
   15  0.005  0.000  0.022  0.028
   16  0.018  0.001  0.022  0.041
   17  0.005  0.000  0.022  0.027
   18  0.000  0.000  0.062  0.062
   19  0.014  0.001  0.027  0.041
   20  0.000  0.000  0.097  0.097
   21  0.017  0.001  0.028  0.045
   22  0.000  0.000  0.029  0.030
   23  0.017  0.001  0.028  0.045
   24  0.000  0.001  0.041  0.042
   25  0.000  0.002  0.019  0.021
   26  0.014  0.001  0.027  0.041
   27  0.000  0.000  0.029  0.030
   28  0.000  0.000  0.004  0.005
   29  0.001  0.000  0.004  0.006
   30  0.000  0.000  0.002  0.002
   31  0.001  0.000  0.004  0.006
   32  0.001  0.000  0.004  0.006
   33  0.000  0.000  0.002  0.002
   34  0.001  0.000  0.004  0.006
   35  0.000  0.000  0.000  0.000
   36  0.000  0.001  0.002  0.002
tot    0.126  0.017  0.660  0.803
 
band     9 # energy   -5.00821305 # occ.  2.00000000
 
ion      s      p      d    tot
    1  0.000  0.000  0.010  0.010
    2  0.001  0.000  0.004  0.006
    3  0.000  0.000  0.003  0.003
    4  0.001  0.000  0.004  0.006
    5  0.000  0.000  0.003  0.003
    6  0.001  0.000  0.004  0.006
    7  0.000  0.000  0.003  0.003
    8  0.001  0.000  0.004  0.006
    9  0.000  0.000  0.003  0.003
   10  0.024  0.001  0.014  0.039
   11  0.002  0.001  0.018  0.021
   12  0.006  0.001  0.039  0.046
   13  0.002  0.001  0.018  0.021
   14  0.006  0.000  0.035  0.041
   15  0.002  0.000  0.048  0.050
   16  0.006  0.001  0.039  0.046
   17  0.002  0.000  0.049  0.050
   18  0.006  0.001  0.009  0.016
   19  0.005  0.001  0.022  0.028
   20  0.023  0.001  0.005  0.028
   21  0.006  0.000  0.074  0.080
   22  0.000  0.001  0.037  0.038
   23  0.006  0.000  0.074  0.080
   24  0.000  0.000  0.025  0.025
   25  0.018  0.000  0.029  0.048
   26  0.004  0.001  0.022  0.028
   27  0.000  0.001  0.037  0.038
   28  0.000  0.000  0.004  0.005
   29  0.000  0.000  0.003  0.003
   30  0.001  0.001  0.005  0.007
   31  0.000  0.000  0.003  0.003
   32  0.000  0.000  0.003  0.003
   33  0.001  0.001  0.005  0.007
   34  0.000  0.000  0.003  0.003
   35  0.000  0.000  0.001  0.001
   36  0.000  0.001  0.002  0.002
tot    0.126  0.017  0.660  0.803
 
band    10 # energy   -4.98831282 # occ.  2.00000000
 
ion      s      p      d    tot
    1  0.000  0.000  0.012  0.012
    2  0.000  0.000  0.009  0.010
    3  0.000  0.000  0.009  0.010
    4  0.000  0.000  0.009  0.010
    5  0.003  0.000  0.002  0.005
    6  0.000  0.000  0.009  0.010
    7  0.000  0.000  0.009  0.010
    8  0.000  0.000  0.009  0.010
    9  0.006  0.001  0.000  0.007
   10  0.001  0.000  0.050  0.051
   11  0.001  0.000  0.044  0.045
   12  0.001  0.000  0.050  0.051
   13  0.001  0.000  0.044  0.045
   14  0.001  0.000  0.044  0.045
   15  0.004  0.000  0.009  0.013
   16  0.001  0.000  0.050  0.051
   17  0.004  0.000  0.009  0.013
   18  0.004  0.000  0.009  0.013
   19  0.003  0.000  0.011  0.014
   20  0.000  0.000  0.063  0.063
   21  0.000  0.000  0.063  0.063
   22  0.004  0.000  0.034  0.039
   23  0.000  0.000  0.063  0.063
   24  0.004  0.000  0.034  0.039
   25  0.003  0.000  0.011  0.014
   26  0.003  0.000  0.011  0.014
   27  0.004  0.000  0.034  0.039
   28  0.007  0.001  0.001  0.009
   29  0.000  0.000  0.010  0.010
   30  0.000  0.000  0.010  0.010
   31  0.000  0.000  0.010  0.010
   32  0.000  0.000  0.010  0.010
   33  0.000  0.000  0.010  0.010
   34  0.000  0.000  0.010  0.010
   35  0.000  0.000  0.011  0.011
   36  0.001  0.000  0.001  0.002
tot    0.061  0.007  0.775  0.843
 
band    11 # energy   -4.97222432 # occ.  2.00000000
 
ion      s      p      d    tot
    1  0.006  0.000  0.004  0.010
    2  0.000  0.000  0.010  0.010
    3  0.000  0.000  0.010  0.010
    4  0.000  0.000  0.010  0.010
    5  0.000  0.000  0.006  0.007
    6  0.000  0.000  0.010  0.010
    7  0.000  0.000  0.010  0.010
    8  0.000  0.000  0.010  0.010
    9  0.000  0.000  0.002  0.002
   10  0.000  0.000  0.034  0.034
   11  0.003  0.000  0.013  0.016
   12  0.000  0.000  0.034  0.034
   13  0.003  0.000  0.013  0.016
   14  0.003  0.000  0.013  0.016
   15  0.000  0.000  0.049  0.049
   16  0.000  0.000  0.034  0.034
   17  0.000  0.000  0.049  0.049
   18  0.000  0.000  0.049  0.049
   19  0.005  0.000  0.056  0.061
   20  0.002  0.001  0.008  0.011
   21  0.002  0.001  0.008  0.011
   22  0.000  0.000  0.051  0.052
   23  0.002  0.001  0.008  0.011
   24  0.000  0.000  0.051  0.052
   25  0.005  0.000  0.056  0.061
   26  0.005  0.000  0.056  0.062
   27  0.000  0.000  0.051  0.052
   28  0.000  0.000  0.020  0.021
   29  0.001  0.000  0.010  0.011
   30  0.001  0.000  0.010  0.011
   31  0.001  0.000  0.010  0.011
   32  0.001  0.000  0.010  0.011
   33  0.001  0.000  0.010  0.011
   34  0.001  0.000  0.010  0.011
   35  0.000  0.000  0.000  0.000
   36  0.008  0.001  0.000  0.009
tot    0.056  0.008  0.782  0.846
 
band    12 # energy   -4.97188478 # occ.  2.00000000
 
ion      s      p      d    tot
    1  0.000  0.000  0.016  0.017
    2  0.003  0.000  0.006  0.010
    3  0.000  0.000  0.011  0.011
    4  0.003  0.000  0.006  0.009
    5  0.000  0.000  0.011  0.011
    6  0.002  0.001  0.007  0.010
    7  0.000  0.000  0.011  0.011
    8  0.002  0.001  0.007  0.010
    9  0.000  0.000  0.006  0.006
   10  0.000  0.000  0.056  0.056
   11  0.000  0.000  0.036  0.037
   12  0.007  0.000  0.034  0.041
   13  0.000  0.000  0.037  0.037
   14  0.000  0.000  0.019  0.019
   15  0.008  0.000  0.026  0.034
   16  0.007  0.000  0.034  0.041
   17  0.008  0.000  0.026  0.034
   18  0.000  0.000  0.084  0.084
   19  0.001  0.000  0.031  0.032
   20  0.000  0.000  0.069  0.069
   21  0.006  0.000  0.023  0.029
   22  0.002  0.000  0.025  0.027
   23  0.006  0.000  0.023  0.029
   24  0.000  0.000  0.027  0.027
   25  0.000  0.000  0.027  0.027
   26  0.001  0.000  0.031  0.032
   27  0.002  0.000  0.025  0.027
   28  0.000  0.000  0.012  0.012
   29  0.001  0.000  0.006  0.007
   30  0.003  0.000  0.004  0.008
   31  0.001  0.000  0.006  0.007
   32  0.001  0.000  0.006  0.007
   33  0.003  0.000  0.004  0.007
   34  0.001  0.000  0.006  0.007
   35  0.000  0.000  0.005  0.005
   36  0.000  0.001  0.001  0.002
tot    0.067  0.009  0.763  0.839
 
band    13 # energy   -4.97187104 # occ.  2.00000000
 
ion      s      p      d    tot
    1  0.000  0.000  0.016  0.017
    2  0.001  0.001  0.010  0.011
    3  0.003  0.001  0.005  0.010
    4  0.001  0.001  0.010  0.011
    5  0.000  0.000  0.011  0.011
    6  0.001  0.000  0.009  0.010
    7  0.003  0.001  0.005  0.010
    8  0.001  0.000  0.009  0.010
    9  0.000  0.000  0.006  0.006
   10  0.009  0.000  0.027  0.036
   11  0.000  0.000  0.024  0.025
   12  0.002  0.000  0.048  0.051
   13  0.000  0.000  0.024  0.025
   14  0.000  0.000  0.043  0.043
   15  0.003  0.000  0.064  0.067
   16  0.002  0.000  0.048  0.051
   17  0.003  0.000  0.064  0.067
   18  0.011  0.000  0.007  0.017
   19  0.000  0.000  0.028  0.029
   20  0.008  0.000  0.008  0.016
   21  0.002  0.000  0.054  0.056
   22  0.001  0.000  0.026  0.027
   23  0.002  0.000  0.054  0.056
   24  0.002  0.000  0.025  0.027
   25  0.002  0.000  0.032  0.034
   26  0.000  0.000  0.028  0.029
   27  0.001  0.000  0.026  0.027
   28  0.000  0.000  0.012  0.013
   29  0.003  0.001  0.004  0.007
   30  0.000  0.000  0.007  0.007
   31  0.003  0.001  0.004  0.007
   32  0.002  0.000  0.005  0.007
   33  0.000  0.000  0.007  0.007
   34  0.002  0.000  0.005  0.007
   35  0.000  0.000  0.005  0.005
   36  0.000  0.001  0.001  0.002
tot    0.067  0.009  0.763  0.839
 
band    14 # energy   -4.95850884 # occ.  2.00000000
 
ion      s      p      d    tot
    1  0.001  0.000  0.008  0.010
    2  0.004  0.000  0.013  0.017
    3  0.004  0.000  0.013  0.017
    4  0.004  0.000  0.013  0.017
    5  0.007  0.000  0.009  0.015
    6  0.004  0.000  0.013  0.017
    7  0.004  0.000  0.013  0.017
    8  0.004  0.000  0.013  0.017
    9  0.004  0.000  0.019  0.024
   10  0.003  0.000  0.005  0.008
   11  0.001  0.000  0.006  0.006
   12  0.003  0.000  0.004  0.008
   13  0.001  0.000  0.006  0.006
   14  0.001  0.000  0.006  0.007
   15  0.001  0.000  0.017  0.018
   16  0.003  0.000  0.004  0.008
   17  0.001  0.000  0.017  0.018
   18  0.001  0.000  0.017  0.018
   19  0.001  0.001  0.016  0.018
   20  0.004  0.001  0.027  0.031
   21  0.004  0.001  0.027  0.031
   22  0.000  0.001  0.018  0.019
   23  0.004  0.001  0.027  0.031
   24  0.000  0.001  0.018  0.019
   25  0.001  0.001  0.016  0.018
   26  0.001  0.001  0.016  0.018
   27  0.000  0.001  0.018  0.019
   28  0.010  0.000  0.016  0.026
   29  0.012  0.000  0.028  0.040
   30  0.012  0.000  0.028  0.040
   31  0.012  0.000  0.028  0.040
   32  0.012  0.000  0.027  0.040
   33  0.012  0.000  0.028  0.040
   34  0.012  0.000  0.027  0.040
   35  0.021  0.000  0.029  0.050
   36  0.007  0.000  0.006  0.013
tot    0.177  0.009  0.593  0.778
 
band    15 # energy   -4.95767041 # occ.  2.00000000
 
ion      s      p      d    tot
    1  0.000  0.000  0.005  0.005
    2  0.003  0.000  0.007  0.010
    3  0.000  0.000  0.009  0.010
    4  0.003  0.000  0.007  0.010
    5  0.000  0.000  0.010  0.010
    6  0.002  0.000  0.006  0.008
    7  0.000  0.000  0.009  0.009
    8  0.002  0.000  0.007  0.008
    9  0.000  0.000  0.020  0.020
   10  0.002  0.000  0.025  0.028
   11  0.001  0.000  0.042  0.043
   12  0.001  0.000  0.021  0.022
   13  0.001  0.000  0.041  0.042
   14  0.004  0.000  0.009  0.013
   15  0.000  0.000  0.030  0.031
   16  0.001  0.000  0.021  0.022
   17  0.000  0.000  0.031  0.031
   18  0.000  0.000  0.038  0.039
   19  0.002  0.000  0.072  0.074
   20  0.001  0.000  0.050  0.051
   21  0.000  0.000  0.020  0.020
   22  0.004  0.000  0.062  0.066
   23  0.000  0.000  0.018  0.019
   24  0.014  0.000  0.021  0.036
   25  0.008  0.000  0.008  0.016
   26  0.002  0.000  0.070  0.072
   27  0.003  0.000  0.064  0.067
   28  0.000  0.000  0.004  0.004
   29  0.000  0.000  0.008  0.008
   30  0.002  0.000  0.002  0.004
   31  0.000  0.000  0.008  0.008
   32  0.001  0.001  0.008  0.009
   33  0.002  0.000  0.002  0.004
   34  0.001  0.001  0.008  0.009
   35  0.000  0.000  0.010  0.011
   36  0.000  0.000  0.001  0.001
tot    0.059  0.007  0.776  0.843
 
band    16 # energy   -4.95763145 # occ.  2.00000000
 
ion      s      p      d    tot
    1  0.000  0.000  0.005  0.005
    2  0.000  0.000  0.008  0.008
    3  0.003  0.000  0.006  0.009
    4  0.000  0.000  0.008  0.008
    5  0.000  0.000  0.010  0.010
    6  0.002  0.000  0.008  0.010
    7  0.003  0.000  0.006  0.009
    8  0.002  0.000  0.008  0.010
    9  0.000  0.000  0.020  0.020
   10  0.000  0.000  0.020  0.020
   11  0.003  0.000  0.019  0.023
   12  0.002  0.000  0.024  0.026
   13  0.003  0.000  0.020  0.024
   14  0.000  0.000  0.052  0.052
   15  0.000  0.000  0.036  0.036
   16  0.002  0.000  0.024  0.026
   17  0.000  0.000  0.035  0.036
   18  0.000  0.000  0.028  0.028
   19  0.006  0.000  0.028  0.034
   20  0.000  0.000  0.008  0.009
   21  0.001  0.000  0.039  0.040
   22  0.011  0.000  0.036  0.047
   23  0.001  0.000  0.040  0.041
   24  0.000  0.000  0.077  0.077
   25  0.000  0.000  0.092  0.092
   26  0.006  0.000  0.030  0.036
   27  0.011  0.000  0.034  0.046
   28  0.000  0.000  0.004  0.004
   29  0.002  0.001  0.004  0.006
   30  0.000  0.000  0.009  0.010
   31  0.002  0.001  0.004  0.006
   32  0.001  0.000  0.004  0.005
   33  0.000  0.000  0.009  0.010
   34  0.001  0.000  0.004  0.005
   35  0.000  0.000  0.010  0.011
   36  0.000  0.000  0.001  0.001
tot    0.059  0.007  0.776  0.843
 
band    17 # energy   -4.81649947 # occ.  2.00000000
 
ion      s      p      d    tot
    1  0.001  0.000  0.001  0.002
    2  0.000  0.000  0.007  0.008
    3  0.000  0.000  0.007  0.008
    4  0.000  0.000  0.007  0.008
    5  0.000  0.000  0.016  0.017
    6  0.000  0.000  0.007  0.008
    7  0.000  0.000  0.007  0.008
    8  0.000  0.000  0.007  0.008
    9  0.003  0.001  0.004  0.007
   10  0.001  0.000  0.019  0.020
   11  0.000  0.001  0.073  0.074
   12  0.001  0.000  0.019  0.020
   13  0.000  0.001  0.073  0.074
   14  0.000  0.001  0.072  0.073
   15  0.000  0.000  0.031  0.032
   16  0.001  0.000  0.019  0.020
   17  0.000  0.000  0.031  0.032
   18  0.000  0.000  0.031  0.032
   19  0.000  0.001  0.032  0.033
   20  0.001  0.000  0.065  0.067
   21  0.001  0.000  0.065  0.067
   22  0.001  0.000  0.015  0.016
   23  0.001  0.000  0.065  0.067
   24  0.001  0.000  0.015  0.016
   25  0.000  0.001  0.032  0.033
   26  0.000  0.001  0.032  0.033
   27  0.001  0.000  0.015  0.016
   28  0.005  0.001  0.001  0.007
   29  0.000  0.000  0.010  0.010
   30  0.000  0.000  0.010  0.010
   31  0.000  0.000  0.010  0.010
   32  0.000  0.000  0.010  0.010
   33  0.000  0.000  0.010  0.010
   34  0.000  0.000  0.010  0.010
   35  0.001  0.000  0.000  0.002
   36  0.000  0.001  0.002  0.003
tot    0.023  0.014  0.831  0.867
 
band    18 # energy   -4.80889421 # occ.  2.00000000
 
ion      s      p      d    tot
    1  0.000  0.000  0.002  0.002
    2  0.000  0.000  0.009  0.009
    3  0.001  0.001  0.005  0.007
    4  0.000  0.000  0.009  0.010
    5  0.000  0.001  0.019  0.019
    6  0.001  0.001  0.009  0.010
    7  0.001  0.001  0.005  0.007
    8  0.001  0.001  0.009  0.010
    9  0.000  0.000  0.009  0.009
   10  0.000  0.000  0.045  0.045
   11  0.002  0.000  0.056  0.058
   12  0.000  0.001  0.028  0.029
   13  0.002  0.000  0.057  0.059
   14  0.000  0.000  0.084  0.085
   15  0.002  0.001  0.029  0.031
   16  0.000  0.001  0.027  0.028
   17  0.002  0.001  0.028  0.030
   18  0.000  0.000  0.003  0.003
   19  0.002  0.001  0.031  0.034
   20  0.000  0.000  0.093  0.093
   21  0.002  0.000  0.055  0.056
   22  0.000  0.001  0.021  0.022
   23  0.002  0.000  0.053  0.055
   24  0.000  0.000  0.022  0.022
   25  0.000  0.000  0.013  0.013
   26  0.002  0.001  0.031  0.033
   27  0.000  0.001  0.021  0.022
   28  0.000  0.000  0.011  0.011
   29  0.001  0.000  0.008  0.009
   30  0.002  0.001  0.005  0.007
   31  0.001  0.000  0.008  0.009
   32  0.000  0.000  0.006  0.006
   33  0.002  0.001  0.005  0.007
   34  0.000  0.000  0.006  0.006
   35  0.000  0.000  0.001  0.001
   36  0.000  0.002  0.002  0.004
tot    0.025  0.016  0.824  0.865
 
band    19 # energy   -4.80887550 # occ.  2.00000000
 
ion      s      p      d    tot
    1  0.000  0.000  0.002  0.002
    2  0.001  0.001  0.007  0.009
    3  0.000  0.000  0.010  0.011
    4  0.001  0.001  0.006  0.009
    5  0.000  0.001  0.019  0.019
    6  0.001  0.000  0.006  0.008
    7  0.000  0.000  0.010  0.011
    8  0.001  0.000  0.007  0.008
    9  0.000  0.000  0.009  0.009
   10  0.000  0.001  0.022  0.023
   11  0.001  0.000  0.076  0.077
   12  0.000  0.000  0.039  0.039
   13  0.001  0.000  0.075  0.076
   14  0.002  0.000  0.047  0.050
   15  0.001  0.000  0.011  0.012
   16  0.000  0.000  0.039  0.040
   17  0.001  0.000  0.012  0.013
   18  0.002  0.001  0.037  0.040
   19  0.001  0.000  0.019  0.020
   20  0.002  0.000  0.041  0.043
   21  0.001  0.000  0.079  0.080
   22  0.000  0.000  0.022  0.023
   23  0.001  0.000  0.081  0.081
   24  0.000  0.001  0.020  0.022
   25  0.003  0.001  0.037  0.041
   26  0.001  0.000  0.020  0.021
   27  0.000  0.000  0.022  0.023
   28  0.000  0.000  0.011  0.011
   29  0.001  0.000  0.004  0.006
   30  0.000  0.000  0.007  0.008
   31  0.001  0.000  0.004  0.006
   32  0.002  0.001  0.006  0.008
   33  0.000  0.000  0.007  0.008
   34  0.002  0.001  0.006  0.009
   35  0.000  0.000  0.001  0.001
   36  0.000  0.002  0.002  0.004
tot    0.025  0.016  0.824  0.865
 
band    20 # energy   -4.80534250 # occ.  2.00000000
 
ion      s      p      d    tot
    1  0.001  0.001  0.006  0.008
    2  0.000  0.000  0.012  0.012
    3  0.000  0.001  0.012  0.013
    4  0.000  0.000  0.012  0.012
    5  0.004  0.001  0.000  0.005
    6  0.000  0.001  0.012  0.013
    7  0.000  0.001  0.012  0.013
    8  0.000  0.001  0.012  0.013
    9  0.001  0.000  0.005  0.006
   10  0.001  0.001  0.053  0.055
   11  0.000  0.000  0.017  0.018
   12  0.001  0.001  0.054  0.055
   13  0.000  0.000  0.017  0.018
   14  0.000  0.000  0.018  0.019
   15  0.003  0.000  0.035  0.038
   16  0.001  0.001  0.054  0.055
   17  0.003  0.000  0.035  0.038
   18  0.003  0.000  0.035  0.038
   19  0.001  0.000  0.044  0.046
   20  0.000  0.000  0.018  0.019
   21  0.000  0.000  0.019  0.019
   22  0.001  0.001  0.047  0.049
   23  0.000  0.000  0.019  0.019
   24  0.001  0.001  0.048  0.049
   25  0.001  0.000  0.044  0.046
   26  0.001  0.000  0.044  0.046
   27  0.001  0.001  0.047  0.049
   28  0.001  0.000  0.011  0.012
   29  0.000  0.000  0.010  0.011
   30  0.000  0.000  0.010  0.011
   31  0.000  0.000  0.010  0.011
   32  0.000  0.000  0.010  0.011
   33  0.000  0.000  0.010  0.011
   34  0.000  0.000  0.010  0.011
   35  0.002  0.001  0.004  0.007
   36  0.004  0.001  0.000  0.005
tot    0.033  0.017  0.809  0.858
 
band    21 # energy   -4.79277342 # occ.  2.00000000
 
ion      s      p      d    tot
    1  0.000  0.001  0.018  0.019
    2  0.000  0.000  0.009  0.009
    3  0.001  0.001  0.005  0.006
    4  0.000  0.000  0.010  0.010
    5  0.000  0.000  0.001  0.001
    6  0.001  0.001  0.010  0.012
    7  0.001  0.001  0.005  0.007
    8  0.001  0.001  0.009  0.011
    9  0.000  0.000  0.009  0.010
   10  0.002  0.000  0.056  0.059
   11  0.000  0.000  0.012  0.013
   12  0.001  0.000  0.048  0.049
   13  0.000  0.000  0.014  0.014
   14  0.000  0.001  0.028  0.029
   15  0.000  0.000  0.073  0.073
   16  0.001  0.000  0.047  0.048
   17  0.000  0.000  0.068  0.069
   18  0.001  0.000  0.026  0.027
   19  0.000  0.000  0.055  0.056
   20  0.001  0.001  0.036  0.039
   21  0.000  0.000  0.011  0.012
   22  0.001  0.000  0.048  0.049
   23  0.000  0.000  0.008  0.008
   24  0.003  0.000  0.040  0.044
   25  0.000  0.000  0.023  0.023
   26  0.000  0.000  0.052  0.052
   27  0.001  0.000  0.049  0.050
   28  0.000  0.000  0.006  0.006
   29  0.000  0.000  0.008  0.009
   30  0.001  0.001  0.004  0.006
   31  0.000  0.000  0.008  0.009
   32  0.000  0.000  0.006  0.007
   33  0.001  0.001  0.004  0.006
   34  0.000  0.000  0.006  0.006
   35  0.000  0.001  0.015  0.016
   36  0.000  0.000  0.001  0.001
tot    0.022  0.015  0.829  0.865
 
band    22 # energy   -4.79275949 # occ.  2.00000000
 
ion      s      p      d    tot
    1  0.000  0.001  0.018  0.019
    2  0.002  0.001  0.007  0.009
    3  0.000  0.000  0.011  0.012
    4  0.002  0.001  0.006  0.008
    5  0.000  0.000  0.001  0.001
    6  0.001  0.000  0.006  0.007
    7  0.000  0.000  0.011  0.012
    8  0.001  0.000  0.006  0.007
    9  0.000  0.000  0.009  0.010
   10  0.000  0.000  0.044  0.044
   11  0.000  0.001  0.024  0.025
   12  0.002  0.000  0.053  0.055
   13  0.000  0.001  0.022  0.023
   14  0.000  0.000  0.009  0.009
   15  0.001  0.000  0.039  0.039
   16  0.002  0.000  0.054  0.056