PROCAR new format
# of k-points:   10         # of bands:  252         # of ions:   37

 k-point     1 :    0.00000000 0.00000000 0.00000000     weight = 0.01562500

band     1 # energy  -10.43322878 # occ.  2.00000000
 
ion      s      p      d    tot
    1  0.000  0.000  0.000  0.000
    2  0.000  0.000  0.000  0.000
    3  0.000  0.000  0.000  0.000
    4  0.000  0.000  0.000  0.000
    5  0.000  0.000  0.000  0.000
    6  0.000  0.000  0.000  0.000
    7  0.000  0.000  0.000  0.000
    8  0.000  0.000  0.000  0.000
    9  0.000  0.000  0.000  0.000
   10  0.000  0.000  0.000  0.000
   11  0.001  0.000  0.000  0.001
   12  0.000  0.000  0.000  0.000
   13  0.001  0.000  0.000  0.001
   14  0.001  0.000  0.000  0.001
   15  0.000  0.000  0.000  0.000
   16  0.000  0.000  0.000  0.000
   17  0.000  0.000  0.000  0.000
   18  0.000  0.000  0.000  0.000
   19  0.001  0.000  0.000  0.001
   20  0.006  0.001  0.001  0.009
   21  0.006  0.001  0.001  0.009
   22  0.001  0.000  0.000  0.001
   23  0.006  0.001  0.001  0.009
   24  0.001  0.000  0.000  0.001
   25  0.001  0.000  0.000  0.001
   26  0.001  0.000  0.000  0.001
   27  0.001  0.000  0.000  0.001
   28  0.001  0.000  0.000  0.001
   29  0.003  0.000  0.000  0.003
   30  0.003  0.000  0.000  0.003
   31  0.003  0.000  0.000  0.003
   32  0.003  0.000  0.000  0.003
   33  0.003  0.000  0.000  0.003
   34  0.003  0.000  0.000  0.003
   35  0.001  0.000  0.000  0.001
   36  0.148  0.044  0.177  0.369
   37  0.369  0.030  0.000  0.400
tot    0.564  0.082  0.183  0.829
 
band     2 # energy   -9.22037552 # occ.  2.00000000
 
ion      s      p      d    tot
    1  0.007  0.001  0.000  0.008
    2  0.007  0.001  0.000  0.008
    3  0.007  0.001  0.000  0.008
    4  0.007  0.001  0.000  0.008
    5  0.007  0.001  0.000  0.008
    6  0.007  0.001  0.000  0.008
    7  0.007  0.001  0.000  0.008
    8  0.007  0.001  0.000  0.008
    9  0.007  0.001  0.000  0.008
   10  0.025  0.000  0.000  0.025
   11  0.025  0.000  0.000  0.025
   12  0.025  0.000  0.000  0.025
   13  0.025  0.000  0.000  0.025
   14  0.025  0.000  0.000  0.025
   15  0.025  0.000  0.000  0.025
   16  0.025  0.000  0.000  0.025
   17  0.025  0.000  0.000  0.025
   18  0.025  0.000  0.000  0.025
   19  0.023  0.000  0.000  0.023
   20  0.021  0.000  0.000  0.021
   21  0.021  0.000  0.000  0.021
   22  0.022  0.000  0.000  0.023
   23  0.021  0.000  0.000  0.021
   24  0.022  0.000  0.000  0.023
   25  0.023  0.000  0.000  0.023
   26  0.023  0.000  0.000  0.023
   27  0.022  0.000  0.000  0.023
   28  0.006  0.001  0.000  0.006
   29  0.005  0.001  0.000  0.005
   30  0.005  0.001  0.000  0.005
   31  0.005  0.001  0.000  0.005
   32  0.005  0.001  0.000  0.005
   33  0.005  0.001  0.000  0.005
   34  0.005  0.001  0.000  0.005
   35  0.005  0.001  0.000  0.006
   36  0.000  0.010  0.016  0.026
   37  0.028  0.001  0.000  0.029
tot    0.553  0.028  0.017  0.598
 
band     3 # energy   -7.96069996 # occ.  2.00000000
 
ion      s      p      d    tot
    1  0.017  0.001  0.000  0.018
    2  0.017  0.001  0.000  0.018
    3  0.017  0.001  0.000  0.018
    4  0.017  0.001  0.000  0.018
    5  0.017  0.001  0.000  0.018
    6  0.017  0.001  0.000  0.018
    7  0.017  0.001  0.000  0.018
    8  0.017  0.001  0.000  0.018
    9  0.017  0.001  0.000  0.018
   10  0.009  0.002  0.000  0.012
   11  0.009  0.002  0.000  0.012
   12  0.009  0.002  0.000  0.012
   13  0.009  0.002  0.000  0.012
   14  0.009  0.002  0.000  0.012
   15  0.009  0.002  0.001  0.012
   16  0.009  0.002  0.000  0.012
   17  0.009  0.002  0.001  0.012
   18  0.009  0.002  0.001  0.012
   19  0.011  0.002  0.001  0.014
   20  0.008  0.002  0.001  0.011
   21  0.008  0.002  0.001  0.011
   22  0.011  0.002  0.001  0.014
   23  0.008  0.002  0.001  0.011
   24  0.011  0.002  0.001  0.014
   25  0.011  0.002  0.001  0.013
   26  0.011  0.002  0.001  0.014
   27  0.011  0.002  0.001  0.014
   28  0.019  0.001  0.001  0.020
   29  0.018  0.001  0.001  0.020
   30  0.018  0.001  0.001  0.020
   31  0.018  0.001  0.001  0.020
   32  0.018  0.001  0.001  0.020
   33  0.018  0.001  0.001  0.020
   34  0.018  0.001  0.001  0.020
   35  0.018  0.001  0.000  0.020
   36  0.012  0.007  0.025  0.044
   37  0.015  0.001  0.000  0.015
tot    0.498  0.060  0.044  0.602
 
band     4 # energy   -6.46009676 # occ.  2.00000000
 
ion      s      p      d    tot
    1  0.014  0.000  0.005  0.019
    2  0.014  0.000  0.005  0.019
    3  0.014  0.000  0.005  0.019
    4  0.014  0.000  0.005  0.019
    5  0.008  0.000  0.005  0.014
    6  0.014  0.000  0.005  0.019
    7  0.014  0.000  0.005  0.019
    8  0.014  0.000  0.005  0.019
    9  0.021  0.000  0.003  0.025
   10  0.003  0.003  0.002  0.007
   11  0.007  0.004  0.001  0.013
   12  0.003  0.003  0.002  0.007
   13  0.007  0.004  0.001  0.013
   14  0.007  0.004  0.001  0.013
   15  0.000  0.003  0.002  0.005
   16  0.003  0.003  0.002  0.007
   17  0.000  0.003  0.002  0.005
   18  0.000  0.003  0.002  0.005
   19  0.003  0.003  0.005  0.010
   20  0.018  0.004  0.007  0.028
   21  0.018  0.004  0.007  0.028
   22  0.001  0.003  0.004  0.008
   23  0.018  0.004  0.007  0.028
   24  0.001  0.003  0.004  0.008
   25  0.003  0.003  0.005  0.010
   26  0.003  0.003  0.005  0.010
   27  0.001  0.003  0.004  0.008
   28  0.016  0.000  0.005  0.022
   29  0.017  0.000  0.008  0.025
   30  0.018  0.000  0.008  0.025
   31  0.017  0.000  0.008  0.025
   32  0.017  0.000  0.008  0.025
   33  0.018  0.000  0.008  0.025
   34  0.018  0.000  0.008  0.025
   35  0.020  0.000  0.005  0.026
   36  0.009  0.002  0.053  0.064
   37  0.000  0.002  0.000  0.002
tot    0.373  0.066  0.210  0.648
 
band     5 # energy   -6.35339161 # occ.  2.00000000
 
ion      s      p      d    tot
    1  0.000  0.002  0.004  0.006
    2  0.007  0.002  0.002  0.010
    3  0.002  0.001  0.002  0.004
    4  0.008  0.002  0.002  0.012
    5  0.000  0.002  0.003  0.006
    6  0.005  0.002  0.002  0.009
    7  0.000  0.001  0.002  0.002
    8  0.002  0.001  0.002  0.005
    9  0.000  0.000  0.002  0.002
   10  0.047  0.005  0.003  0.055
   11  0.004  0.010  0.005  0.019
   12  0.020  0.002  0.009  0.032
   13  0.014  0.007  0.005  0.026
   14  0.032  0.001  0.006  0.039
   15  0.000  0.006  0.006  0.012
   16  0.005  0.001  0.012  0.019
   17  0.001  0.004  0.005  0.010
   18  0.001  0.002  0.003  0.007
   19  0.002  0.012  0.002  0.016
   20  0.072  0.003  0.009  0.083
   21  0.031  0.003  0.014  0.048
   22  0.006  0.004  0.008  0.017
   23  0.008  0.004  0.017  0.029
   24  0.013  0.004  0.003  0.020
   25  0.017  0.001  0.006  0.023
   26  0.007  0.008  0.003  0.018
   27  0.002  0.003  0.011  0.016
   28  0.000  0.002  0.003  0.005
   29  0.010  0.003  0.004  0.017
   30  0.004  0.002  0.003  0.008
   31  0.010  0.003  0.004  0.018
   32  0.005  0.002  0.004  0.011
   33  0.001  0.001  0.003  0.004
   34  0.001  0.001  0.003  0.006
   35  0.000  0.000  0.003  0.003
   36  0.000  0.006  0.033  0.039
   37  0.000  0.001  0.000  0.001
tot    0.337  0.112  0.206  0.655
 
band     6 # energy   -6.35324366 # occ.  2.00000000
 
ion      s      p      d    tot
    1  0.000  0.002  0.004  0.006
    2  0.001  0.001  0.002  0.004
    3  0.006  0.002  0.002  0.010
    4  0.000  0.001  0.002  0.002
    5  0.000  0.002  0.003  0.006
    6  0.003  0.001  0.002  0.005
    7  0.008  0.002  0.002  0.012
    8  0.005  0.002  0.002  0.009
    9  0.000  0.000  0.002  0.002
   10  0.002  0.001  0.013  0.015
   11  0.029  0.002  0.006  0.037
   12  0.028  0.003  0.007  0.038
   13  0.019  0.005  0.006  0.030
   14  0.001  0.011  0.005  0.017
   15  0.001  0.002  0.003  0.007
   16  0.043  0.004  0.004  0.051
   17  0.001  0.004  0.004  0.009
   18  0.000  0.006  0.006  0.012
   19  0.015  0.002  0.006  0.023
   20  0.003  0.004  0.017  0.024
   21  0.043  0.003  0.012  0.058
   22  0.008  0.004  0.006  0.018
   23  0.066  0.003  0.009  0.078
   24  0.000  0.003  0.011  0.015
   25  0.001  0.013  0.001  0.015
   26  0.010  0.006  0.004  0.020
   27  0.012  0.004  0.003  0.019
   28  0.000  0.002  0.003  0.005
   29  0.000  0.001  0.003  0.004
   30  0.006  0.002  0.004  0.013
   31  0.000  0.001  0.003  0.004
   32  0.006  0.002  0.003  0.010
   33  0.009  0.003  0.004  0.017
   34  0.009  0.003  0.004  0.015
   35  0.000  0.000  0.003  0.003
   36  0.000  0.006  0.033  0.039
   37  0.000  0.001  0.000  0.001
tot    0.337  0.112  0.206  0.655
 
band     7 # energy   -6.27333139 # occ.  2.00000000
 
ion      s      p      d    tot
    1  0.000  0.001  0.002  0.004
    2  0.009  0.002  0.002  0.013
    3  0.001  0.001  0.002  0.004
    4  0.009  0.002  0.002  0.014
    5  0.000  0.000  0.004  0.004
    6  0.005  0.002  0.002  0.009
    7  0.000  0.001  0.002  0.003
    8  0.004  0.001  0.002  0.008
    9  0.000  0.003  0.005  0.008
   10  0.000  0.012  0.002  0.014
   11  0.019  0.003  0.004  0.027
   12  0.005  0.004  0.005  0.014
   13  0.016  0.003  0.006  0.025
   14  0.000  0.001  0.013  0.015
   15  0.045  0.003  0.006  0.055
   16  0.006  0.003  0.005  0.014
   17  0.040  0.004  0.007  0.050
   18  0.000  0.006  0.011  0.017
   19  0.036  0.004  0.005  0.045
   20  0.000  0.012  0.003  0.015
   21  0.000  0.004  0.005  0.009
   22  0.035  0.004  0.006  0.045
   23  0.000  0.003  0.005  0.008
   24  0.000  0.010  0.006  0.016
   25  0.000  0.000  0.017  0.017
   26  0.032  0.003  0.007  0.041
   27  0.040  0.003  0.006  0.049
   28  0.000  0.002  0.005  0.007
   29  0.013  0.003  0.003  0.018
   30  0.002  0.002  0.003  0.008
   31  0.013  0.003  0.003  0.019
   32  0.006  0.001  0.003  0.010
   33  0.001  0.002  0.003  0.006
   34  0.004  0.001  0.003  0.008
   35  0.000  0.004  0.005  0.009
   36  0.000  0.001  0.012  0.012
   37  0.000  0.000  0.000  0.000
tot    0.343  0.115  0.181  0.639
 
band     8 # energy   -6.27320716 # occ.  2.00000000
 
ion      s      p      d    tot
    1  0.000  0.001  0.002  0.004
    2  0.001  0.001  0.002  0.004
    3  0.008  0.002  0.002  0.013
    4  0.000  0.001  0.002  0.003
    5  0.000  0.000  0.004  0.004
    6  0.004  0.001  0.002  0.008
    7  0.009  0.002  0.002  0.014
    8  0.005  0.002  0.002  0.009
    9  0.000  0.003  0.005  0.008
   10  0.008  0.000  0.006  0.014
   11  0.005  0.002  0.011  0.018
   12  0.002  0.009  0.003  0.014
   13  0.007  0.002  0.010  0.020
   14  0.023  0.004  0.002  0.029
   15  0.012  0.005  0.010  0.026
   16  0.001  0.010  0.003  0.014
   17  0.017  0.005  0.009  0.031
   18  0.056  0.003  0.005  0.064
   19  0.009  0.001  0.014  0.024
   20  0.000  0.001  0.005  0.007
   21  0.000  0.009  0.004  0.012
   22  0.015  0.008  0.006  0.029
   23  0.000  0.010  0.003  0.013
   24  0.050  0.002  0.006  0.057
   25  0.044  0.005  0.002  0.051
   26  0.014  0.001  0.013  0.028
   27  0.010  0.008  0.006  0.025
   28  0.000  0.002  0.005  0.007
   29  0.000  0.001  0.003  0.005
   30  0.011  0.002  0.003  0.015
   31  0.000  0.001  0.003  0.004
   32  0.007  0.002  0.003  0.013
   33  0.012  0.002  0.003  0.017
   34  0.009  0.003  0.003  0.015
   35  0.000  0.004  0.005  0.009
   36  0.000  0.001  0.012  0.012
   37  0.000  0.000  0.000  0.000
tot    0.343  0.115  0.181  0.639
 
band     9 # energy   -6.27036184 # occ.  2.00000000
 
ion      s      p      d    tot
    1  0.001  0.001  0.001  0.003
    2  0.001  0.002  0.004  0.007
    3  0.001  0.002  0.004  0.007
    4  0.001  0.002  0.004  0.007
    5  0.029  0.003  0.000  0.032
    6  0.001  0.002  0.004  0.007
    7  0.001  0.002  0.004  0.007
    8  0.001  0.002  0.004  0.007
    9  0.001  0.001  0.002  0.004
   10  0.007  0.006  0.005  0.018
   11  0.023  0.007  0.004  0.035
   12  0.007  0.006  0.005  0.019
   13  0.023  0.007  0.004  0.035
   14  0.024  0.007  0.005  0.035
   15  0.014  0.001  0.010  0.025
   16  0.007  0.006  0.005  0.019
   17  0.014  0.001  0.010  0.025
   18  0.015  0.001  0.010  0.026
   19  0.019  0.001  0.009  0.029
   20  0.021  0.008  0.004  0.033
   21  0.021  0.008  0.004  0.033
   22  0.003  0.005  0.006  0.015
   23  0.021  0.008  0.004  0.033
   24  0.003  0.005  0.006  0.014
   25  0.020  0.001  0.009  0.030
   26  0.019  0.001  0.009  0.029
   27  0.004  0.005  0.006  0.015
   28  0.003  0.001  0.002  0.007
   29  0.001  0.002  0.005  0.008
   30  0.001  0.002  0.005  0.008
   31  0.001  0.002  0.005  0.008
   32  0.001  0.002  0.005  0.008
   33  0.001  0.002  0.005  0.008
   34  0.001  0.002  0.005  0.008
   35  0.000  0.000  0.001  0.001
   36  0.029  0.012  0.006  0.047
   37  0.009  0.000  0.000  0.009
tot    0.352  0.120  0.189  0.661
 
band    10 # energy   -6.25500194 # occ.  2.00000000
 
ion      s      p      d    tot
    1  0.021  0.003  0.000  0.024
    2  0.000  0.002  0.004  0.006
    3  0.000  0.002  0.004  0.006
    4  0.000  0.002  0.004  0.006
    5  0.000  0.000  0.000  0.001
    6  0.000  0.002  0.004  0.006
    7  0.000  0.002  0.004  0.006
    8  0.000  0.002  0.004  0.006
    9  0.011  0.002  0.001  0.015
   10  0.024  0.003  0.009  0.036
   11  0.001  0.001  0.010  0.013
   12  0.024  0.003  0.009  0.036
   13  0.001  0.001  0.010  0.013
   14  0.001  0.002  0.010  0.013
   15  0.021  0.009  0.002  0.032
   16  0.024  0.003  0.009  0.036
   17  0.021  0.009  0.002  0.032
   18  0.021  0.009  0.002  0.032
   19  0.014  0.009  0.003  0.025
   20  0.001  0.001  0.012  0.014
   21  0.001  0.001  0.012  0.015
   22  0.031  0.005  0.007  0.042
   23  0.001  0.001  0.012  0.015
   24  0.031  0.005  0.007  0.042
   25  0.014  0.009  0.003  0.025
   26  0.014  0.009  0.003  0.025
   27  0.031  0.005  0.007  0.042
   28  0.017  0.002  0.000  0.019
   29  0.000  0.002  0.004  0.006
   30  0.000  0.002  0.004  0.006
   31  0.000  0.002  0.004  0.006
   32  0.000  0.002  0.004  0.006
   33  0.000  0.002  0.004  0.006
   34  0.000  0.002  0.004  0.006
   35  0.013  0.003  0.002  0.018
   36  0.001  0.000  0.000  0.002
   37  0.001  0.000  0.000  0.001
tot    0.346  0.114  0.180  0.640
 
band    11 # energy   -5.60607746 # occ.  2.00000000
 
ion      s      p      d    tot
    1  0.006  0.001  0.011  0.017
    2  0.007  0.001  0.010  0.018
    3  0.007  0.001  0.010  0.018
    4  0.007  0.001  0.010  0.018
    5  0.003  0.001  0.010  0.014
    6  0.007  0.001  0.010  0.018
    7  0.007  0.001  0.010  0.018
    8  0.007  0.001  0.010  0.018
    9  0.014  0.000  0.009  0.023
   10  0.009  0.000  0.025  0.034
   11  0.010  0.000  0.022  0.033
   12  0.009  0.000  0.025  0.034
   13  0.010  0.000  0.022  0.033
   14  0.010  0.000  0.022  0.033
   15  0.004  0.000  0.022  0.026
   16  0.009  0.000  0.025  0.034
   17  0.004  0.000  0.022  0.026
   18  0.004  0.000  0.022  0.026
   19  0.005  0.000  0.016  0.020
   20  0.007  0.001  0.030  0.038
   21  0.007  0.001  0.030  0.038
   22  0.003  0.000  0.014  0.018
   23  0.007  0.001  0.030  0.038
   24  0.003  0.000  0.014  0.018
   25  0.005  0.000  0.016  0.020
   26  0.005  0.000  0.016  0.020
   27  0.003  0.000  0.014  0.018
   28  0.001  0.001  0.004  0.005
   29  0.002  0.000  0.006  0.009
   30  0.002  0.000  0.006  0.009
   31  0.002  0.000  0.006  0.009
   32  0.002  0.000  0.006  0.009
   33  0.002  0.000  0.006  0.009
   34  0.002  0.000  0.006  0.009
   35  0.002  0.000  0.004  0.006
   36  0.002  0.003  0.033  0.038
   37  0.001  0.002  0.000  0.003
tot    0.202  0.018  0.558  0.778
 
band    12 # energy   -5.59242053 # occ.  2.00000000
 
ion      s      p      d    tot
    1  0.000  0.001  0.009  0.010
    2  0.018  0.003  0.004  0.026
    3  0.007  0.002  0.004  0.013
    4  0.018  0.003  0.004  0.025
    5  0.000  0.002  0.008  0.010
    6  0.003  0.002  0.004  0.009
    7  0.006  0.002  0.004  0.012
    8  0.003  0.002  0.004  0.009
    9  0.000  0.005  0.008  0.013
   10  0.000  0.004  0.012  0.016
   11  0.013  0.003  0.008  0.023
   12  0.000  0.001  0.008  0.010
   13  0.012  0.003  0.009  0.023
   14  0.000  0.000  0.017  0.018
   15  0.017  0.003  0.008  0.027
   16  0.000  0.001  0.008  0.009
   17  0.016  0.003  0.008  0.027
   18  0.000  0.002  0.018  0.020
   19  0.004  0.003  0.009  0.016
   20  0.000  0.004  0.039  0.042
   21  0.001  0.001  0.017  0.019
   22  0.010  0.004  0.010  0.024
   23  0.001  0.001  0.016  0.018
   24  0.000  0.001  0.023  0.024
   25  0.000  0.000  0.008  0.008
   26  0.004  0.003  0.009  0.015
   27  0.010  0.005  0.009  0.024
   28  0.000  0.002  0.008  0.009
   29  0.023  0.004  0.008  0.035
   30  0.004  0.003  0.011  0.018
   31  0.024  0.003  0.008  0.036
   32  0.009  0.001  0.008  0.019
   33  0.003  0.003  0.011  0.017
   34  0.009  0.001  0.008  0.018
   35  0.000  0.005  0.006  0.011
   36  0.000  0.002  0.059  0.061
   37  0.000  0.001  0.000  0.001
tot    0.214  0.088  0.413  0.715
 
band    13 # energy   -5.59233022 # occ.  2.00000000
 
ion      s      p      d    tot
    1  0.000  0.001  0.009  0.010
    2  0.000  0.001  0.004  0.006
    3  0.011  0.003  0.004  0.018
    4  0.000  0.001  0.004  0.006
    5  0.000  0.002  0.008  0.010
    6  0.015  0.003  0.004  0.022
    7  0.012  0.003  0.004  0.019
    8  0.015  0.003  0.004  0.023
    9  0.000  0.005  0.008  0.013
   10  0.000  0.000  0.007  0.007
   11  0.004  0.001  0.015  0.019
   12  0.000  0.003  0.011  0.014
   13  0.004  0.001  0.014  0.020
   14  0.016  0.003  0.005  0.025
   15  0.005  0.002  0.015  0.023
   16  0.000  0.003  0.011  0.014
   17  0.006  0.002  0.015  0.023
   18  0.022  0.003  0.004  0.029
   19  0.001  0.001  0.008  0.010
   20  0.001  0.000  0.009  0.011
   21  0.000  0.003  0.031  0.034
   22  0.004  0.002  0.018  0.024
   23  0.000  0.003  0.032  0.035
   24  0.013  0.006  0.005  0.024
   25  0.005  0.004  0.009  0.018
   26  0.001  0.001  0.008  0.011
   27  0.003  0.002  0.019  0.024
   28  0.000  0.002  0.008  0.009
   29  0.001  0.001  0.010  0.012
   30  0.020  0.002  0.008  0.030
   31  0.000  0.001  0.010  0.012
   32  0.015  0.004  0.010  0.029
   33  0.021  0.002  0.008  0.031
   34  0.016  0.004  0.010  0.029
   35  0.000  0.005  0.006  0.011
   36  0.000  0.002  0.059  0.061
   37  0.000  0.001  0.000  0.001
tot    0.214  0.088  0.413  0.715
 
band    14 # energy   -5.54926290 # occ.  2.00000000
 
ion      s      p      d    tot
    1  0.000  0.006  0.009  0.015
    2  0.023  0.004  0.006  0.034
    3  0.009  0.003  0.006  0.018
    4  0.023  0.004  0.006  0.033
    5  0.000  0.005  0.011  0.016
    6  0.006  0.002  0.006  0.014
    7  0.006  0.002  0.006  0.014
    8  0.003  0.002  0.006  0.011
    9  0.000  0.000  0.012  0.012
   10  0.029  0.005  0.007  0.041
   11  0.002  0.004  0.020  0.026
   12  0.009  0.002  0.019  0.030
   13  0.004  0.003  0.018  0.025
   14  0.012  0.001  0.006  0.020
   15  0.001  0.003  0.014  0.018
   16  0.005  0.001  0.021  0.028
   17  0.001  0.003  0.013  0.017
   18  0.004  0.002  0.009  0.014
   19  0.001  0.002  0.020  0.023
   20  0.016  0.007  0.006  0.029
   21  0.005  0.002  0.016  0.023
   22  0.000  0.001  0.011  0.012
   23  0.003  0.001  0.018  0.022
   24  0.001  0.001  0.008  0.010
   25  0.007  0.002  0.004  0.013
   26  0.002  0.002  0.018  0.021
   27  0.000  0.001  0.011  0.013
   28  0.000  0.004  0.007  0.010
   29  0.017  0.004  0.006  0.027
   30  0.008  0.002  0.005  0.014
   31  0.016  0.004  0.007  0.027
   32  0.003  0.002  0.007  0.012
   33  0.005  0.001  0.005  0.011
   34  0.001  0.001  0.007  0.009
   35  0.000  0.000  0.008  0.008
   36  0.000  0.006  0.035  0.041
   37  0.000  0.001  0.000  0.001
tot    0.223  0.096  0.393  0.712
 
band    15 # energy   -5.54915416 # occ.  2.00000000
 
ion      s      p      d    tot
    1  0.000  0.006  0.009  0.015
    2  0.000  0.002  0.006  0.007
    3  0.014  0.003  0.006  0.023
    4  0.001  0.002  0.006  0.008
    5  0.000  0.005  0.011  0.016
    6  0.018  0.004  0.006  0.027
    7  0.017  0.004  0.006  0.027
    8  0.020  0.004  0.006  0.030
    9  0.000  0.000  0.012  0.012
   10  0.000  0.000  0.025  0.025
   11  0.010  0.002  0.009  0.021
   12  0.020  0.004  0.013  0.036
   13  0.008  0.002  0.012  0.022
   14  0.000  0.004  0.023  0.027
   15  0.003  0.002  0.010  0.015
   16  0.023  0.005  0.010  0.038
   17  0.003  0.002  0.011  0.016
   18  0.000  0.003  0.015  0.018
   19  0.006  0.002  0.007  0.015
   20  0.000  0.000  0.021  0.021
   21  0.011  0.005  0.011  0.026
   22  0.000  0.001  0.010  0.011
   23  0.013  0.006  0.008  0.027
   24  0.000  0.002  0.012  0.014
   25  0.000  0.001  0.024  0.026
   26  0.005  0.002  0.010  0.017
   27  0.000  0.001  0.009  0.010
   28  0.000  0.004  0.007  0.010
   29  0.000  0.001  0.006  0.006
   30  0.009  0.003  0.007  0.019
   31  0.001  0.001  0.005  0.007
   32  0.014  0.003  0.005  0.022
   33  0.012  0.003  0.007  0.022
   34  0.016  0.003  0.005  0.024
   35  0.000  0.000  0.008  0.008
   36  0.000  0.006  0.035  0.041
   37  0.000  0.001  0.000  0.001
tot    0.223  0.096  0.393  0.712
 
band    16 # energy   -5.51314136 # occ.  2.00000000
 
ion      s      p      d    tot
    1  0.028  0.003  0.000  0.032
    2  0.000  0.003  0.010  0.013
    3  0.000  0.003  0.010  0.013
    4  0.000  0.003  0.010  0.013
    5  0.033  0.004  0.001  0.037
    6  0.000  0.003  0.010  0.013
    7  0.000  0.003  0.010  0.013
    8  0.000  0.003  0.010  0.013
    9  0.000  0.000  0.000  0.000
   10  0.005  0.003  0.018  0.026
   11  0.010  0.004  0.009  0.023
   12  0.005  0.003  0.018  0.026
   13  0.010  0.004  0.010  0.023
   14  0.010  0.004  0.009  0.023
   15  0.001  0.000  0.014  0.015
   16  0.005  0.003  0.018  0.026
   17  0.001  0.000  0.014  0.015
   18  0.001  0.000  0.014  0.015
   19  0.010  0.003  0.008  0.021
   20  0.005  0.004  0.021  0.030
   21  0.005  0.004  0.021  0.030
   22  0.000  0.000  0.015  0.015
   23  0.005  0.004  0.021  0.030
   24  0.000  0.000  0.015  0.015
   25  0.010  0.003  0.008  0.021
   26  0.010  0.003  0.008  0.021
   27  0.000  0.000  0.015  0.015
   28  0.027  0.003  0.001  0.031
   29  0.000  0.003  0.013  0.016
   30  0.000  0.003  0.013  0.016
   31  0.000  0.003  0.013  0.016
   32  0.000  0.003  0.013  0.016
   33  0.000  0.003  0.013  0.016
   34  0.000  0.003  0.013  0.016
   35  0.000  0.000  0.000  0.000
   36  0.041  0.013  0.004  0.058
   37  0.008  0.000  0.000  0.008
tot    0.234  0.101  0.396  0.731
 
band    17 # energy   -5.49120509 # occ.  2.00000000
 
ion      s      p      d    tot
    1  0.015  0.001  0.000  0.016
    2  0.000  0.003  0.010  0.014
    3  0.000  0.003  0.010  0.014
    4  0.000  0.003  0.010  0.014
    5  0.011  0.001  0.000  0.012
    6  0.000  0.003  0.010  0.014
    7  0.000  0.003  0.010  0.014
    8  0.000  0.003  0.010  0.014
    9  0.038  0.005  0.001  0.045
   10  0.004  0.001  0.010  0.015
   11  0.000  0.001  0.020  0.021
   12  0.004  0.001  0.010  0.016
   13  0.000  0.001  0.020  0.021
   14  0.000  0.001  0.020  0.021
   15  0.012  0.005  0.014  0.031
   16  0.004  0.001  0.010  0.016
   17  0.012  0.005  0.014  0.031
   18  0.012  0.005  0.014  0.031
   19  0.001  0.002  0.018  0.020
   20  0.003  0.001  0.012  0.015
   21  0.003  0.001  0.012  0.015
   22  0.013  0.005  0.013  0.031
   23  0.003  0.001  0.012  0.015
   24  0.013  0.005  0.013  0.031
   25  0.001  0.002  0.018  0.020
   26  0.001  0.002  0.018  0.020
   27  0.013  0.005  0.013  0.031
   28  0.017  0.001  0.000  0.018
   29  0.000  0.003  0.010  0.013
   30  0.000  0.003  0.010  0.013
   31  0.000  0.003  0.011  0.013
   32  0.000  0.003  0.010  0.013
   33  0.000  0.003  0.010  0.013
   34  0.000  0.003  0.010  0.013
   35  0.037  0.005  0.002  0.044
   36  0.008  0.002  0.001  0.012
   37  0.002  0.000  0.000  0.002
tot    0.229  0.093  0.390  0.712
 
band    18 # energy   -4.98212515 # occ.  2.00000000
 
ion      s      p      d    tot
    1  0.000  0.001  0.025  0.026
    2  0.015  0.002  0.007  0.024
    3  0.007  0.001  0.007  0.015
    4  0.015  0.002  0.007  0.024
    5  0.000  0.001  0.012  0.013
    6  0.002  0.001  0.007  0.010
    7  0.006  0.001  0.007  0.014
    8  0.001  0.001  0.007  0.009
    9  0.000  0.003  0.004  0.008
   10  0.000  0.000  0.054  0.054
   11  0.000  0.004  0.015  0.019
   12  0.000  0.000  0.019  0.019
   13  0.000  0.003  0.014  0.018
   14  0.000  0.000  0.002  0.002
   15  0.000  0.005  0.014  0.019
   16  0.000  0.000  0.016  0.016
   17  0.000  0.005  0.015  0.019
   18  0.000  0.000  0.030  0.030
   19  0.005  0.002  0.008  0.016
   20  0.000  0.000  0.068  0.068
   21  0.000  0.000  0.031  0.031
   22  0.004  0.001  0.016  0.021
   23  0.000  0.000  0.027  0.028
   24  0.000  0.000  0.011  0.012
   25  0.000  0.000  0.018  0.019
   26  0.004  0.002  0.009  0.016
   27  0.004  0.001  0.016  0.022
   28  0.000  0.001  0.001  0.002
   29  0.004  0.000  0.018  0.022
   30  0.001  0.001  0.016  0.019
   31  0.005  0.000  0.018  0.023
   32  0.011  0.001  0.016  0.027
   33  0.002  0.001  0.016  0.019
   34  0.011  0.001  0.016  0.027
   35  0.000  0.000  0.008  0.009
   36  0.000  0.000  0.087  0.087
   37  0.000  0.003  0.000  0.003
tot    0.099  0.046  0.664  0.808
 
band    19 # energy   -4.98204860 # occ.  2.00000000
 
ion      s      p      d    tot
    1  0.000  0.001  0.025  0.026
    2  0.000  0.001  0.007  0.008
    3  0.009  0.001  0.007  0.017
    4  0.001  0.001  0.007  0.008
    5  0.000  0.001  0.012  0.013
    6  0.014  0.002  0.007  0.022
    7  0.010  0.001  0.007  0.018
    8  0.014  0.002  0.007  0.023
    9  0.000  0.003  0.004  0.008
   10  0.000  0.000  0.005  0.005
   11  0.000  0.001  0.006  0.007
   12  0.000  0.000  0.041  0.041
   13  0.000  0.001  0.007  0.008
   14  0.000  0.005  0.019  0.023
   15  0.000  0.001  0.025  0.027
   16  0.000  0.000  0.044  0.044
   17  0.000  0.002  0.024  0.026
   18  0.000  0.006  0.009  0.015
   19  0.001  0.001  0.016  0.018
   20  0.000  0.000  0.016  0.016
   21  0.000  0.000  0.053  0.054
   22  0.002  0.001  0.013  0.015
   23  0.000  0.000  0.057  0.057
   24  0.006  0.002  0.018  0.025
   25  0.006  0.003  0.006  0.015
   26  0.002  0.001  0.015  0.018
   27  0.001  0.001  0.013  0.014
   28  0.000  0.001  0.001  0.002
   29  0.007  0.001  0.015  0.023
   30  0.010  0.000  0.017  0.027
   31  0.006  0.001  0.015  0.023
   32  0.000  0.001  0.018  0.018
   33  0.010  0.000  0.017  0.027
   34  0.000  0.001  0.018  0.019
   35  0.000  0.000  0.008  0.009
   36  0.000  0.000  0.087  0.087
   37  0.000  0.003  0.000  0.003
tot    0.099  0.046  0.664  0.808
 
band    20 # energy   -4.85826440 # occ.  2.00000000
 
ion      s      p      d    tot
    1  0.015  0.001  0.000  0.016
    2  0.000  0.001  0.014  0.015
    3  0.000  0.001  0.014  0.015
    4  0.000  0.001  0.014  0.015
    5  0.021  0.001  0.002  0.024
    6  0.000  0.001  0.014  0.015
    7  0.000  0.001  0.014  0.015
    8  0.000  0.001  0.014  0.015
    9  0.000  0.000  0.000  0.001
   10  0.000  0.001  0.018  0.018
   11  0.000  0.002  0.032  0.035
   12  0.000  0.001  0.018  0.018
   13  0.000  0.002  0.032  0.035
   14  0.000  0.002  0.032  0.035
   15  0.000  0.001  0.005  0.006
   16  0.000  0.001  0.018  0.018
   17  0.000  0.001  0.005  0.006
   18  0.000  0.001  0.005  0.006
   19  0.002  0.001  0.009  0.011
   20  0.001  0.003  0.034  0.038
   21  0.001  0.003  0.034  0.037
   22  0.000  0.002  0.029  0.030
   23  0.001  0.003  0.034  0.037
   24  0.000  0.002  0.029  0.030
   25  0.002  0.001  0.009  0.011
   26  0.002  0.001  0.009  0.011
   27  0.000  0.002  0.029  0.030
   28  0.002  0.000  0.005  0.007
   29  0.000  0.002  0.026  0.029
   30  0.000  0.002  0.026  0.029
   31  0.000  0.002  0.026  0.029
   32  0.000  0.002  0.026  0.029
   33  0.000  0.002  0.026  0.029
   34  0.000  0.002  0.026  0.029
   35  0.033  0.001  0.002  0.036
   36  0.024  0.000  0.030  0.054
   37  0.000  0.001  0.000  0.001
tot    0.104  0.054  0.657  0.815
 
band    21 # energy   -4.83114312 # occ.  2.00000000
 
ion      s      p      d    tot
    1  0.000  0.001  0.002  0.003
    2  0.011  0.001  0.006  0.018
    3  0.006  0.001  0.006  0.013
    4  0.009  0.001  0.006  0.016
    5  0.000  0.002  0.011  0.013
    6  0.003  0.001  0.006  0.009
    7  0.003  0.001  0.006  0.009
    8  0.000  0.001  0.006  0.007
    9  0.000  0.000  0.022  0.022
   10  0.001  0.005  0.017  0.023
   11  0.000  0.000  0.032  0.032
   12  0.000  0.002  0.009  0.011
   13  0.000  0.001  0.022  0.023
   14  0.000  0.002  0.005  0.007
   15  0.000  0.000  0.022  0.022
   16  0.000  0.001  0.004  0.005
   17  0.000  0.000  0.016  0.016
   18  0.000  0.001  0.005  0.006
   19  0.000  0.000  0.056  0.057
   20  0.001  0.004  0.041  0.046
   21  0.001  0.002  0.021  0.023
   22  0.000  0.001  0.014  0.015
   23  0.000  0.000  0.011  0.011
   24  0.000  0.002  0.013  0.016
   25  0.000  0.001  0.003  0.003
   26  0.000  0.000  0.037  0.038
   27  0.000  0.000  0.014  0.014
   28  0.000  0.002  0.043  0.045
   29  0.013  0.001  0.016  0.031
   30  0.001  0.001  0.013  0.014
   31  0.021  0.001  0.018  0.039
   32  0.022  0.001  0.016  0.039
   33  0.001  0.002  0.012  0.014
   34  0.015  0.002  0.014  0.031
   35  0.000  0.001  0.030  0.031
   36  0.000  0.008  0.044  0.052