 vasp.6.2.0 18Jan21 (build Jun 12 2021 23:27:24) complex                        
  
 executed on             LinuxIFC date 2022.05.26  19:30:28
 running on   28 total cores
 distrk:  each k-point on   28 cores,    1 groups
 distr:  one band on NCORE=   1 cores,   28 groups


--------------------------------------------------------------------------------------------------------


 INCAR:
   ISMEAR = -5
   SIGMA = 0.1
   ISPIN = 1
   EDIFF = 1.d-5
   EDIFFG = -0.01
   NSW = 0
   NELM = 150
   ENCUT = 500
   ISIF = 2
   IBRION = 2
   LREAL = Auto
   ALGO = Fast
   ICHARG = 11
   LORBIT = 10
   LCHARG = .F.
   LWAVE = .F.

 POTCAR:    PAW_PBE Au 04Oct2007                  
 POTCAR:    PAW_PBE Hf 20Jan2003                  
 POTCAR:    PAW_PBE O 08Apr2002                   
 -----------------------------------------------------------------------------
|                                                                             |
|           W    W    AA    RRRRR   N    N  II  N    N   GGGG   !!!           |
|           W    W   A  A   R    R  NN   N  II  NN   N  G    G  !!!           |
|           W    W  A    A  R    R  N N  N  II  N N  N  G       !!!           |
|           W WW W  AAAAAA  RRRRR   N  N N  II  N  N N  G  GGG   !            |
|           WW  WW  A    A  R   R   N   NN  II  N   NN  G    G                |
|           W    W  A    A  R    R  N    N  II  N    N   GGGG   !!!           |
|                                                                             |
|     For optimal performance we recommend to set                             |
|       NCORE = 2 up to number-of-cores-per-socket                            |
|     NCORE specifies how many cores store one orbital (NPAR=cpu/NCORE).      |
|     This setting can greatly improve the performance of VASP for DFT.       |
|     The default, NCORE=1 might be grossly inefficient on modern             |
|     multi-core architectures or massively parallel machines. Do your        |
|     own testing! More info at https://www.vasp.at/wiki/index.php/NCORE      |
|     Unfortunately you need to use the default for GW and RPA                |
|     calculations (for HF NCORE is supported but not extensively tested      |
|     yet).                                                                   |
|                                                                             |
 -----------------------------------------------------------------------------

 POTCAR:    PAW_PBE Au 04Oct2007                  
   VRHFIN =Au: s1d10                                                                                
   LEXCH  = PE                                                                                      
   EATOM  =   926.0867 eV,   68.0654 Ry                                                             
                                                                                                    
   TITEL  = PAW_PBE Au 04Oct2007                                                                    
   LULTRA =        F    use ultrasoft PP ?                                                          
   IUNSCR =        1    unscreen: 0-lin 1-nonlin 2-no                                               
   RPACOR =    2.330    partial core radius                                                         
   POMASS =  196.966; ZVAL   =   11.000    mass and valenz                                          
   RCORE  =    2.500    outmost cutoff radius                                                       
   RWIGS  =    2.840; RWIGS  =    1.503    wigner-seitz radius (au A)                               
   ENMAX  =  229.943; ENMIN  =  172.457 eV                                                          
   ICORE  =        3    local potential                                                             
   LCOR   =        T    correct aug charges                                                         
   LPAW   =        T    paw PP                                                                      
   EAUG   =  356.670                                                                                
   DEXC   =    0.000                                                                                
   RMAX   =    2.562    core radius for proj-oper                                                   
   RAUG   =    1.300    factor for augmentation sphere                                              
   RDEP   =    2.598    radius for radial grids                                                     
   RDEPT  =    2.193    core radius for aug-charge                                                  
                                                                                                    
   Atomic configuration                                                                             
   16 entries                                                                                       
     n  l   j            E        occ.                                                              
     1  0  0.50    -80748.5001   2.0000                                                             
     2  0  0.50    -14244.7466   2.0000                                                             
     2  1  1.50    -12310.9591   6.0000                                                             
     3  0  0.50     -3362.1768   2.0000                                                             
     3  1  1.50     -2801.5463   6.0000                                                             
     3  2  2.50     -2203.8206  10.0000                                                             
     4  0  0.50      -729.8168   2.0000                                                             
     4  1  1.50      -546.0527   6.0000                                                             
     4  2  2.50      -325.7302  10.0000                                                             
     4  3  3.50       -81.1472  14.0000                                                             
     5  0  0.50      -108.3201   2.0000                                                             
     5  1  1.50       -59.7479   6.0000                                                             
     5  2  2.50        -6.8783  10.0000                                                             
     6  0  0.50        -5.7602   1.0000                                                             
     6  1  1.50        -6.8029   0.0000                                                             
     5  3  2.50        -1.3606   0.0000                                                             
   Description                                                                                      
     l       E           TYP  RCUT    TYP  RCUT                                                     
     2     -6.8782861     23  2.500                                                                 
     2     -8.2388687     23  2.500                                                                 
     0     -5.7601759     23  2.500                                                                 
     0     -0.8493231     23  2.500                                                                 
     1     -2.7211652     23  2.500                                                                 
     1     27.2116520     23  2.500                                                                 
     3     -1.3605826     23  2.500                                                                 
  local pseudopotential read in
  partial core-charges read in
  partial kinetic energy density read in
  atomic valenz-charges read in
  non local Contribution for L=           2  read in
    real space projection operators read in
  non local Contribution for L=           2  read in
    real space projection operators read in
  non local Contribution for L=           0  read in
    real space projection operators read in
  non local Contribution for L=           0  read in
    real space projection operators read in
  non local Contribution for L=           1  read in
    real space projection operators read in
  non local Contribution for L=           1  read in
    real space projection operators read in
    PAW grid and wavefunctions read in
 
   number of l-projection  operators is LMAX  =           6
   number of lm-projection operators is LMMAX =          18
 
 POTCAR:    PAW_PBE Hf 20Jan2003                  
   VRHFIN =Hf: 6s5d                                                                                 
   LEXCH  = PE                                                                                      
   EATOM  =    75.9011 eV,    5.5786 Ry                                                             
                                                                                                    
   TITEL  = PAW_PBE Hf 20Jan2003                                                                    
   LULTRA =        F    use ultrasoft PP ?                                                          
   IUNSCR =        1    unscreen: 0-lin 1-nonlin 2-no                                               
   RPACOR =    2.500    partial core radius                                                         
   POMASS =  178.490; ZVAL   =    4.000    mass and valenz                                          
   RCORE  =    3.000    outmost cutoff radius                                                       
   RWIGS  =    3.050; RWIGS  =    1.614    wigner-seitz radius (au A)                               
   ENMAX  =  220.334; ENMIN  =  165.250 eV                                                          
   RCLOC  =    2.212    cutoff for local pot                                                        
   LCOR   =        T    correct aug charges                                                         
   LPAW   =        T    paw PP                                                                      
   EAUG   =  335.116                                                                                
   DEXC   =    0.000                                                                                
   RMAX   =    3.077    core radius for proj-oper                                                   
   RAUG   =    1.300    factor for augmentation sphere                                              
   RDEP   =    3.047    radius for radial grids                                                     
   RDEPT  =    2.344    core radius for aug-charge                                                  
                                                                                                    
   Atomic configuration                                                                             
   16 entries                                                                                       
     n  l   j            E        occ.                                                              
     1  0  0.50    -65259.4397   2.0000                                                             
     2  0  0.50    -11157.9882   2.0000                                                             
     2  1  1.50     -9795.2113   6.0000                                                             
     3  0  0.50     -2541.4058   2.0000                                                             
     3  1  1.50     -2134.4770   6.0000                                                             
     3  2  2.50     -1653.5418  10.0000                                                             
     4  0  0.50      -510.9575   2.0000                                                             
     4  1  1.50      -377.5023   6.0000                                                             
     4  2  2.50      -205.2085  10.0000                                                             
     4  3  3.50       -15.4905  14.0000                                                             
     5  0  0.50       -65.6020   2.0000                                                             
     5  1  1.50       -34.2798   6.0000                                                             
     5  2  2.50        -1.9877   3.0000                                                             
     6  0  0.50        -4.7357   1.0000                                                             
     6  1  1.50        -1.3606   0.0000                                                             
     5  3  2.50        -1.3606   0.0000                                                             
   Description                                                                                      
     l       E           TYP  RCUT    TYP  RCUT                                                     
     2     -1.9876627     23  2.500                                                                 
     2      0.0744703     23  2.500                                                                 
     0     -4.7356889     23  2.600                                                                 
     0      3.2364747     23  2.600                                                                 
     1     -1.3605826     23  3.000                                                                 
     1     27.2116520     23  3.000                                                                 
  local pseudopotential read in
  partial core-charges read in
  partial kinetic energy density read in
  atomic valenz-charges read in
  non local Contribution for L=           2  read in
    real space projection operators read in
  non local Contribution for L=           2  read in
    real space projection operators read in
  non local Contribution for L=           0  read in
    real space projection operators read in
  non local Contribution for L=           0  read in
    real space projection operators read in
  non local Contribution for L=           1  read in
    real space projection operators read in
  non local Contribution for L=           1  read in
    real space projection operators read in
    PAW grid and wavefunctions read in
 
   number of l-projection  operators is LMAX  =           6
   number of lm-projection operators is LMMAX =          18
 
 POTCAR:    PAW_PBE O 08Apr2002                   
   VRHFIN =O: s2p4                                                                                  
   LEXCH  = PE                                                                                      
   EATOM  =   432.3788 eV,   31.7789 Ry                                                             
                                                                                                    
   TITEL  = PAW_PBE O 08Apr2002                                                                     
   LULTRA =        F    use ultrasoft PP ?                                                          
   IUNSCR =        1    unscreen: 0-lin 1-nonlin 2-no                                               
   RPACOR =    1.200    partial core radius                                                         
   POMASS =   16.000; ZVAL   =    6.000    mass and valenz                                          
   RCORE  =    1.520    outmost cutoff radius                                                       
   RWIGS  =    1.550; RWIGS  =    0.820    wigner-seitz radius (au A)                               
   ENMAX  =  400.000; ENMIN  =  300.000 eV                                                          
   ICORE  =        2    local potential                                                             
   LCOR   =        T    correct aug charges                                                         
   LPAW   =        T    paw PP                                                                      
   EAUG   =  605.392                                                                                
   DEXC   =    0.000                                                                                
   RMAX   =    1.553    core radius for proj-oper                                                   
   RAUG   =    1.300    factor for augmentation sphere                                              
   RDEP   =    1.550    radius for radial grids                                                     
   RDEPT  =    1.329    core radius for aug-charge                                                  
                                                                                                    
   Atomic configuration                                                                             
    4 entries                                                                                       
     n  l   j            E        occ.                                                              
     1  0  0.50      -514.6923   2.0000                                                             
     2  0  0.50       -23.9615   2.0000                                                             
     2  1  0.50        -9.0305   4.0000                                                             
     3  2  1.50        -9.5241   0.0000                                                             
   Description                                                                                      
     l       E           TYP  RCUT    TYP  RCUT                                                     
     0    -23.9615318     23  1.200                                                                 
     0     -9.5240782     23  1.200                                                                 
     1     -9.0304911     23  1.520                                                                 
     1      8.1634956     23  1.520                                                                 
     2     -9.5240782      7  1.500                                                                 
  local pseudopotential read in
  partial core-charges read in
  partial kinetic energy density read in
  kinetic energy density of atom read in
  atomic valenz-charges read in
  non local Contribution for L=           0  read in
    real space projection operators read in
  non local Contribution for L=           0  read in
    real space projection operators read in
  non local Contribution for L=           1  read in
    real space projection operators read in
  non local Contribution for L=           1  read in
    real space projection operators read in
    PAW grid and wavefunctions read in
 
   number of l-projection  operators is LMAX  =           4
   number of lm-projection operators is LMMAX =           8
 
 Optimization of the real space projectors (new method)

 maximal supplied QI-value         = 15.12
 optimisation between [QCUT,QGAM] = [ 11.34, 22.83] = [ 36.00,145.93] Ry 
 Optimized for a Real-space Cutoff    1.39 Angstroem

   l    n(q)    QCUT    max X(q) W(low)/X(q) W(high)/X(q)  e(spline) 
   2      9    11.338    60.898    0.39E-03    0.42E-03    0.21E-06
   2      9    11.338    58.894    0.40E-03    0.42E-03    0.22E-06
   0      9    11.338   109.617    0.13E-03    0.20E-04    0.13E-06
   0      9    11.338    75.026    0.13E-03    0.20E-04    0.13E-06
   1      9    11.338    16.344    0.33E-04    0.24E-03    0.18E-06
   1      9    11.338    10.160    0.26E-04    0.19E-03    0.15E-06
 Optimization of the real space projectors (new method)

 maximal supplied QI-value         = 12.47
 optimisation between [QCUT,QGAM] = [ 11.35, 22.82] = [ 36.07,145.88] Ry 
 Optimized for a Real-space Cutoff    1.66 Angstroem

   l    n(q)    QCUT    max X(q) W(low)/X(q) W(high)/X(q)  e(spline) 
   2     10    11.350    48.111    0.20E-03    0.11E-03    0.41E-06
   2     10    11.350    40.545    0.19E-03    0.10E-03    0.39E-06
   0     11    11.350   121.658    0.22E-04    0.19E-04    0.24E-06
   0     11    11.350    71.177    0.17E-04    0.17E-04    0.23E-06
   1     11    11.350    14.183    0.25E-03    0.43E-03    0.12E-05
   1     11    11.350     8.257    0.17E-03    0.29E-03    0.81E-06
 Optimization of the real space projectors (new method)

 maximal supplied QI-value         = 24.76
 optimisation between [QCUT,QGAM] = [ 11.39, 22.77] = [ 36.31,145.25] Ry 
 Optimized for a Real-space Cutoff    1.00 Angstroem

   l    n(q)    QCUT    max X(q) W(low)/X(q) W(high)/X(q)  e(spline) 
   0      7    11.387    20.381    0.39E-03    0.13E-02    0.15E-06
   0      7    11.387    15.268    0.42E-03    0.14E-02    0.17E-06
   1      6    11.387     5.964    0.41E-03    0.11E-02    0.17E-06
   1      6    11.387     5.382    0.39E-03    0.87E-03    0.15E-06
  PAW_PBE Au 04Oct2007                  :
 energy of atom  1       EATOM= -926.0867
 kinetic energy error for atom=    0.0042 (will be added to EATOM!!)
  PAW_PBE Hf 20Jan2003                  :
 energy of atom  2       EATOM=  -75.9011
 kinetic energy error for atom=    0.0007 (will be added to EATOM!!)
  PAW_PBE O 08Apr2002                   :
 energy of atom  3       EATOM= -432.3788
 kinetic energy error for atom=    0.0224 (will be added to EATOM!!)
 
 
 POSCAR: Au-Hf-O
  positions in direct lattice
  velocities in cartesian coordinates
 exchange correlation table for  LEXCH =        8
   RHO(1)=    0.500       N(1)  =     2000
   RHO(2)=  100.500       N(2)  =     4000

 VTST: version 3.2, (02/03/18)

 CHAIN: initializing optimizer
 
 OPT: Using VASP Conjugate-Gradient optimizer
 CHAIN: Read ICHAIN            0
 
 POSCAR: Au-Hf-O
  positions in direct lattice
  velocities in cartesian coordinates
 


--------------------------------------------------------------------------------------------------------


 ion  position               nearest neighbor table
   1  0.000  0.000  0.238-  16 2.94  12 2.94   6 2.94   8 2.94   7 2.94   3 2.94  10 2.94   4 2.94
                             2 2.94
   2  0.333  0.000  0.238-   9 2.94  11 2.94  17 2.94  10 2.94   8 2.94   4 2.94   5 2.94   1 2.94
                             3 2.94
   3  0.667  0.000  0.238-   7 2.94  18 2.94  12 2.94   1 2.94  11 2.94   5 2.94   6 2.94   9 2.94
                             2 2.94
   4  0.000  0.333  0.238-  10 2.94   6 2.94   5 2.94  13 2.94   2 2.94  15 2.94   9 2.94   1 2.94
                             7 2.94
   5  0.333  0.333  0.238-  13 2.94   7 2.94  11 2.94   4 2.94   2 2.94  14 2.94   3 2.94   8 2.94
                             6 2.94
   6  0.667  0.333  0.238-  15 2.94  14 2.94   1 2.94  12 2.94   4 2.94   9 2.94   8 2.94   3 2.94
                             5 2.94
   7  0.000  0.667  0.238-  18 2.94   3 2.94  16 2.94   5 2.94   1 2.94  13 2.94   8 2.94   4 2.94
                             9 2.94
   8  0.333  0.667  0.238-   9 2.94  17 2.94   1 2.94   2 2.94  14 2.94  16 2.94   6 2.94   7 2.94
                             5 2.94
   9  0.667  0.667  0.238-   2 2.94   8 2.94  17 2.94   6 2.94  15 2.94   4 2.94   3 2.94  18 2.94
                             7 2.94
  10  0.111  0.111  0.346-  20 2.93  26 2.94  19 2.94  11 2.94  17 2.94   2 2.94   4 2.94   1 2.94
                            12 2.94  16 2.94  13 2.94  15 2.94
  11  0.444  0.111  0.346-  20 2.92  21 2.92  13 2.94   2 2.94  10 2.94  17 2.94   5 2.94   3 2.94
                            18 2.94  14 2.94  12 2.94  27 2.94
  12  0.778  0.111  0.346-  21 2.93  25 2.94  19 2.94  16 2.94  18 2.94   1 2.94  14 2.94  15 2.94
                             3 2.94   6 2.94  10 2.94  11 2.94
  13  0.111  0.444  0.346-  23 2.92  20 2.92   5 2.94  18 2.94  11 2.94   7 2.94   4 2.94  16 2.94
                            10 2.94  14 2.94  15 2.94  22 2.94
  14  0.444  0.444  0.346-  21 2.92  23 2.92  15 2.94   6 2.94  12 2.94   8 2.94  17 2.94   5 2.94
                            16 2.94  13 2.94  11 2.94  24 2.94
  15  0.778  0.444  0.346-  24 2.93  22 2.93  19 2.94  14 2.94   6 2.94  17 2.94  12 2.94   9 2.94
                             4 2.94  10 2.94  13 2.94  18 2.94
  16  0.111  0.778  0.346-  23 2.93  25 2.94  26 2.94  18 2.94  12 2.94   7 2.94   1 2.94   8 2.94
                            13 2.94  10 2.94  14 2.94  17 2.94
  17  0.444  0.778  0.346-  27 2.93  24 2.93  26 2.94   9 2.94  15 2.94   2 2.94  10 2.94  11 2.94
                             8 2.94  14 2.94  16 2.94  18 2.94
  18  0.778  0.778  0.346-  22 2.93  27 2.93  25 2.94  16 2.94   7 2.94  13 2.94  12 2.94   3 2.94
                            11 2.94   9 2.94  15 2.94  17 2.94
  19  0.889  0.222  0.454-  15 2.94  10 2.94  12 2.94  24 2.94  22 2.94  26 2.94  25 2.94  21 2.94
                            20 2.94  28 2.96  32 3.04  31 3.04
  20  0.223  0.223  0.453-  36 2.81  11 2.92  13 2.92  23 2.93  21 2.93  10 2.93  26 2.94  19 2.94
                            27 2.95  22 2.95  29 2.99  31 2.99
  21  0.555  0.223  0.453-  36 2.81  14 2.92  11 2.92  20 2.93  23 2.93  12 2.93  25 2.94  19 2.94
                            27 2.95  24 2.95  30 2.99  32 2.99
  22  0.887  0.556  0.454-  24 2.92  27 2.92  18 2.93  15 2.93  25 2.94  19 2.94  13 2.94  23 2.95
                            20 2.95  35 2.96  33 3.01  31 3.01
  23  0.223  0.555  0.453-  36 2.81  13 2.92  14 2.92  20 2.93  21 2.93  16 2.93  25 2.94  26 2.94
                            22 2.95  24 2.95  33 2.99  34 2.99
  24  0.556  0.556  0.454-  27 2.92  22 2.92  15 2.93  17 2.93  26 2.94  19 2.94  14 2.94  21 2.95
                            23 2.95  35 2.96  32 3.01  34 3.01
  25  0.889  0.889  0.454-  18 2.94  16 2.94  12 2.94  22 2.94  27 2.94  19 2.94  26 2.94  23 2.94
                            21 2.94  28 2.96  33 3.04  30 3.04
  26  0.222  0.889  0.454-  17 2.94  10 2.94  16 2.94  27 2.94  24 2.94  19 2.94  25 2.94  20 2.94
                            23 2.94  28 2.96  29 3.04  34 3.04
  27  0.556  0.887  0.454-  24 2.92  22 2.92  17 2.93  18 2.93  26 2.94  25 2.94  11 2.94  20 2.95
                            21 2.95  35 2.96  29 3.01  30 3.01
  28  0.000  0.000  0.563-  25 2.96  19 2.96  26 2.96  34 2.98  32 2.98  33 2.98  30 2.98  31 2.98
                            29 2.98
  29  0.334  0.008  0.566-  30 2.86  31 2.87  36 2.88  35 2.97  28 2.98  20 2.99  27 3.01  26 3.04
                            34 3.08
  30  0.658  0.008  0.566-  29 2.86  32 2.87  36 2.88  35 2.97  28 2.98  21 2.99  27 3.01  25 3.04
                            33 3.08
  31  0.008  0.334  0.566-  33 2.86  29 2.87  36 2.88  35 2.97  28 2.98  20 2.99  22 3.01  19 3.04
                            32 3.08
  32  0.658  0.334  0.566-  34 2.86  30 2.87  36 2.88  35 2.97  28 2.98  21 2.99  24 3.01  19 3.04
                            31 3.08
  33  0.008  0.658  0.566-  31 2.86  34 2.87  36 2.88  35 2.97  28 2.98  23 2.99  22 3.01  25 3.04
                            30 3.08
  34  0.334  0.658  0.566-  32 2.86  33 2.87  36 2.88  35 2.97  28 2.98  23 2.99  24 3.01  26 3.04
                            29 3.08
  35  0.667  0.667  0.564-  24 2.96  27 2.96  22 2.96  29 2.97  34 2.97  32 2.97  31 2.97  30 2.97
                            33 2.97
  36  0.333  0.333  0.555-  37 1.81  20 2.81  23 2.81  21 2.81  33 2.88  31 2.88  29 2.88  30 2.88
                            34 2.88  32 2.88
  37  0.333  0.333  0.636-  36 1.81
 
  LATTYP: Found a hexagonal cell.
 ALAT       =     8.8135128021
 C/A-ratio  =     2.5184286595
  
  Lattice vectors:
  
 A1 = (  -4.4067569092,  -7.6327256898,   0.0000000000)
 A2 = (   8.8135128021,   0.0000000000,   0.0000000000)
 A3 = (   0.0000000000,   0.0000000000,  22.1962032318)


Analysis of symmetry for initial positions (statically):
=====================================================================
 Subroutine PRICEL returns:
 Original cell was already a primitive cell.
 

 Routine SETGRP: Setting up the symmetry group for a 
 hexagonal supercell.


 Subroutine GETGRP returns: Found  6 space group operations
 (whereof  6 operations were pure point group operations)
 out of a pool of 24 trial point group operations.


The static configuration has the point symmetry C_3v.


Analysis of symmetry for dynamics (positions and initial velocities):
=====================================================================
 Subroutine PRICEL returns:
 Original cell was already a primitive cell.
 

 Routine SETGRP: Setting up the symmetry group for a 
 hexagonal supercell.


 Subroutine GETGRP returns: Found  6 space group operations
 (whereof  6 operations were pure point group operations)
 out of a pool of 24 trial point group operations.


The dynamic configuration has the point symmetry C_3v.


Analysis of constrained symmetry for selective dynamics:
=====================================================================
 Subroutine PRICEL returns:
 Original cell was already a primitive cell.
 

 Routine SETGRP: Setting up the symmetry group for a 
 hexagonal supercell.


 Subroutine GETGRP returns: Found  6 space group operations
 (whereof  6 operations were pure point group operations)
 out of a pool of 24 trial point group operations.


The constrained configuration has the point symmetry C_3v.


 Subroutine INISYM returns: Found  6 space group operations
 (whereof  6 operations are pure point group operations),
 and found     1 'primitive' translations


----------------------------------------------------------------------------------------

                                     Primitive cell                                     

  volume of cell :    1493.1636

  direct lattice vectors                    reciprocal lattice vectors
     8.813512802  0.000000000  0.000000000     0.113462137 -0.065507406  0.000000000
     4.406756909  7.632725690  0.000000000     0.000000000  0.131014796  0.000000000
     0.000000000  0.000000000 22.196203232     0.000000000  0.000000000  0.045052750

  length of vectors
     8.813512802  8.813512802 22.196203232     0.131014796  0.131014796  0.045052750

  position of ions in fractional coordinates (direct lattice)
     0.000000000  0.000000000  0.237895638
     0.333333343  0.000000000  0.237895638
     0.666666687  0.000000000  0.237895638
     1.000000000  0.333333343  0.237895638
     0.333333313  0.333333343  0.237895638
     0.666666687  0.333333343  0.237895638
     1.000000000  0.666666687  0.237895638
     0.333333343  0.666666687  0.237895638
     0.666666627  0.666666687  0.237895638
     0.111111119  0.111111112  0.345965207
     0.444444418  0.111111112  0.345965207
     0.777777791  0.111111112  0.345965207
     0.111111127  0.444444448  0.345965207
     0.444444478  0.444444448  0.345965207
     0.777777731  0.444444448  0.345965207
     0.111111090  0.777777791  0.345965207
     0.444444448  0.777777791  0.345965207
     0.777777851  0.777777791  0.345965207
     0.888875580  0.222248856  0.453892331
     0.222641404  0.222641389  0.453287990
     0.554717252  0.222641389  0.453287990
     0.887340861  0.556329600  0.453675414
     0.222641359  0.554717252  0.453287990
     0.556329600  0.556329600  0.453675414
     0.888875580  0.888875580  0.453892331
     0.222248886  0.888875580  0.453892331
     0.556329540  0.887340861  0.453675414
     0.000000000  0.000000000  0.563011610
     0.333875472  0.007863498  0.565810494
     0.658261060  0.007863498  0.565810494
     0.007863498  0.333875472  0.565810494
     0.658261060  0.333875472  0.565810494
     0.007863498  0.658261060  0.565810494
     0.333875472  0.658261060  0.565810494
     0.666666627  0.666666687  0.563515813
     0.333333313  0.333333343  0.554669094
     0.333333313  0.333333343  0.636147474

  ion indices of the primitive-cell ions
   primitive index   ion index
                 1           1
                 2           2
                 3           3
                 4           4
                 5           5
                 6           6
                 7           7
                 8           8
                 9           9
                10          10
                11          11
                12          12
                13          13
                14          14
                15          15
                16          16
                17          17
                18          18
                19          19
                20          20
                21          21
                22          22
                23          23
                24          24
                25          25
                26          26
                27          27
                28          28
                29          29
                30          30
                31          31
                32          32
                33          33
                34          34
                35          35
                36          36
                37          37

----------------------------------------------------------------------------------------

 
 
 KPOINTS: Automatic mesh                          

Automatic generation of k-mesh.
 Grid dimensions read from file:
 generate k-points for:    8    8    1

 Generating k-lattice:

  Cartesian coordinates                     Fractional coordinates (reciprocal lattice)
     0.014182767 -0.008188426  0.000000000     0.125000000 -0.000000000  0.000000000
     0.000000000  0.016376850  0.000000000     0.000000000  0.125000000  0.000000000
     0.000000000  0.000000000  0.045052750     0.000000000  0.000000000  1.000000000

  Length of vectors
     0.016376850  0.016376850  0.045052750

  Shift w.r.t. Gamma in fractional coordinates (k-lattice)
     0.000000000  0.000000000  0.000000000

 TETIRR: Found     36 inequivalent tetrahedra from      384
 
 Subroutine IBZKPT returns following result:
 ===========================================
 
 Found     10 irreducible k-points:
 
 Following reciprocal coordinates:
            Coordinates               Weight
  0.000000  0.000000  0.000000      1.000000
  0.125000 -0.000000  0.000000      6.000000
  0.250000 -0.000000  0.000000      6.000000
  0.375000  0.000000  0.000000      6.000000
  0.500000 -0.000000  0.000000      3.000000
  0.250000  0.125000  0.000000      6.000000
  0.375000  0.125000  0.000000     12.000000
  0.500000  0.125000  0.000000     12.000000
  0.500000  0.250000  0.000000      6.000000
 -0.375000  0.250000  0.000000      6.000000
 
 Following cartesian coordinates:
            Coordinates               Weight
  0.000000  0.000000  0.000000      1.000000
  0.014183 -0.008188  0.000000      6.000000
  0.028366 -0.016377  0.000000      6.000000
  0.042548 -0.024565  0.000000      6.000000
  0.056731 -0.032754  0.000000      3.000000
  0.028366 -0.000000  0.000000      6.000000
  0.042548 -0.008188  0.000000     12.000000
  0.056731 -0.016377  0.000000     12.000000
  0.056731 -0.000000  0.000000      6.000000
 -0.042548  0.057319  0.000000      6.000000
 


--------------------------------------------------------------------------------------------------------




 Dimension of arrays:
   k-points           NKPTS =     10   k-points in BZ     NKDIM =     10   number of bands    NBANDS=    252
   number of dos      NEDOS =    301   number of ions     NIONS =     37
   non local maximal  LDIM  =      6   non local SUM 2l+1 LMDIM =     18
   total plane-waves  NPLWV = 290304
   max r-space proj   IRMAX =   3771   max aug-charges    IRDMAX=  13253
   dimension x,y,z NGX =    48 NGY =   48 NGZ =  126
   dimension x,y,z NGXF=    96 NGYF=   96 NGZF=  252
   support grid    NGXF=    96 NGYF=   96 NGZF=  252
   ions per type =              35   1   1
   NGX,Y,Z   is equivalent  to a cutoff of   9.05,  9.05,  9.44 a.u.
   NGXF,Y,Z  is equivalent  to a cutoff of  18.11, 18.11, 18.87 a.u.

 SYSTEM =  unknown system                          
 POSCAR =  Au-Hf-O                                 

 Startparameter for this run:
   NWRITE =      2    write-flag & timer
   PREC   = normal    normal or accurate (medium, high low for compatibility)
   ISTART =      0    job   : 0-new  1-cont  2-samecut
   ICHARG =     11    charge: 1-file 2-atom 10-const
   ISPIN  =      1    spin polarized calculation?
   LNONCOLLINEAR =      F non collinear calculations
   LSORBIT =      F    spin-orbit coupling
   INIWAV =      1    electr: 0-lowe 1-rand  2-diag
   LASPH  =      F    aspherical Exc in radial PAW
   METAGGA=      F    non-selfconsistent MetaGGA calc.

 Electronic Relaxation 1
   ENCUT  =  500.0 eV  36.75 Ry    6.06 a.u.  16.07 16.07 40.47*2*pi/ulx,y,z
   ENINI  =  500.0     initial cutoff
   ENAUG  =  605.4 eV  augmentation charge cutoff
   NELM   =    150;   NELMIN=  2; NELMDL= -5     # of ELM steps 
   EDIFF  = 0.1E-04   stopping-criterion for ELM
   LREAL  =      T    real-space projection
   NLSPLINE    = F    spline interpolate recip. space projectors
   LCOMPAT=      F    compatible to vasp.4.4
   GGA_COMPAT  = T    GGA compatible to vasp.4.4-vasp.4.6
   LMAXPAW     = -100 max onsite density
   LMAXMIX     =    2 max onsite mixed and CHGCAR
   VOSKOWN=      0    Vosko Wilk Nusair interpolation
   ROPT   =   -0.00050  -0.00050  -0.00050
 Ionic relaxation
   EDIFFG = -.1E-01   stopping-criterion for IOM
   NSW    =      0    number of steps for IOM
   NBLOCK =      1;   KBLOCK =      1    inner block; outer block 
   IBRION =     -1    ionic relax: 0-MD 1-quasi-New 2-CG
   NFREE  =      1    steps in history (QN), initial steepest desc. (CG)
   ISIF   =      2    stress and relaxation
   IWAVPR =     10    prediction:  0-non 1-charg 2-wave 3-comb
   ISYM   =      2    0-nonsym 1-usesym 2-fastsym
   LCORR  =      T    Harris-Foulkes like correction to forces

   POTIM  = 0.5000    time-step for ionic-motion
   TEIN   =    0.0    initial temperature
   TEBEG  =    0.0;   TEEND  =   0.0 temperature during run
   SMASS  =  -3.00    Nose mass-parameter (am)
   estimated Nose-frequenzy (Omega)   =  0.10E-29 period in steps = 0.13E+47 mass=  -0.178E-26a.u.
   SCALEE = 1.0000    scale energy and forces
   NPACO  =    256;   APACO  = 16.0  distance and # of slots for P.C.
   PSTRESS=    0.0 pullay stress

  Mass of Ions in am
   POMASS = 196.97178.49 16.00
  Ionic Valenz
   ZVAL   =  11.00  4.00  6.00
  Atomic Wigner-Seitz radii
   RWIGS  =  -1.00 -1.00 -1.00
  virtual crystal weights 
   VCA    =   1.00  1.00  1.00
   NELECT =     395.0000    total number of electrons
   NUPDOWN=      -1.0000    fix difference up-down

 DOS related values:
   EMIN   =  10.00;   EMAX   =-10.00  energy-range for DOS
   EFERMI =   0.00
   ISMEAR =    -5;   SIGMA  =   0.10  broadening in eV -4-tet -1-fermi 0-gaus

 Electronic relaxation 2 (details)
   IALGO  =     68    algorithm
   LDIAG  =      T    sub-space diagonalisation (order eigenvalues)
   LSUBROT=      F    optimize rotation matrix (better conditioning)
   TURBO    =      0    0=normal 1=particle mesh
   IRESTART =      0    0=no restart 2=restart with 2 vectors
   NREBOOT  =      0    no. of reboots
   NMIN     =      0    reboot dimension
   EREF     =   0.00    reference energy to select bands
   IMIX   =      4    mixing-type and parameters
     AMIX     =   0.40;   BMIX     =  1.00
     AMIX_MAG =   1.60;   BMIX_MAG =  1.00
     AMIN     =   0.10
     WC   =   100.;   INIMIX=   1;  MIXPRE=   1;  MAXMIX= -45

 Intra band minimization:
   WEIMIN = 0.0000     energy-eigenvalue tresh-hold
   EBREAK =  0.99E-08  absolut break condition
   DEPER  =   0.30     relativ break condition  

   TIME   =   0.40     timestep for ELM

  volume/ion in A,a.u.               =      40.36       272.33
  Fermi-wavevector in a.u.,A,eV,Ry     =   1.050924  1.985959 15.026842  1.104442
  Thomas-Fermi vector in A             =   2.185947
 
 Write flags
   LWAVE        =      F    write WAVECAR
   LDOWNSAMPLE  =      F    k-point downsampling of WAVECAR
   LCHARG       =      F    write CHGCAR
   LVTOT        =      F    write LOCPOT, total local potential
   LVHAR        =      F    write LOCPOT, Hartree potential only
   LELF         =      F    write electronic localiz. function (ELF)
   LORBIT       =     10    0 simple, 1 ext, 2 COOP (PROOUT), +10 PAW based schemes


 Dipole corrections
   LMONO  =      F    monopole corrections only (constant potential shift)
   LDIPOL =      F    correct potential (dipole corrections)
   IDIPOL =      0    1-x, 2-y, 3-z, 4-all directions 
   EPSILON=  1.0000000 bulk dielectric constant

 Exchange correlation treatment:
   GGA     =    --    GGA type
   LEXCH   =     8    internal setting for exchange type
   VOSKOWN=      0    Vosko Wilk Nusair interpolation
   LHFCALC =     F    Hartree Fock is set to
   LHFONE  =     F    Hartree Fock one center treatment
   AEXX    =    0.0000 exact exchange contribution

 Linear response parameters
   LEPSILON=     F    determine dielectric tensor
   LRPA    =     F    only Hartree local field effects (RPA)
   LNABLA  =     F    use nabla operator in PAW spheres
   LVEL    =     F    velocity operator in full k-point grid
   LINTERFAST=   F  fast interpolation
   KINTER  =     0    interpolate to denser k-point grid
   CSHIFT  =0.1000    complex shift for real part using Kramers Kronig
   OMEGAMAX=  -1.0    maximum frequency
   DEG_THRESHOLD= 0.2000000E-02 threshold for treating states as degnerate
   RTIME   =   -0.100 relaxation time in fs
  (WPLASMAI=    0.000 imaginary part of plasma frequency in eV, 0.658/RTIME)
   DFIELD  = 0.0000000 0.0000000 0.0000000 field for delta impulse in time
 
 Orbital magnetization related:
   ORBITALMAG=     F  switch on orbital magnetization
   LCHIMAG   =     F  perturbation theory with respect to B field
   DQ        =  0.001000  dq finite difference perturbation B field
   LLRAUG    =     F  two centre corrections for induced B field



--------------------------------------------------------------------------------------------------------


 Static calculation
 charge density and potential remain constant during run
 non-spin polarized calculation
 RMM-DIIS sequential band-by-band and
  variant of blocked Davidson during initial phase
 perform sub-space diagonalisation
    before iterative eigenvector-optimisation
 no mixing
 using additional bands           54
 real space projection scheme for non local part
 use partial core corrections
 calculate Harris-corrections to forces 
   (improved forces if not selfconsistent)
 use gradient corrections 
 WARNING: stress and forces are not correct
  (second derivative of E(xc) not defined)
 use of overlap-Matrix (Vanderbilt PP)
 Fermi weights with tetrahedron method with Bloechl corrections


--------------------------------------------------------------------------------------------------------


  energy-cutoff  :      500.00
  volume of cell :     1493.16
      direct lattice vectors                 reciprocal lattice vectors
     8.813512802  0.000000000  0.000000000     0.113462137 -0.065507406  0.000000000
     4.406756909  7.632725690  0.000000000     0.000000000  0.131014796  0.000000000
     0.000000000  0.000000000 22.196203232     0.000000000  0.000000000  0.045052750

  length of vectors
     8.813512802  8.813512802 22.196203232     0.131014796  0.131014796  0.045052750


 
 k-points in units of 2pi/SCALE and weight: Automatic mesh                          
   0.00000000  0.00000000  0.00000000       0.016
   0.01418277 -0.00818843  0.00000000       0.094
   0.02836553 -0.01637685  0.00000000       0.094
   0.04254830 -0.02456528  0.00000000       0.094
   0.05673107 -0.03275370  0.00000000       0.047
   0.02836553 -0.00000000  0.00000000       0.094
   0.04254830 -0.00818843  0.00000000       0.188
   0.05673107 -0.01637685  0.00000000       0.188
   0.05673107 -0.00000000  0.00000000       0.094
  -0.04254830  0.05731898  0.00000000       0.094
 
 k-points in reciprocal lattice and weights: Automatic mesh                          
   0.00000000  0.00000000  0.00000000       0.016
   0.12500000 -0.00000000  0.00000000       0.094
   0.25000000 -0.00000000  0.00000000       0.094
   0.37500000  0.00000000  0.00000000       0.094
   0.50000000 -0.00000000  0.00000000       0.047
   0.25000000  0.12500000  0.00000000       0.094
   0.37500000  0.12500000  0.00000000       0.188
   0.50000000  0.12500000  0.00000000       0.188
   0.50000000  0.25000000  0.00000000       0.094
  -0.37500000  0.25000000  0.00000000       0.094
 
 position of ions in fractional coordinates (direct lattice) 
   0.00000000  0.00000000  0.23789564
   0.33333334  0.00000000  0.23789564
   0.66666669  0.00000000  0.23789564
   0.00000000  0.33333334  0.23789564
   0.33333331  0.33333334  0.23789564
   0.66666669  0.33333334  0.23789564
   0.00000000  0.66666669  0.23789564
   0.33333334  0.66666669  0.23789564
   0.66666663  0.66666669  0.23789564
   0.11111112  0.11111111  0.34596521
   0.44444442  0.11111111  0.34596521
   0.77777779  0.11111111  0.34596521
   0.11111113  0.44444445  0.34596521
   0.44444448  0.44444445  0.34596521
   0.77777773  0.44444445  0.34596521
   0.11111109  0.77777779  0.34596521
   0.44444445  0.77777779  0.34596521
   0.77777785  0.77777779  0.34596521
   0.88887558  0.22224886  0.45389233
   0.22264140  0.22264139  0.45328799
   0.55471725  0.22264139  0.45328799
   0.88734086  0.55632960  0.45367541
   0.22264136  0.55471725  0.45328799
   0.55632960  0.55632960  0.45367541
   0.88887558  0.88887558  0.45389233
   0.22224889  0.88887558  0.45389233
   0.55632954  0.88734086  0.45367541
   0.00000000  0.00000000  0.56301161
   0.33387547  0.00786350  0.56581049
   0.65826106  0.00786350  0.56581049
   0.00786350  0.33387547  0.56581049
   0.65826106  0.33387547  0.56581049
   0.00786350  0.65826106  0.56581049
   0.33387547  0.65826106  0.56581049
   0.66666663  0.66666669  0.56351581
   0.33333331  0.33333334  0.55466909
   0.33333331  0.33333334  0.63614747
 
 position of ions in cartesian coordinates  (Angst):
   0.00000000  0.00000000  5.28037993
   2.93783769  0.00000000  5.28037993
   5.87567538  0.00000000  5.28037993
   1.46891901  2.54424197  5.28037993
   4.40675643  2.54424197  5.28037993
   7.34459439  2.54424197  5.28037993
   2.93783803  5.08848395  5.28037993
   5.87567571  5.08848395  5.28037993
   8.81351288  5.08848395  5.28037993
   1.46891893  0.84808064  7.67911405
   4.40675623  0.84808064  7.67911405
   7.34459418  0.84808064  7.67911405
   2.93783798  3.39232256  7.67911405
   5.87567574  3.39232256  7.67911405
   8.81351263  3.39232256  7.67911405
   4.40675667  5.93656453  7.67911405
   7.34459449  5.93656453  7.67911405
  10.28243270  5.93656453  7.67911405
   8.81351299  1.69636455 10.07468643
   2.94337935  1.69936065 10.06127235
   5.87013408  1.69936065 10.06127235
  10.27219934  4.24631123 10.06987170
   4.40675655  4.23400462 10.06127235
   7.35482735  4.24631123 10.06987170
  11.75117491  6.78454347 10.07468643
   5.87585201  6.78454347 10.07468643
   8.81351299  6.77282938 10.06987170
   0.00000000  0.00000000 12.49672013
   2.97726827  0.06001992 12.55884472
   5.83624480  0.06001992 12.55884472
   1.54061308  2.54837989 12.55884472
   7.27290032  2.54837989 12.55884472
   2.97010152  5.02432610 12.55884472
   5.84341222  5.02432610 12.55884472
   8.81351288  5.08848395 12.50791151
   4.40675643  2.54424197 12.31154794
   4.40675643  2.54424197 14.12005862
 


--------------------------------------------------------------------------------------------------------


 k-point   1 :   0.0000 0.0000 0.0000  plane waves:   37827
 k-point   2 :   0.1250-0.0000 0.0000  plane waves:   37876
 k-point   3 :   0.2500-0.0000 0.0000  plane waves:   37924
 k-point   4 :   0.3750 0.0000 0.0000  plane waves:   37904
 k-point   5 :   0.5000-0.0000 0.0000  plane waves:   37912
 k-point   6 :   0.2500 0.1250 0.0000  plane waves:   37858
 k-point   7 :   0.3750 0.1250 0.0000  plane waves:   37928
 k-point   8 :   0.5000 0.1250 0.0000  plane waves:   37924
 k-point   9 :   0.5000 0.2500 0.0000  plane waves:   37926
 k-point  10 :  -0.3750 0.2500 0.0000  plane waves:   37916

 maximum and minimum number of plane-waves per node :     37928    37827

 maximum number of plane-waves:     37928
 maximum index in each direction: 
   IXMAX=   16   IYMAX=   16   IZMAX=   40
   IXMIN=  -16   IYMIN=  -16   IZMIN=  -40


 serial   3D FFT for wavefunctions
 parallel 3D FFT for charge:
    minimum data exchange during FFTs selected (reduces bandwidth)


 total amount of memory used by VASP MPI-rank0   123064. kBytes
=======================================================================

   base      :      30000. kBytes
   nonlr-proj:      14679. kBytes
   fftplans  :       4330. kBytes
   grid      :      17879. kBytes
   one-center:        575. kBytes
   wavefun   :      55601. kBytes
 
     INWAV:  cpu time    0.0000: real time    0.0000
 initial charge density was supplied:
 number of electron     395.0000038 magnetization 
 keeping initial charge density in first step


--------------------------------------------------------------------------------------------------------


 Maximum index for non-local projection operator         3607
 Maximum index for augmentation-charges          858 (set IRDMAX)


--------------------------------------------------------------------------------------------------------


 First call to EWALD:  gamma=   0.155
 Maximum number of real-space cells 4x 4x 2
 Maximum number of reciprocal cells 2x 2x 5

    FEWALD:  cpu time    0.0013: real time    0.0013


--------------------------------------- Iteration      1(   1)  ---------------------------------------


    POTLOK:  cpu time    0.0507: real time    0.0509
    SETDIJ:  cpu time    0.0049: real time    0.0051
     EDDAV:  cpu time    7.1566: real time    7.1581
 BZINTS: Fermi energy:   11.216870;  395.000000 electrons
         Band energy: 0.145173E+04;  BLOECHL correction:   -0.013387
       DOS:  cpu time    0.0100: real time    0.0101
    --------------------------------------------
      LOOP:  cpu time    7.2222: real time    7.2243

 eigenvalue-minimisations  :  5040
 total energy-change (2. order) : 0.2600965E+04  (-0.1791481E+05)
 number of electron     395.0000038 magnetization 
 augmentation part      395.0000038 magnetization 

 Free energy of the ion-electron system (eV)
  ---------------------------------------------------
  alpha Z        PSCENC =      1008.38663484
  Ewald energy   TEWEN  =     93591.07650628
  -Hartree energ DENC   =   -127648.87033635
  -exchange      EXHF   =         0.00000000
  -V(xc)+E(xc)   XCENC  =       493.16519117
  PAW double counting   =     36310.78284085   -35526.44824811
  entropy T*S    EENTRO =         0.00000000
  eigenvalues    EBANDS =      1451.72991513
  atomic energy  EATOM  =     32921.14299280
  Solvation  Ediel_sol  =         0.00000000
  ---------------------------------------------------
  free energy    TOTEN  =      2600.96549660 eV

  energy without entropy =     2600.96549660  energy(sigma->0) =     2600.96549660


--------------------------------------------------------------------------------------------------------




--------------------------------------- Iteration      1(   2)  ---------------------------------------


     EDDAV:  cpu time    7.8453: real time    7.8457
 BZINTS: Fermi energy:    1.263618;  395.000000 electrons
         Band energy:-0.114649E+04;  BLOECHL correction:   -0.063076
       DOS:  cpu time    0.0101: real time    0.0101
    --------------------------------------------
      LOOP:  cpu time    7.8553: real time    7.8557

 eigenvalue-minimisations  :  5684
 total energy-change (2. order) :-0.2598219E+04  (-0.2408393E+04)
 number of electron     395.0000038 magnetization 
 augmentation part      395.0000038 magnetization 

 Free energy of the ion-electron system (eV)
  ---------------------------------------------------
  alpha Z        PSCENC =      1008.38663484
  Ewald energy   TEWEN  =     93591.07650628
  -Hartree energ DENC   =   -127648.87033635
  -exchange      EXHF   =         0.00000000
  -V(xc)+E(xc)   XCENC  =       493.16519117
  PAW double counting   =     36310.78284085   -35526.44824811
  entropy T*S    EENTRO =         0.00000000
  eigenvalues    EBANDS =     -1146.48937137
  atomic energy  EATOM  =     32921.14299280
  Solvation  Ediel_sol  =         0.00000000
  ---------------------------------------------------
  free energy    TOTEN  =         2.74621011 eV

  energy without entropy =        2.74621011  energy(sigma->0) =        2.74621011


--------------------------------------------------------------------------------------------------------




--------------------------------------- Iteration      1(   3)  ---------------------------------------


     EDDAV:  cpu time    8.0446: real time    8.0450
 BZINTS: Fermi energy:    0.602220;  395.000000 electrons
         Band energy:-0.127182E+04;  BLOECHL correction:   -0.085934
       DOS:  cpu time    0.0102: real time    0.0102
    --------------------------------------------
      LOOP:  cpu time    8.0549: real time    8.0552

 eigenvalue-minimisations  :  5824
 total energy-change (2. order) :-0.1253328E+03  (-0.1209300E+03)
 number of electron     395.0000038 magnetization 
 augmentation part      395.0000038 magnetization 

 Free energy of the ion-electron system (eV)
  ---------------------------------------------------
  alpha Z        PSCENC =      1008.38663484
  Ewald energy   TEWEN  =     93591.07650628
  -Hartree energ DENC   =   -127648.87033635
  -exchange      EXHF   =         0.00000000
  -V(xc)+E(xc)   XCENC  =       493.16519117
  PAW double counting   =     36310.78284085   -35526.44824811
  entropy T*S    EENTRO =         0.00000000
  eigenvalues    EBANDS =     -1271.82215128
  atomic energy  EATOM  =     32921.14299280
  Solvation  Ediel_sol  =         0.00000000
  ---------------------------------------------------
  free energy    TOTEN  =      -122.58656981 eV

  energy without entropy =     -122.58656981  energy(sigma->0) =     -122.58656981


--------------------------------------------------------------------------------------------------------




--------------------------------------- Iteration      1(   4)  ---------------------------------------


     EDDAV:  cpu time    7.9263: real time    7.9264
 BZINTS: Fermi energy:    0.585218;  395.000000 electrons
         Band energy:-0.127441E+04;  BLOECHL correction:   -0.086557
       DOS:  cpu time    0.0098: real time    0.0098
    --------------------------------------------
      LOOP:  cpu time    7.9361: real time    7.9362

 eigenvalue-minimisations  :  5740
 total energy-change (2. order) :-0.2586066E+01  (-0.2577408E+01)
 number of electron     395.0000038 magnetization 
 augmentation part      395.0000038 magnetization 

 Free energy of the ion-electron system (eV)
  ---------------------------------------------------
  alpha Z        PSCENC =      1008.38663484
  Ewald energy   TEWEN  =     93591.07650628
  -Hartree energ DENC   =   -127648.87033635
  -exchange      EXHF   =         0.00000000
  -V(xc)+E(xc)   XCENC  =       493.16519117
  PAW double counting   =     36310.78284085   -35526.44824811
  entropy T*S    EENTRO =         0.00000000
  eigenvalues    EBANDS =     -1274.40821726
  atomic energy  EATOM  =     32921.14299280
  Solvation  Ediel_sol  =         0.00000000
  ---------------------------------------------------
  free energy    TOTEN  =      -125.17263579 eV

  energy without entropy =     -125.17263579  energy(sigma->0) =     -125.17263579


--------------------------------------------------------------------------------------------------------




--------------------------------------- Iteration      1(   5)  ---------------------------------------


     EDDAV:  cpu time    8.6717: real time    8.6719
 BZINTS: Fermi energy:    0.584948;  395.000000 electrons
         Band energy:-0.127450E+04;  BLOECHL correction:   -0.086541
       DOS:  cpu time    0.0100: real time    0.0100
    --------------------------------------------
      LOOP:  cpu time    8.6818: real time    8.6819

 eigenvalue-minimisations  :  6384
 total energy-change (2. order) :-0.9099436E-01  (-0.9098850E-01)
 number of electron     395.0000038 magnetization 
 augmentation part      395.0000038 magnetization 

 Free energy of the ion-electron system (eV)
  ---------------------------------------------------
  alpha Z        PSCENC =      1008.38663484
  Ewald energy   TEWEN  =     93591.07650628
  -Hartree energ DENC   =   -127648.87033635
  -exchange      EXHF   =         0.00000000
  -V(xc)+E(xc)   XCENC  =       493.16519117
  PAW double counting   =     36310.78284085   -35526.44824811
  entropy T*S    EENTRO =         0.00000000
  eigenvalues    EBANDS =     -1274.49921162
  atomic energy  EATOM  =     32921.14299280
  Solvation  Ediel_sol  =         0.00000000
  ---------------------------------------------------
  free energy    TOTEN  =      -125.26363015 eV

  energy without entropy =     -125.26363015  energy(sigma->0) =     -125.26363015


--------------------------------------------------------------------------------------------------------




--------------------------------------- Iteration      1(   6)  ---------------------------------------


    EDDIAG:  cpu time    1.3950: real time    1.3953
  RMM-DIIS:  cpu time    3.9667: real time    3.9668
    ORTHCH:  cpu time    0.2606: real time    0.2606
 BZINTS: Fermi energy:    0.584942;  395.000000 electrons
         Band energy:-0.127450E+04;  BLOECHL correction:   -0.086540
       DOS:  cpu time    0.0102: real time    0.0102
    --------------------------------------------
      LOOP:  cpu time    5.6325: real time    5.6329

 eigenvalue-minimisations  :  5116
 total energy-change (2. order) :-0.1883413E-02  (-0.1884007E-02)
 number of electron     395.0000038 magnetization 
 augmentation part      395.0000038 magnetization 

 Free energy of the ion-electron system (eV)
  ---------------------------------------------------
  alpha Z        PSCENC =      1008.38663484
  Ewald energy   TEWEN  =     93591.07650628
  -Hartree energ DENC   =   -127648.87033635
  -exchange      EXHF   =         0.00000000
  -V(xc)+E(xc)   XCENC  =       493.16519117
  PAW double counting   =     36310.78284085   -35526.44824811
  entropy T*S    EENTRO =         0.00000000
  eigenvalues    EBANDS =     -1274.50109503
  atomic energy  EATOM  =     32921.14299280
  Solvation  Ediel_sol  =         0.00000000
  ---------------------------------------------------
  free energy    TOTEN  =      -125.26551356 eV

  energy without entropy =     -125.26551356  energy(sigma->0) =     -125.26551356


--------------------------------------------------------------------------------------------------------




--------------------------------------- Iteration      1(   7)  ---------------------------------------


    EDDIAG:  cpu time    1.3958: real time    1.3959
  RMM-DIIS:  cpu time    5.4383: real time    5.4384
    ORTHCH:  cpu time    0.2605: real time    0.2605
 BZINTS: Fermi energy:    0.584940;  395.000000 electrons
         Band energy:-0.127450E+04;  BLOECHL correction:   -0.086540
       DOS:  cpu time    0.0102: real time    0.0102
    --------------------------------------------
      LOOP:  cpu time    7.1048: real time    7.1050

 eigenvalue-minimisations  :  7101
 total energy-change (2. order) :-0.6302414E-03  (-0.6273973E-03)
 number of electron     395.0000038 magnetization 
 augmentation part      395.0000038 magnetization 

 Free energy of the ion-electron system (eV)
  ---------------------------------------------------
  alpha Z        PSCENC =      1008.38663484
  Ewald energy   TEWEN  =     93591.07650628
  -Hartree energ DENC   =   -127648.87033635
  -exchange      EXHF   =         0.00000000
  -V(xc)+E(xc)   XCENC  =       493.16519117
  PAW double counting   =     36310.78284085   -35526.44824811
  entropy T*S    EENTRO =         0.00000000
  eigenvalues    EBANDS =     -1274.50172527
  atomic energy  EATOM  =     32921.14299280
  Solvation  Ediel_sol  =         0.00000000
  ---------------------------------------------------
  free energy    TOTEN  =      -125.26614380 eV

  energy without entropy =     -125.26614380  energy(sigma->0) =     -125.26614380


--------------------------------------------------------------------------------------------------------




--------------------------------------- Iteration      1(   8)  ---------------------------------------


    EDDIAG:  cpu time    1.3988: real time    1.3988
  RMM-DIIS:  cpu time    4.4696: real time    4.4696
    ORTHCH:  cpu time    0.2606: real time    0.2606
 BZINTS: Fermi energy:    0.584940;  395.000000 electrons
         Band energy:-0.127450E+04;  BLOECHL correction:   -0.086540
       DOS:  cpu time    0.0097: real time    0.0097
    --------------------------------------------
      LOOP:  cpu time    6.1387: real time    6.1388

 eigenvalue-minimisations  :  5559
 total energy-change (2. order) :-0.3910146E-04  (-0.3877168E-04)
 number of electron     395.0000038 magnetization 
 augmentation part      395.0000038 magnetization 

 Free energy of the ion-electron system (eV)
  ---------------------------------------------------
  alpha Z        PSCENC =      1008.38663484
  Ewald energy   TEWEN  =     93591.07650628
  -Hartree energ DENC   =   -127648.87033635
  -exchange      EXHF   =         0.00000000
  -V(xc)+E(xc)   XCENC  =       493.16519117
  PAW double counting   =     36310.78284085   -35526.44824811
  entropy T*S    EENTRO =         0.00000000
  eigenvalues    EBANDS =     -1274.50176437
  atomic energy  EATOM  =     32921.14299280
  Solvation  Ediel_sol  =         0.00000000
  ---------------------------------------------------
  free energy    TOTEN  =      -125.26618290 eV

  energy without entropy =     -125.26618290  energy(sigma->0) =     -125.26618290


--------------------------------------------------------------------------------------------------------




--------------------------------------- Iteration      1(   9)  ---------------------------------------


    EDDIAG:  cpu time    1.3972: real time    1.3973
  RMM-DIIS:  cpu time    3.3372: real time    3.3372
    ORTHCH:  cpu time    0.2606: real time    0.2606
 BZINTS: Fermi energy:    0.584940;  395.000000 electrons
         Band energy:-0.127450E+04;  BLOECHL correction:   -0.086540
       DOS:  cpu time    0.0102: real time    0.0102
    --------------------------------------------
      LOOP:  cpu time    5.0052: real time    5.0053

 eigenvalue-minimisations  :  3708
 total energy-change (2. order) :-0.5734968E-05  (-0.5673149E-05)
 number of electron     395.0000038 magnetization 
 augmentation part      395.0000038 magnetization 

 Free energy of the ion-electron system (eV)
  ---------------------------------------------------
  alpha Z        PSCENC =      1008.38663484
  Ewald energy   TEWEN  =     93591.07650628
  -Hartree energ DENC   =   -127648.87033635
  -exchange      EXHF   =         0.00000000
  -V(xc)+E(xc)   XCENC  =       493.16519117
  PAW double counting   =     36310.78284085   -35526.44824811
  entropy T*S    EENTRO =         0.00000000
  eigenvalues    EBANDS =     -1274.50177011
  atomic energy  EATOM  =     32921.14299280
  Solvation  Ediel_sol  =         0.00000000
  ---------------------------------------------------
  free energy    TOTEN  =      -125.26618864 eV

  energy without entropy =     -125.26618864  energy(sigma->0) =     -125.26618864


--------------------------------------------------------------------------------------------------------




 average (electrostatic) potential at core
  the test charge radii are     1.2098  1.2481  0.7215
  (the norm of the test charge is              1.0000)
       1 -72.4455       2 -72.4443       3 -72.4442       4 -72.4443       5 -72.4546
       6 -72.4440       7 -72.4442       8 -72.4440       9 -72.4439      10 -72.7823
      11 -72.7752      12 -72.7819      13 -72.7752      14 -72.7747      15 -72.7760
      16 -72.7819      17 -72.7760      18 -72.7761      19 -72.7361      20 -73.0909
      21 -73.0904      22 -72.7548      23 -73.0904      24 -72.7542      25 -72.7361
      26 -72.7361      27 -72.7548      28 -72.4427      29 -72.5873      30 -72.5873
      31 -72.5874      32 -72.5870      33 -72.5873      34 -72.5870      35 -72.4324
      36 -40.2291      37 -73.7517
 
 
 
 E-fermi :   0.5849     XC(G=0):  -6.1494     alpha+bet : -5.7999

 Fermi energy:         0.5849398778

 k-point     1 :       0.0000    0.0000    0.0000
  band No.  band energies     occupation 
      1     -15.6587      2.00000
      2      -8.2465      2.00000
      3      -7.0835      2.00000
      4      -6.1424      2.00000
      5      -6.1193      2.00000
      6      -6.1193      2.00000
      7      -6.1049      2.00000
      8      -6.0821      2.00000
      9      -6.0683      2.00000
     10      -6.0392      2.00000
     11      -6.0392      2.00000
     12      -5.6394      2.00000
     13      -5.6394      2.00000
     14      -5.6297      2.00000
     15      -5.5927      2.00000
     16      -5.5560      2.00000
     17      -5.5560      2.00000
     18      -5.2539      2.00000
     19      -5.2539      2.00000
     20      -5.2518      2.00000
     21      -5.2282      2.00000
     22      -5.1927      2.00000
     23      -5.1927      2.00000
     24      -5.0975      2.00000
     25      -5.0539      2.00000
     26      -5.0538      2.00000
     27      -5.0525      2.00000
     28      -5.0523      2.00000
     29      -5.0341      2.00000
     30      -4.9144      2.00000
     31      -4.8942      2.00000
     32      -4.8942      2.00000
     33      -4.8780      2.00000
     34      -4.8779      2.00000
     35      -4.8710      2.00000
     36      -4.8709      2.00000
     37      -4.8545      2.00000
     38      -4.8391      2.00000
     39      -4.8328      2.00000
     40      -4.8154      2.00000
     41      -4.8154      2.00000
     42      -4.3835      2.00000
     43      -4.3835      2.00000
     44      -4.3784      2.00000
     45      -4.3638      2.00000
     46      -4.3638      2.00000
     47      -4.3200      2.00000
     48      -4.3106      2.00000
     49      -4.3106      2.00000
     50      -4.2735      2.00000
     51      -4.2735      2.00000
     52      -4.2032      2.00000
     53      -4.1974      2.00000
     54      -4.1707      2.00000
     55      -4.1195      2.00000
     56      -3.8902      2.00000
     57      -3.8426      2.00000
     58      -3.8426      2.00000
     59      -3.8229      2.00000
     60      -3.8128      2.00000
     61      -3.8128      2.00000
     62      -3.7979      2.00000
     63      -3.7375      2.00000
     64      -3.7374      2.00000
     65      -3.6669      2.00000
     66      -3.6669      2.00000
     67      -3.6552      2.00000
     68      -3.6329      2.00000
     69      -3.6328      2.00000
     70      -3.6065      2.00000
     71      -3.5869      2.00000
     72      -3.5869      2.00000
     73      -3.5514      2.00000
     74      -3.5483      2.00000
     75      -3.5483      2.00000
     76      -3.5241      2.00000
     77      -3.5241      2.00000
     78      -3.5233      2.00000
     79      -3.5203      2.00000
     80      -3.5203      2.00000
     81      -3.4704      2.00000
     82      -3.4704      2.00000
     83      -3.4554      2.00000
     84      -3.4349      2.00000
     85      -3.4187      2.00000
     86      -3.4186      2.00000
     87      -3.3643      2.00000
     88      -3.3642      2.00000
     89      -3.3386      2.00000
     90      -3.3386      2.00000
     91      -3.3305      2.00000
     92      -3.2920      2.00000
     93      -3.2920      2.00000
     94      -3.2679      2.00000
     95      -3.2679      2.00000
     96      -3.0867      2.00000
     97      -3.0867      2.00000
     98      -3.0822      2.00000
     99      -3.0822      2.00000
    100      -2.9629      2.00000
    101      -2.9560      2.00000
    102      -2.9560      2.00000
    103      -2.9390      2.00000
    104      -2.9390      2.00000
    105      -2.9345      2.00000
    106      -2.7904      2.00000
    107      -2.7904      2.00000
    108      -2.7738      2.00000
    109      -2.7694      2.00000
    110      -2.7033      2.00000
    111      -2.7033      2.00000
    112      -2.6839      2.00000
    113      -2.6838      2.00000
    114      -2.6378      2.00000
    115      -2.6147      2.00000
    116      -2.6144      2.00000
    117      -2.5405      2.00000
    118      -2.5404      2.00000
    119      -2.4714      2.00000
    120      -2.4412      2.00000
    121      -2.4412      2.00000
    122      -2.4272      2.00000
    123      -2.4272      2.00000
    124      -2.3972      2.00000
    125      -2.3599      2.00000
    126      -2.3598      2.00000
    127      -2.3222      2.00000
    128      -2.3222      2.00000
    129      -2.2497      2.00000
    130      -2.2496      2.00000
    131      -2.1997      2.00000
    132      -2.1815      2.00000
    133      -2.1806      2.00000
    134      -2.1806      2.00000
    135      -2.1643      2.00000
    136      -2.1555      2.00000
    137      -2.1554      2.00000
    138      -2.1476      2.00000
    139      -2.1476      2.00000
    140      -2.0514      2.00000
    141      -2.0514      2.00000
    142      -2.0055      2.00000
    143      -1.9854      2.00000
    144      -1.9854      2.00000
    145      -1.9549      2.00000
    146      -1.9309      2.00000
    147      -1.9307      2.00000
    148      -1.9307      2.00000
    149      -1.8905      2.00000
    150      -1.8904      2.00000
    151      -1.8851      2.00000
    152      -1.8652      2.00000
    153      -1.8339      2.00000
    154      -1.8338      2.00000
    155      -1.8134      2.00000
    156      -1.7781      2.00000
    157      -1.7781      2.00000
    158      -1.7704      2.00000
    159      -1.7675      2.00000
    160      -1.7662      2.00000
    161      -1.7662      2.00000
    162      -1.7018      2.00000
    163      -1.7017      2.00000
    164      -1.6929      2.00000
    165      -1.6888      2.00000
    166      -1.6888      2.00000
    167      -1.6777      2.00000
    168      -1.6633      2.00000
    169      -1.6633      2.00000
    170      -1.6476      2.00000
    171      -1.6386      2.00000
    172      -1.5915      2.00000
    173      -1.5914      2.00000
    174      -1.5726      2.00000
    175      -1.5700      2.00000
    176      -1.5626      2.00000
    177      -1.5626      2.00000
    178      -1.5585      2.00000
    179      -1.5481      2.00000
    180      -1.5481      2.00000
    181      -1.5111      2.00000
    182      -1.4844      2.00000
    183      -1.4844      2.00000
    184      -1.4361      2.00000
    185      -1.4361      2.00000
    186      -1.3312      2.00000
    187      -1.3290      2.00000
    188      -1.3289      2.00000
    189      -1.2918      2.00000
    190      -1.2917      2.00000
    191      -1.2811      2.00000
    192      -1.2409      2.00000
    193      -1.1112      2.00000
    194      -1.1111      2.00000
    195      -0.4305      2.00000
    196      -0.0594      2.00000
    197      -0.0552      2.00000
    198      -0.0552      2.00000
    199       0.0229      2.00000
    200       0.1236      2.00000
    201       0.1236      2.00000
    202       1.0150      0.00000
    203       1.8449      0.00000
    204       1.8449      0.00000
    205       1.9687      0.00000
    206       2.0875      0.00000
    207       2.0875      0.00000
    208       2.0907      0.00000
    209       2.4080      0.00000
    210       2.4080      0.00000
    211       3.1817      0.00000
    212       3.1817      0.00000
    213       3.3360      0.00000
    214       3.5167      0.00000
    215       3.5167      0.00000
    216       3.5825      0.00000
    217       3.9002      0.00000
    218       4.4768      0.00000
    219       4.4769      0.00000
    220       4.6162      0.00000
    221       5.0282      0.00000
    222       5.2483      0.00000
    223       5.2512      0.00000
    224       5.2512      0.00000
    225       5.3875      0.00000
    226       5.3876      0.00000
    227       5.4893      0.00000
    228       5.6590      0.00000
    229       5.6590      0.00000
    230       5.7935      0.00000
    231       5.9757      0.00000
    232       5.9843      0.00000
    233       5.9878      0.00000
    234       5.9878      0.00000
    235       6.9422      0.00000
    236       6.9450      0.00000
    237       6.9456      0.00000
    238       6.9758      0.00000
    239       7.0892      0.00000
    240       7.0893      0.00000
    241       7.0943      0.00000
    242       7.1215      0.00000
    243       7.1245      0.00000
    244       7.1619      0.00000
    245       7.2230      0.00000
    246       7.2270      0.00000
    247       7.3241      0.00000
    248       7.4299      0.00000
    249       7.5116      0.00000
    250       7.5323      0.00000
    251       7.5999      0.00000
    252       7.6688      0.00000

 k-point     2 :       0.1250   -0.0000    0.0000
  band No.  band energies     occupation 
      1     -15.6587      2.00000
      2      -8.1955      2.00000
      3      -7.0333      2.00000
      4      -6.3411      2.00000
      5      -6.1641      2.00000
      6      -6.1622      2.00000
      7      -6.0719      2.00000
      8      -6.0444      2.00000
      9      -5.9791      2.00000
     10      -5.9578      2.00000
     11      -5.9474      2.00000
     12      -5.6684      2.00000
     13      -5.6157      2.00000
     14      -5.6138      2.00000
     15      -5.6015      2.00000
     16      -5.5505      2.00000
     17      -5.5315      2.00000
     18      -5.2926      2.00000
     19      -5.2472      2.00000
     20      -5.2434      2.00000
     21      -5.2053      2.00000
     22      -5.1768      2.00000
     23      -5.1685      2.00000
     24      -5.1446      2.00000
     25      -5.0930      2.00000
     26      -5.0815      2.00000
     27      -5.0082      2.00000
     28      -5.0033      2.00000
     29      -4.9765      2.00000
     30      -4.9575      2.00000
     31      -4.9552      2.00000
     32      -4.9270      2.00000
     33      -4.9190      2.00000
     34      -4.8974      2.00000
     35      -4.8814      2.00000
     36      -4.8649      2.00000
     37      -4.7982      2.00000
     38      -4.7857      2.00000
     39      -4.7671      2.00000
     40      -4.7354      2.00000
     41      -4.7328      2.00000
     42      -4.4430      2.00000
     43      -4.4317      2.00000
     44      -4.4190      2.00000
     45      -4.3960      2.00000
     46      -4.3959      2.00000
     47      -4.3777      2.00000
     48      -4.3322      2.00000
     49      -4.2780      2.00000
     50      -4.2601      2.00000
     51      -4.2263      2.00000
     52      -4.1795      2.00000
     53      -4.1662      2.00000
     54      -4.1512      2.00000
     55      -4.1165      2.00000
     56      -3.9160      2.00000
     57      -3.8764      2.00000
     58      -3.8563      2.00000
     59      -3.8521      2.00000
     60      -3.8185      2.00000
     61      -3.8182      2.00000
     62      -3.8042      2.00000
     63      -3.7865      2.00000
     64      -3.7538      2.00000
     65      -3.7341      2.00000
     66      -3.7215      2.00000
     67      -3.7169      2.00000
     68      -3.6925      2.00000
     69      -3.6727      2.00000
     70      -3.6601      2.00000
     71      -3.6456      2.00000
     72      -3.6345      2.00000
     73      -3.6099      2.00000
     74      -3.5955      2.00000
     75      -3.5953      2.00000
     76      -3.5904      2.00000
     77      -3.5625      2.00000
     78      -3.5108      2.00000
     79      -3.5085      2.00000
     80      -3.4722      2.00000
     81      -3.4713      2.00000
     82      -3.4306      2.00000
     83      -3.4258      2.00000
     84      -3.4024      2.00000
     85      -3.3956      2.00000
     86      -3.3620      2.00000
     87      -3.3569      2.00000
     88      -3.3375      2.00000
     89      -3.3286      2.00000
     90      -3.3053      2.00000
     91      -3.2969      2.00000
     92      -3.2535      2.00000
     93      -3.2504      2.00000
     94      -3.2342      2.00000
     95      -3.2169      2.00000
     96      -3.1767      2.00000
     97      -3.1735      2.00000
     98      -3.0735      2.00000
     99      -3.0526      2.00000
    100      -3.0432      2.00000
    101      -2.9618      2.00000
    102      -2.9493      2.00000
    103      -2.9429      2.00000
    104      -2.9273      2.00000
    105      -2.8924      2.00000
    106      -2.8871      2.00000
    107      -2.8527      2.00000
    108      -2.7823      2.00000
    109      -2.7820      2.00000
    110      -2.7520      2.00000
    111      -2.7307      2.00000
    112      -2.7205      2.00000
    113      -2.6990      2.00000
    114      -2.6966      2.00000
    115      -2.6777      2.00000
    116      -2.6700      2.00000
    117      -2.6404      2.00000
    118      -2.6327      2.00000
    119      -2.6151      2.00000
    120      -2.6096      2.00000
    121      -2.5197      2.00000
    122      -2.5128      2.00000
    123      -2.4307      2.00000
    124      -2.4227      2.00000
    125      -2.4041      2.00000
    126      -2.3852      2.00000
    127      -2.3804      2.00000
    128      -2.3431      2.00000
    129      -2.3346      2.00000
    130      -2.2986      2.00000
    131      -2.2975      2.00000
    132      -2.2852      2.00000
    133      -2.2759      2.00000
    134      -2.2702      2.00000
    135      -2.1840      2.00000
    136      -2.1782      2.00000
    137      -2.1473      2.00000
    138      -2.1150      2.00000
    139      -2.1029      2.00000
    140      -2.0984      2.00000
    141      -2.0841      2.00000
    142      -2.0765      2.00000
    143      -2.0432      2.00000
    144      -2.0006      2.00000
    145      -1.9827      2.00000
    146      -1.9478      2.00000
    147      -1.9339      2.00000
    148      -1.9095      2.00000
    149      -1.9052      2.00000
    150      -1.8826      2.00000
    151      -1.8738      2.00000
    152      -1.8522      2.00000
    153      -1.8427      2.00000
[...]
  0.000   0.000   0.000   0.000   0.000   0.000   0.000   0.000   0.000   0.000   0.000   0.000   0.000   0.000   0.000   0.000
  0.000   0.000   0.000   0.000   0.000   0.000   0.000   0.000   0.000   0.000   0.000   0.000   0.000   0.000   0.000   0.000
  0.000   0.000   0.000   0.000   0.000   0.000   0.000   0.000   0.000   0.000   0.000   0.000   0.000   0.000   0.000   0.000
  0.000   0.000   0.000   0.000   0.000   0.000   0.000   0.000   0.000   0.000   0.000   0.000   0.000   0.000   0.000   0.000
  0.000   0.000   0.000   0.000   0.000   0.000   0.000   0.000   0.000   0.000   0.000   0.000   0.000   0.000   0.000   0.000
  0.000   0.000   0.000   0.000   0.000   0.000   0.000   0.000   0.000   0.000   1.000   0.000   0.000   0.000   0.000   0.000
  0.000   0.000   0.000   0.000   0.000   0.000   0.000   0.000   0.000   0.000   0.000   0.000   0.000   0.000   0.000   0.000
  0.000   0.000   0.000   0.000   0.000   0.000   0.000   0.000   0.000   0.000   0.000   0.000   0.000   0.000   0.000   0.000
  0.000   0.000   0.000   0.000   0.000   0.000   0.000   0.000   0.000   0.000   0.000   0.000   0.000   0.000   0.000   0.000
  0.000   0.000   0.000   0.000   0.000   0.000   0.000   0.000   0.000   0.000   0.000   0.000   0.000   0.000   0.000   0.000
  0.000   0.000   0.000   0.000   0.000   0.000   0.000   0.000   0.000   0.000   0.000   0.000   0.000   0.000   0.000   0.000
  0.000   0.000   0.000   0.000   0.000   0.000   0.000   0.000   0.000   0.000   0.000   0.000   0.000   0.000   0.000   0.000
  0.000   0.000   0.000   0.000   0.000   0.000   0.000   0.000   0.000   0.000   0.000   0.000   0.000   0.000   0.000   0.000


------------------------ aborting loop because EDIFF is reached ----------------------------------------





 total charge

# of ion       s       p       d       tot
------------------------------------------
    1        0.544   0.239   8.767   9.550
    2        0.543   0.241   8.765   9.549
    3        0.543   0.241   8.765   9.549
    4        0.543   0.241   8.765   9.549
    5        0.543   0.241   8.763   9.546
    6        0.543   0.241   8.765   9.549
    7        0.543   0.241   8.765   9.549
    8        0.543   0.241   8.765   9.549
    9        0.541   0.240   8.768   9.549
   10        0.520   0.307   8.775   9.602
   11        0.519   0.308   8.776   9.603
   12        0.520   0.307   8.775   9.602
   13        0.519   0.308   8.776   9.603
   14        0.519   0.308   8.776   9.603
   15        0.515   0.309   8.773   9.597
   16        0.520   0.307   8.775   9.602
   17        0.515   0.309   8.773   9.597
   18        0.515   0.309   8.773   9.597
   19        0.518   0.295   8.775   9.588
   20        0.557   0.329   8.755   9.641
   21        0.557   0.329   8.755   9.641
   22        0.511   0.305   8.773   9.588
   23        0.557   0.329   8.755   9.641
   24        0.511   0.305   8.773   9.588
   25        0.518   0.295   8.775   9.588
   26        0.518   0.295   8.775   9.588
   27        0.511   0.305   8.773   9.588
   28        0.542   0.229   8.757   9.528
   29        0.580   0.235   8.754   9.568
   30        0.580   0.235   8.754   9.568
   31        0.580   0.235   8.754   9.568
   32        0.580   0.235   8.754   9.568
   33        0.580   0.235   8.754   9.568
   34        0.580   0.235   8.754   9.568
   35        0.541   0.231   8.755   9.527
   36        0.588   0.674   2.420   3.681
   37        1.596   3.307   0.000   4.903
--------------------------------------------------
tot         21.046  13.575 309.222 343.843
 
    CHARGE:  cpu time    0.3294: real time    0.3295
    FORLOC:  cpu time    0.0101: real time    0.0101
    FORNL :  cpu time    1.4622: real time    1.4623
    STRESS:  cpu time    4.3644: real time    4.3646
    FORCOR:  cpu time    0.0445: real time    0.0446
    FORHAR:  cpu time    0.0165: real time    0.0165
    OFIELD:  cpu time    0.0002: real time    0.0002

  FORCE on cell =-STRESS in cart. coord.  units (eV):
  Direction    XX          YY          ZZ          XY          YZ          ZX
  --------------------------------------------------------------------------------------
  Alpha Z  1008.38663  1008.38663  1008.38663
  Ewald  116002.52474116002.52513************    -0.00033    -0.00009    -0.00014
  Hartree124592.57762124592.57761************     0.00000    -0.00002    -0.00004
  E(xc)   -1773.62827 -1773.62827 -1783.83213     0.00000    -0.00000    -0.00001
  Local  ************************252800.13602     0.00199     0.00002     0.00002
  n-local   -87.53661   -45.76205   -42.05580    22.21691    -1.71501     1.49191
  augment  2370.71359  2370.71516  2389.74832    -0.00136    -0.00002    -0.00001
  Kinetic  5507.22086  5513.47468  5567.56923     5.21111     0.41047     0.22774
  Fock        0.00000     0.00000     0.00000     0.00000     0.00000     0.00000
  -------------------------------------------------------------------------------------
  Total     -16.70120   -16.70120     3.28213    -0.00000     0.00000     0.00000
  in kB     -17.92054   -17.92053     3.52175    -0.00000     0.00000     0.00000
  external pressure =      -10.77 kB  Pullay stress =        0.00 kB


 VOLUME and BASIS-vectors are now :
 -----------------------------------------------------------------------------
  energy-cutoff  :      500.00
  volume of cell :     1493.16
      direct lattice vectors                 reciprocal lattice vectors
     8.813512802  0.000000000  0.000000000     0.113462137 -0.065507406  0.000000000
     4.406756909  7.632725690  0.000000000     0.000000000  0.131014796  0.000000000
     0.000000000  0.000000000 22.196203232     0.000000000  0.000000000  0.045052750

  length of vectors
     8.813512802  8.813512802 22.196203232     0.131014796  0.131014796  0.045052750


 FORCES acting on ions
    electron-ion (+dipol)            ewald-force                    non-local-force                 convergence-correction
 -----------------------------------------------------------------------------------------------
   -.194E-04 -.161E-04 0.246E+04   0.518E-04 0.432E-04 -.246E+04   -.641E-17 -.111E-18 -.558E+00   -.282E-03 -.176E-03 -.313E+00
   -.222E-01 -.365E+00 0.246E+04   -.327E-01 0.259E+00 -.246E+04   -.251E-02 0.498E-01 -.347E+00   0.538E-01 0.540E-01 -.248E+00
   0.221E-01 -.365E+00 0.246E+04   0.326E-01 0.259E+00 -.246E+04   0.251E-02 0.498E-01 -.347E+00   -.534E-01 0.561E-01 -.247E+00
   -.327E+00 0.163E+00 0.246E+04   0.208E+00 -.158E+00 -.246E+04   0.418E-01 -.271E-01 -.347E+00   0.737E-01 0.195E-01 -.248E+00
   0.877E-05 -.231E-04 0.246E+04   0.951E-04 0.172E-05 -.246E+04   0.697E-18 -.197E-18 -.350E+00   0.439E-02 0.267E-02 -.213E+00
   0.327E+00 0.163E+00 0.246E+04   -.208E+00 -.158E+00 -.246E+04   -.418E-01 -.271E-01 -.347E+00   -.754E-01 0.204E-01 -.247E+00
   -.305E+00 0.202E+00 0.246E+04   0.241E+00 -.101E+00 -.246E+04   0.444E-01 -.227E-01 -.347E+00   0.219E-01 -.743E-01 -.247E+00
   0.305E+00 0.202E+00 0.246E+04   -.241E+00 -.101E+00 -.246E+04   -.444E-01 -.227E-01 -.347E+00   -.200E-01 -.755E-01 -.247E+00
   0.193E-04 -.417E-04 0.246E+04   0.166E-03 -.200E-04 -.246E+04   -.209E-18 0.160E-17 -.520E+00   -.466E-02 -.241E-02 -.250E+00
   -.406E+00 -.234E+00 0.804E+03   0.465E+00 0.269E+00 -.803E+03   -.185E+00 -.107E+00 -.385E+00   0.883E-01 0.509E-01 -.622E-03
   0.137E-04 -.157E+01 0.802E+03   0.148E-03 0.138E+01 -.802E+03   0.380E-08 0.572E-01 -.309E+00   0.426E-02 0.840E-01 0.390E-01
   0.406E+00 -.234E+00 0.804E+03   -.465E+00 0.269E+00 -.803E+03   0.185E+00 -.107E+00 -.385E+00   -.902E-01 0.528E-01 0.624E-03
   -.136E+01 0.783E+00 0.802E+03   0.119E+01 -.688E+00 -.802E+03   0.495E-01 -.286E-01 -.309E+00   0.752E-01 -.381E-01 0.390E-01
   0.136E+01 0.783E+00 0.802E+03   -.119E+01 -.688E+00 -.802E+03   -.495E-01 -.286E-01 -.309E+00   -.668E-01 -.387E-01 0.399E-01
   0.319E-04 0.237E+01 0.807E+03   0.235E-03 -.246E+01 -.806E+03   0.129E-08 0.193E-01 -.394E+00   -.297E-02 0.549E-01 0.271E-01
   -.205E-04 0.469E+00 0.804E+03   0.162E-03 -.537E+00 -.803E+03   0.142E-07 0.213E+00 -.385E+00   0.386E-03 -.105E+00 0.616E-03
   0.205E+01 -.118E+01 0.807E+03   -.213E+01 0.123E+01 -.806E+03   0.167E-01 -.967E-02 -.394E+00   0.463E-01 -.296E-01 0.271E-01
   -.205E+01 -.118E+01 0.807E+03   0.213E+01 0.123E+01 -.806E+03   -.167E-01 -.967E-02 -.394E+00   -.463E-01 -.270E-01 0.273E-01
   -.428E-04 -.554E+01 -.862E+03   0.557E-04 0.528E+01 0.860E+03   0.739E-08 0.111E+00 0.860E+00   -.610E-02 0.119E+00 0.265E+00
   -.207E+02 -.120E+02 -.877E+03   0.212E+02 0.122E+02 0.877E+03   -.957E+00 -.552E+00 -.621E+00   0.131E+00 0.756E-01 0.244E+00
   0.207E+02 -.120E+02 -.877E+03   -.212E+02 0.122E+02 0.877E+03   0.957E+00 -.552E+00 -.621E+00   -.122E+00 0.771E-01 0.243E+00
   -.157E+02 0.904E+01 -.856E+03   0.153E+02 -.883E+01 0.855E+03   0.374E+00 -.216E+00 0.746E+00   0.475E-01 -.305E-01 0.258E+00
   -.822E-05 0.240E+02 -.877E+03   0.137E-03 -.245E+02 0.877E+03   0.735E-07 0.110E+01 -.621E+00   0.564E-02 -.144E+00 0.243E+00
   0.157E+02 0.904E+01 -.856E+03   -.153E+02 -.883E+01 0.855E+03   -.374E+00 -.216E+00 0.746E+00   -.556E-01 -.320E-01 0.258E+00
   0.480E+01 0.277E+01 -.862E+03   -.457E+01 -.264E+01 0.860E+03   -.962E-01 -.555E-01 0.860E+00   -.105E+00 -.608E-01 0.265E+00
   -.480E+01 0.277E+01 -.862E+03   0.457E+01 -.264E+01 0.860E+03   0.962E-01 -.555E-01 0.860E+00   0.100E+00 -.646E-01 0.265E+00
   0.784E-05 -.181E+02 -.856E+03   0.199E-03 0.177E+02 0.855E+03   0.288E-07 0.432E+00 0.746E+00   -.321E-02 0.563E-01 0.258E+00
   -.112E-04 -.112E-04 -.241E+04   0.275E-04 0.316E-04 0.241E+04   -.134E-17 -.841E-18 0.399E+00   -.147E-02 -.866E-03 0.388E+00
   0.392E+01 -.754E+00 -.241E+04   -.320E+01 0.191E+01 0.241E+04   -.981E+00 -.151E+01 0.627E+00   0.683E-01 -.295E-01 0.297E+00
   -.392E+01 -.754E+00 -.241E+04   0.320E+01 0.191E+01 0.241E+04   0.981E+00 -.151E+01 0.627E+00   -.613E-01 -.277E-01 0.296E+00
   0.130E+01 0.377E+01 -.241E+04   0.522E-01 -.373E+01 0.241E+04   -.179E+01 -.973E-01 0.627E+00   0.869E-02 0.738E-01 0.297E+00
   -.130E+01 0.377E+01 -.241E+04   -.523E-01 -.373E+01 0.241E+04   0.179E+01 -.973E-01 0.627E+00   -.353E-02 0.745E-01 0.295E+00
   -.261E+01 -.301E+01 -.241E+04   0.325E+01 0.182E+01 0.241E+04   -.813E+00 0.160E+01 0.627E+00   -.546E-01 -.392E-01 0.296E+00
   0.261E+01 -.301E+01 -.241E+04   -.325E+01 0.182E+01 0.241E+04   0.813E+00 0.160E+01 0.627E+00   0.628E-01 -.403E-01 0.295E+00
   0.314E-04 -.316E-04 -.242E+04   0.144E-03 -.469E-04 0.242E+04   0.588E-17 -.256E-17 0.355E+00   -.592E-02 -.312E-02 0.372E+00
   0.354E-05 0.932E-05 -.753E+03   0.408E-04 0.362E-05 0.758E+03   0.304E-17 -.241E-18 -.337E+01   0.277E-03 0.166E-03 0.783E-01
   0.180E-03 -.979E-04 -.150E+04   0.222E-04 0.144E-05 0.153E+04   -.384E-18 -.116E-17 -.246E+02   0.311E-02 0.191E-02 0.255E-01
 -----------------------------------------------------------------------------------------------
   -.594E-03 -.850E-03 0.247E+02   -.898E-13 0.569E-13 -.705E-11   -.214E-15 -.397E-17 -.273E+02   0.172E-01 0.106E-01 0.288E+01
 
 
 POSITION                                       TOTAL-FORCE (eV/Angst)
 -----------------------------------------------------------------------------------
      0.00000      0.00000      5.28038        -0.000000      0.000000     -0.107246
      2.93784      0.00000      5.28038        -0.003068     -0.000695     -0.042174
      5.87568      0.00000      5.28038         0.003068     -0.000695     -0.042174
      1.46892      2.54424      5.28038        -0.002136     -0.002310     -0.042174
      4.40676      2.54424      5.28038        -0.000000     -0.000000     -0.070300
      7.34459      2.54424      5.28038         0.002136     -0.002310     -0.042174
      2.93784      5.08848      5.28038         0.000933      0.003005     -0.042174
      5.87568      5.08848      5.28038        -0.000933      0.003005     -0.042174
      8.81351      5.08848      5.28038        -0.000000     -0.000000     -0.048448
      1.46892      0.84808      7.67911        -0.035523     -0.020509      0.051757
      4.40676      0.84808      7.67911        -0.000000     -0.051331      0.044689
      7.34459      0.84808      7.67911         0.035523     -0.020509      0.051757
      2.93784      3.39232      7.67911        -0.044454      0.025665      0.044689
      5.87568      3.39232      7.67911         0.044454      0.025665      0.044689
      8.81351      3.39232      7.67911        -0.000000     -0.022968      0.129159
      4.40676      5.93656      7.67911         0.000000      0.041019      0.051757
      7.34459      5.93656      7.67911        -0.019891      0.011484      0.129159
     10.28243      5.93656      7.67911         0.019891      0.011484      0.129159
      8.81351      1.69636     10.07469        -0.000000     -0.034669      0.050927
      2.94338      1.69936     10.06127        -0.358346     -0.206891     -0.356432
      5.87013      1.69936     10.06127         0.358346     -0.206891     -0.356432
     10.27220      4.24631     10.06987         0.062835     -0.036278      0.072798
      4.40676      4.23400     10.06127         0.000000      0.413783     -0.356432
      7.35483      4.24631     10.06987        -0.062835     -0.036278      0.072798
     11.75117      6.78454     10.07469         0.030024      0.017334      0.050927
      5.87585      6.78454     10.07469        -0.030024      0.017334      0.050927
      8.81351      6.77283     10.06987         0.000000      0.072556      0.072798
      0.00000      0.00000     12.49672        -0.000000      0.000000     -0.058771
      2.97727      0.06002     12.55884        -0.202025     -0.381004     -0.238719
      5.83624      0.06002     12.55884         0.202025     -0.381004     -0.238719
      1.54061      2.54838     12.55884        -0.430972      0.015543     -0.238719
      7.27290      2.54838     12.55884         0.430972      0.015543     -0.238719
      2.97010      5.02433     12.55884        -0.228946      0.365461     -0.238719
      5.84341      5.02433     12.55884         0.228946      0.365461     -0.238719
      8.81351      5.08848     12.50791        -0.000000     -0.000000     -0.020271
      4.40676      2.54424     12.31155        -0.000000      0.000000      2.031721
      4.40676      2.54424     14.12006        -0.000000     -0.000000     -0.020015
 -----------------------------------------------------------------------------------
    total drift:                                0.016564      0.009720      0.363262


--------------------------------------------------------------------------------------------------------



  FREE ENERGIE OF THE ION-ELECTRON SYSTEM (eV)
  ---------------------------------------------------
  free  energy   TOTEN  =      -125.26618864 eV

  energy  without entropy=     -125.26618864  energy(sigma->0) =     -125.26618864
 


--------------------------------------------------------------------------------------------------------


    POTLOK:  cpu time    0.0433: real time    0.0433


--------------------------------------------------------------------------------------------------------


 stress matrix after NEB project (eV)
    -16.70120     -0.00000      0.00000
     -0.00000    -16.70120      0.00000
      0.00000      0.00000      3.28213
  FORCES: max atom, RMS     0.020015    0.003291
  FORCE total and by dimension    0.020015    0.020015
  Stress total and by dimension   23.846021   16.701204
     LOOP+:  cpu time   69.9505: real time   69.9623
 -----------------------------------------------------------------------------
|                                                                             |
|           W    W    AA    RRRRR   N    N  II  N    N   GGGG   !!!           |
|           W    W   A  A   R    R  NN   N  II  NN   N  G    G  !!!           |
|           W    W  A    A  R    R  N N  N  II  N N  N  G       !!!           |
|           W WW W  AAAAAA  RRRRR   N  N N  II  N  N N  G  GGG   !            |
|           WW  WW  A    A  R   R   N   NN  II  N   NN  G    G                |
|           W    W  A    A  R    R  N    N  II  N    N   GGGG   !!!           |
|                                                                             |
|     Tetrahedron method does not include variations of the Fermi             |
|     occupations, so forces and stress will be inaccurate. We suggest        |
|     using a different smearing scheme ISMEAR = 1 or 2 for metals in         |
|     relaxations.                                                            |
|                                                                             |
 -----------------------------------------------------------------------------

    4ORBIT:  cpu time    0.0000: real time    0.0000



 total charge

# of ion       s       p       d       tot
------------------------------------------
    1        0.544   0.239   8.767   9.550
    2        0.543   0.241   8.765   9.549
    3        0.543   0.241   8.765   9.549
    4        0.543   0.241   8.765   9.549
    5        0.543   0.241   8.763   9.546
    6        0.543   0.241   8.765   9.549
    7        0.543   0.241   8.765   9.549
    8        0.543   0.241   8.765   9.549
    9        0.541   0.240   8.768   9.549
   10        0.520   0.307   8.775   9.602
   11        0.519   0.308   8.776   9.603
   12        0.520   0.307   8.775   9.602
   13        0.519   0.308   8.776   9.603
   14        0.519   0.308   8.776   9.603
   15        0.515   0.309   8.773   9.597
   16        0.520   0.307   8.775   9.602
   17        0.515   0.309   8.773   9.597
   18        0.515   0.309   8.773   9.597
   19        0.518   0.295   8.775   9.588
   20        0.557   0.329   8.755   9.641
   21        0.557   0.329   8.755   9.641
   22        0.511   0.305   8.773   9.588
   23        0.557   0.329   8.755   9.641
   24        0.511   0.305   8.773   9.588
   25        0.518   0.295   8.775   9.588
   26        0.518   0.295   8.775   9.588
   27        0.511   0.305   8.773   9.588
   28        0.542   0.229   8.757   9.528
   29        0.580   0.235   8.754   9.568
   30        0.580   0.235   8.754   9.568
   31        0.580   0.235   8.754   9.568
   32        0.580   0.235   8.754   9.568
   33        0.580   0.235   8.754   9.568
   34        0.580   0.235   8.754   9.568
   35        0.541   0.231   8.755   9.527
   36        0.588   0.674   2.420   3.681
   37        1.596   3.307   0.000   4.903
--------------------------------------------------
tot         21.046  13.575 309.222 343.843
 
 BZINTS: Fermi energy:    0.584940;  395.000000 electrons
         Band energy:-0.127450E+04;  BLOECHL correction:   -0.086540

 total amount of memory used by VASP MPI-rank0   123064. kBytes
=======================================================================

   base      :      30000. kBytes
   nonlr-proj:      14679. kBytes
   fftplans  :       4330. kBytes
   grid      :      17879. kBytes
   one-center:        575. kBytes
   wavefun   :      55601. kBytes
 
  
  
 General timing and accounting informations for this job:
 ========================================================
  
                  Total CPU time used (sec):       77.308
                            User time (sec):       74.495
                          System time (sec):        2.813
                         Elapsed time (sec):       77.705
  
                   Maximum memory used (kb):      380156.
                   Average memory used (kb):          N/A
  
                          Minor page faults:        74900
                          Major page faults:            0
                 Voluntary context switches:         4698
