PROCAR new format
# of k-points:   10         # of bands:  252         # of ions:   37

 k-point     1 :    0.00000000 0.00000000 0.00000000     weight = 0.01562500

band     1 # energy  -15.65873485 # occ.  2.00000000
 
ion      s      p      d    tot
    1  0.000  0.000  0.000  0.000
    2  0.000  0.000  0.000  0.000
    3  0.000  0.000  0.000  0.000
    4  0.000  0.000  0.000  0.000
    5  0.000  0.000  0.000  0.000
    6  0.000  0.000  0.000  0.000
    7  0.000  0.000  0.000  0.000
    8  0.000  0.000  0.000  0.000
    9  0.000  0.000  0.000  0.000
   10  0.000  0.000  0.000  0.000
   11  0.000  0.000  0.000  0.000
   12  0.000  0.000  0.000  0.000
   13  0.000  0.000  0.000  0.000
   14  0.000  0.000  0.000  0.000
   15  0.000  0.000  0.000  0.000
   16  0.000  0.000  0.000  0.000
   17  0.000  0.000  0.000  0.000
   18  0.000  0.000  0.000  0.000
   19  0.000  0.000  0.000  0.000
   20  0.000  0.000  0.000  0.000
   21  0.000  0.000  0.000  0.000
   22  0.000  0.000  0.000  0.000
   23  0.000  0.000  0.000  0.000
   24  0.000  0.000  0.000  0.000
   25  0.000  0.000  0.000  0.000
   26  0.000  0.000  0.000  0.000
   27  0.000  0.000  0.000  0.000
   28  0.000  0.000  0.000  0.000
   29  0.000  0.000  0.000  0.000
   30  0.000  0.000  0.000  0.000
   31  0.000  0.000  0.000  0.000
   32  0.000  0.000  0.000  0.000
   33  0.000  0.000  0.000  0.000
   34  0.000  0.000  0.000  0.000
   35  0.000  0.000  0.000  0.000
   36  0.043  0.055  0.109  0.207
   37  0.775  0.008  0.000  0.783
tot    0.818  0.063  0.109  0.991
 
band     2 # energy   -8.24654261 # occ.  2.00000000
 
ion      s      p      d    tot
    1  0.006  0.001  0.000  0.007
    2  0.006  0.001  0.000  0.007
    3  0.006  0.001  0.000  0.007
    4  0.006  0.001  0.000  0.007
    5  0.006  0.001  0.000  0.007
    6  0.006  0.001  0.000  0.007
    7  0.006  0.001  0.000  0.007
    8  0.006  0.001  0.000  0.007
    9  0.006  0.001  0.000  0.007
   10  0.026  0.000  0.000  0.026
   11  0.027  0.000  0.000  0.027
   12  0.026  0.000  0.000  0.026
   13  0.027  0.000  0.000  0.027
   14  0.027  0.000  0.000  0.027
   15  0.025  0.000  0.000  0.026
   16  0.026  0.000  0.000  0.026
   17  0.025  0.000  0.000  0.026
   18  0.025  0.000  0.000  0.026
   19  0.023  0.000  0.000  0.024
   20  0.028  0.000  0.000  0.029
   21  0.028  0.000  0.000  0.029
   22  0.024  0.000  0.000  0.025
   23  0.028  0.000  0.000  0.029
   24  0.024  0.000  0.000  0.025
   25  0.023  0.000  0.000  0.024
   26  0.023  0.000  0.000  0.024
   27  0.024  0.000  0.000  0.025
   28  0.005  0.000  0.000  0.005
   29  0.005  0.000  0.000  0.005
   30  0.005  0.000  0.000  0.005
   31  0.005  0.000  0.000  0.005
   32  0.005  0.000  0.000  0.005
   33  0.005  0.000  0.000  0.005
   34  0.005  0.000  0.000  0.005
   35  0.005  0.000  0.000  0.005
   36  0.007  0.002  0.000  0.009
   37  0.001  0.000  0.000  0.001
tot    0.566  0.013  0.004  0.582
 
band     3 # energy   -7.08349398 # occ.  2.00000000
 
ion      s      p      d    tot
    1  0.016  0.000  0.001  0.018
    2  0.016  0.000  0.001  0.018
    3  0.016  0.000  0.001  0.018
    4  0.016  0.000  0.001  0.018
    5  0.016  0.000  0.001  0.018
    6  0.016  0.000  0.001  0.018
    7  0.016  0.000  0.001  0.018
    8  0.016  0.000  0.001  0.018
    9  0.017  0.000  0.001  0.018
   10  0.011  0.001  0.003  0.015
   11  0.010  0.001  0.003  0.014
   12  0.011  0.001  0.003  0.015
   13  0.010  0.001  0.003  0.014
   14  0.010  0.001  0.003  0.014
   15  0.011  0.001  0.002  0.015
   16  0.011  0.001  0.003  0.015
   17  0.011  0.001  0.002  0.015
   18  0.011  0.001  0.002  0.015
   19  0.011  0.001  0.003  0.016
   20  0.016  0.001  0.003  0.021
   21  0.016  0.001  0.003  0.021
   22  0.013  0.001  0.003  0.017
   23  0.016  0.001  0.003  0.021
   24  0.013  0.001  0.003  0.017
   25  0.011  0.001  0.003  0.016
   26  0.011  0.001  0.003  0.016
   27  0.013  0.001  0.003  0.017
   28  0.014  0.000  0.001  0.015
   29  0.015  0.001  0.001  0.016
   30  0.015  0.001  0.001  0.016
   31  0.015  0.001  0.001  0.016
   32  0.015  0.001  0.001  0.016
   33  0.015  0.001  0.001  0.016
   34  0.015  0.001  0.001  0.016
   35  0.014  0.000  0.001  0.015
   36  0.017  0.002  0.001  0.020
   37  0.001  0.000  0.000  0.001
tot    0.500  0.033  0.070  0.603
 
band     4 # energy   -6.14237562 # occ.  2.00000000
 
ion      s      p      d    tot
    1  0.000  0.000  0.007  0.008
    2  0.005  0.000  0.006  0.011
    3  0.005  0.000  0.006  0.011
    4  0.005  0.000  0.006  0.011
    5  0.003  0.000  0.003  0.006
    6  0.005  0.000  0.005  0.011
    7  0.005  0.000  0.006  0.011
    8  0.005  0.000  0.005  0.011
    9  0.020  0.001  0.002  0.022
   10  0.008  0.001  0.010  0.019
   11  0.006  0.002  0.006  0.013
   12  0.008  0.001  0.010  0.019
   13  0.006  0.002  0.006  0.013
   14  0.005  0.002  0.006  0.013
   15  0.007  0.001  0.005  0.013
   16  0.008  0.001  0.010  0.019
   17  0.007  0.001  0.005  0.013
   18  0.007  0.001  0.005  0.013
   19  0.001  0.001  0.018  0.020
   20  0.024  0.002  0.020  0.046
   21  0.024  0.002  0.021  0.046
   22  0.004  0.001  0.008  0.013
   23  0.024  0.002  0.021  0.046
   24  0.004  0.001  0.008  0.013
   25  0.001  0.001  0.018  0.020
   26  0.001  0.001  0.018  0.020
   27  0.004  0.001  0.008  0.013
   28  0.015  0.000  0.005  0.020
   29  0.013  0.000  0.011  0.025
   30  0.013  0.000  0.011  0.025
   31  0.013  0.000  0.011  0.025
   32  0.013  0.000  0.011  0.025
   33  0.013  0.000  0.011  0.025
   34  0.013  0.000  0.011  0.025
   35  0.029  0.000  0.006  0.036
   36  0.000  0.003  0.014  0.017
   37  0.000  0.001  0.000  0.001
tot    0.325  0.031  0.338  0.694
 
band     5 # energy   -6.11934799 # occ.  2.00000000
 
ion      s      p      d    tot
    1  0.000  0.000  0.008  0.008
    2  0.003  0.001  0.002  0.006
    3  0.000  0.000  0.003  0.004
    4  0.003  0.001  0.002  0.006
    5  0.000  0.001  0.006  0.007
    6  0.006  0.001  0.003  0.010
    7  0.001  0.000  0.003  0.004
    8  0.006  0.001  0.003  0.010
    9  0.000  0.000  0.001  0.001
   10  0.036  0.002  0.005  0.043
   11  0.012  0.003  0.020  0.035
   12  0.009  0.001  0.026  0.036
   13  0.012  0.003  0.020  0.035
   14  0.048  0.001  0.012  0.061
   15  0.000  0.002  0.007  0.009
   16  0.009  0.001  0.026  0.036
   17  0.000  0.002  0.007  0.009
   18  0.001  0.000  0.011  0.012
   19  0.003  0.003  0.006  0.012
   20  0.066  0.001  0.010  0.077
   21  0.017  0.002  0.033  0.052
   22  0.004  0.001  0.021  0.026
   23  0.016  0.002  0.033  0.051
   24  0.015  0.002  0.005  0.022
   25  0.012  0.000  0.013  0.025
   26  0.003  0.003  0.006  0.012
   27  0.004  0.001  0.021  0.026
   28  0.000  0.000  0.001  0.002
   29  0.006  0.001  0.004  0.012
   30  0.002  0.001  0.003  0.005
   31  0.006  0.001  0.004  0.012
   32  0.001  0.000  0.002  0.004
   33  0.002  0.001  0.003  0.005
   34  0.001  0.000  0.002  0.004
   35  0.000  0.000  0.004  0.004
   36  0.000  0.003  0.007  0.010
   37  0.000  0.000  0.000  0.000
tot    0.305  0.044  0.346  0.695
 
band     6 # energy   -6.11931964 # occ.  2.00000000
 
ion      s      p      d    tot
    1  0.000  0.000  0.008  0.008
    2  0.003  0.001  0.003  0.007
    3  0.006  0.001  0.003  0.010
    4  0.003  0.001  0.003  0.007
    5  0.000  0.001  0.006  0.007
    6  0.000  0.000  0.002  0.003
    7  0.006  0.001  0.003  0.010
    8  0.000  0.000  0.002  0.003
    9  0.000  0.000  0.001  0.001
   10  0.000  0.000  0.034  0.034
   11  0.036  0.001  0.014  0.052
   12  0.027  0.002  0.012  0.041
   13  0.036  0.001  0.014  0.052
   14  0.000  0.004  0.023  0.026
   15  0.001  0.001  0.010  0.011
   16  0.027  0.002  0.012  0.041
   17  0.001  0.001  0.010  0.011
   18  0.000  0.003  0.005  0.008
   19  0.009  0.001  0.011  0.021
   20  0.000  0.002  0.041  0.043
   21  0.049  0.001  0.018  0.068
   22  0.012  0.001  0.011  0.024
   23  0.050  0.001  0.018  0.069
   24  0.000  0.001  0.027  0.027
   25  0.000  0.004  0.003  0.007
   26  0.008  0.001  0.011  0.020
   27  0.012  0.001  0.011  0.024
   28  0.000  0.000  0.001  0.002
   29  0.000  0.000  0.002  0.003
   30  0.004  0.001  0.003  0.009
   31  0.000  0.000  0.002  0.003
   32  0.005  0.001  0.004  0.010
   33  0.004  0.001  0.003  0.009
   34  0.005  0.001  0.004  0.010
   35  0.000  0.000  0.004  0.004
   36  0.000  0.003  0.007  0.010
   37  0.000  0.000  0.000  0.000
tot    0.305  0.044  0.346  0.695
 
band     7 # energy   -6.10486069 # occ.  2.00000000
 
ion      s      p      d    tot
    1  0.026  0.000  0.010  0.036
    2  0.015  0.000  0.016  0.032
    3  0.015  0.000  0.016  0.032
    4  0.015  0.000  0.016  0.032
    5  0.023  0.000  0.015  0.038
    6  0.015  0.000  0.016  0.032
    7  0.015  0.000  0.016  0.032
    8  0.015  0.000  0.016  0.032
    9  0.004  0.001  0.020  0.024
   10  0.001  0.000  0.027  0.029
   11  0.000  0.001  0.020  0.021
   12  0.001  0.000  0.027  0.029
   13  0.000  0.001  0.020  0.021
   14  0.000  0.001  0.020  0.021
   15  0.028  0.002  0.011  0.041
   16  0.001  0.000  0.027  0.029
   17  0.028  0.002  0.011  0.041
   18  0.028  0.002  0.011  0.041
   19  0.001  0.001  0.010  0.011
   20  0.008  0.001  0.007  0.016
   21  0.008  0.001  0.007  0.016
   22  0.006  0.002  0.002  0.010
   23  0.008  0.001  0.007  0.016
   24  0.006  0.002  0.002  0.010
   25  0.000  0.001  0.010  0.011
   26  0.001  0.001  0.010  0.011
   27  0.006  0.002  0.002  0.010
   28  0.001  0.000  0.002  0.003
   29  0.002  0.000  0.002  0.004
   30  0.002  0.000  0.002  0.004
   31  0.002  0.000  0.002  0.004
   32  0.002  0.000  0.002  0.004
   33  0.002  0.000  0.002  0.004
   34  0.002  0.000  0.002  0.004
   35  0.000  0.000  0.001  0.001
   36  0.011  0.002  0.000  0.013
   37  0.001  0.000  0.000  0.001
tot    0.303  0.024  0.387  0.714
 
band     8 # energy   -6.08209400 # occ.  2.00000000
 
ion      s      p      d    tot
    1  0.002  0.000  0.004  0.007
    2  0.002  0.000  0.005  0.007
    3  0.002  0.000  0.005  0.007
    4  0.002  0.000  0.005  0.007
    5  0.001  0.001  0.004  0.006
    6  0.002  0.000  0.005  0.007
    7  0.002  0.000  0.005  0.007
    8  0.002  0.000  0.005  0.007
    9  0.010  0.000  0.001  0.011
   10  0.000  0.001  0.019  0.020
   11  0.022  0.001  0.006  0.029
   12  0.000  0.001  0.019  0.020
   13  0.022  0.001  0.006  0.029
   14  0.022  0.001  0.006  0.029
   15  0.001  0.000  0.023  0.024
   16  0.000  0.001  0.019  0.020
   17  0.001  0.000  0.023  0.024
   18  0.001  0.000  0.023  0.024
   19  0.020  0.000  0.015  0.035
   20  0.001  0.001  0.033  0.034
   21  0.001  0.001  0.033  0.034
   22  0.006  0.001  0.021  0.028
   23  0.001  0.001  0.033  0.034
   24  0.006  0.001  0.021  0.028
   25  0.020  0.000  0.015  0.035
   26  0.020  0.000  0.015  0.035
   27  0.006  0.001  0.021  0.028
   28  0.001  0.001  0.012  0.014
   29  0.009  0.000  0.010  0.019
   30  0.009  0.000  0.010  0.019
   31  0.009  0.000  0.010  0.019
   32  0.009  0.000  0.010  0.019
   33  0.009  0.000  0.010  0.019
   34  0.009  0.000  0.010  0.019
   35  0.008  0.000  0.006  0.014
   36  0.018  0.000  0.007  0.024
   37  0.000  0.000  0.000  0.000
tot    0.255  0.017  0.474  0.747
 
band     9 # energy   -6.06825174 # occ.  2.00000000
 
ion      s      p      d    tot
    1  0.009  0.002  0.002  0.012
    2  0.000  0.001  0.005  0.006
    3  0.000  0.001  0.005  0.006
    4  0.000  0.001  0.005  0.006
    5  0.011  0.001  0.001  0.013
    6  0.000  0.001  0.005  0.006
    7  0.000  0.001  0.005  0.006
    8  0.000  0.001  0.005  0.006
    9  0.000  0.000  0.001  0.001
   10  0.028  0.002  0.001  0.031
   11  0.011  0.000  0.026  0.037
   12  0.028  0.002  0.001  0.031
   13  0.011  0.000  0.026  0.037
   14  0.011  0.000  0.026  0.037
   15  0.000  0.001  0.016  0.018
   16  0.028  0.002  0.001  0.031
   17  0.000  0.001  0.016  0.018
   18  0.000  0.001  0.016  0.018
   19  0.013  0.002  0.009  0.024
   20  0.004  0.002  0.026  0.032
   21  0.004  0.002  0.026  0.032
   22  0.019  0.000  0.021  0.041
   23  0.004  0.002  0.026  0.032
   24  0.019  0.000  0.021  0.041
   25  0.013  0.002  0.009  0.023
   26  0.013  0.002  0.009  0.024
   27  0.019  0.000  0.021  0.041
   28  0.020  0.001  0.001  0.022
   29  0.003  0.000  0.006  0.010
   30  0.003  0.000  0.006  0.010
   31  0.003  0.000  0.006  0.010
   32  0.003  0.000  0.006  0.010
   33  0.003  0.000  0.006  0.010
   34  0.003  0.000  0.006  0.010
   35  0.000  0.001  0.009  0.010
   36  0.002  0.000  0.001  0.003
   37  0.000  0.000  0.000  0.000
tot    0.289  0.034  0.380  0.704
 
band    10 # energy   -6.03920623 # occ.  2.00000000
 
ion      s      p      d    tot
    1  0.000  0.001  0.003  0.004
    2  0.004  0.001  0.003  0.008
    3  0.000  0.000  0.004  0.004
    4  0.005  0.001  0.003  0.009
    5  0.000  0.000  0.005  0.005
    6  0.008  0.001  0.004  0.013
    7  0.001  0.000  0.004  0.005
    8  0.008  0.001  0.004  0.013
    9  0.000  0.001  0.011  0.012
   10  0.000  0.005  0.004  0.008
   11  0.008  0.001  0.012  0.020
   12  0.017  0.001  0.013  0.032
   13  0.007  0.001  0.012  0.021
   14  0.000  0.001  0.026  0.028
   15  0.048  0.001  0.014  0.064
   16  0.018  0.001  0.014  0.033
   17  0.046  0.001  0.015  0.063
   18  0.000  0.001  0.041  0.042
   19  0.030  0.002  0.011  0.043
   20  0.000  0.002  0.011  0.014
   21  0.000  0.001  0.014  0.015
   22  0.026  0.001  0.013  0.041
   23  0.000  0.001  0.014  0.015
   24  0.000  0.004  0.016  0.020
   25  0.000  0.000  0.036  0.037
   26  0.029  0.002  0.012  0.042
   27  0.028  0.001  0.012  0.042
   28  0.000  0.000  0.006  0.007
   29  0.004  0.001  0.002  0.007
   30  0.002  0.000  0.002  0.005
   31  0.004  0.001  0.002  0.007
   32  0.000  0.000  0.002  0.002
   33  0.002  0.000  0.002  0.005
   34  0.000  0.000  0.002  0.002
   35  0.000  0.001  0.004  0.005
   36  0.000  0.000  0.001  0.001
   37  0.000  0.000  0.000  0.000
tot    0.297  0.041  0.355  0.693
 
band    11 # energy   -6.03919416 # occ.  2.00000000
 
ion      s      p      d    tot
    1  0.000  0.001  0.003  0.004
    2  0.004  0.001  0.004  0.009
    3  0.008  0.001  0.004  0.013
    4  0.004  0.001  0.004  0.009
    5  0.000  0.000  0.005  0.005
    6  0.001  0.000  0.003  0.004
    7  0.008  0.001  0.004  0.013
    8  0.001  0.000  0.003  0.004
    9  0.000  0.001  0.011  0.012
   10  0.024  0.000  0.017  0.041
   11  0.002  0.001  0.022  0.026
   12  0.007  0.003  0.007  0.017
   13  0.003  0.001  0.021  0.025
   14  0.010  0.001  0.007  0.018
   15  0.014  0.001  0.033  0.049
   16  0.006  0.004  0.007  0.016
   17  0.017  0.001  0.032  0.050
   18  0.063  0.002  0.006  0.070
   19  0.009  0.001  0.029  0.038
   20  0.000  0.001  0.015  0.015
   21  0.000  0.002  0.012  0.014
   22  0.010  0.003  0.015  0.028
   23  0.000  0.002  0.012  0.014
   24  0.036  0.001  0.011  0.048
   25  0.039  0.002  0.003  0.045
   26  0.011  0.001  0.027  0.039
   27  0.008  0.003  0.015  0.027
   28  0.000  0.000  0.006  0.007
   29  0.000  0.000  0.002  0.002
   30  0.002  0.000  0.002  0.004
   31  0.000  0.000  0.002  0.002
   32  0.004  0.001  0.003  0.007
   33  0.002  0.000  0.002  0.005
   34  0.004  0.001  0.003  0.007
   35  0.000  0.001  0.004  0.005
   36  0.000  0.000  0.001  0.001
   37  0.000  0.000  0.000  0.000
tot    0.297  0.041  0.355  0.693
 
band    12 # energy   -5.63943255 # occ.  2.00000000
 
ion      s      p      d    tot
    1  0.000  0.001  0.004  0.005
    2  0.001  0.001  0.005  0.006
    3  0.009  0.001  0.004  0.015
    4  0.001  0.001  0.005  0.006
    5  0.000  0.001  0.010  0.011
    6  0.005  0.001  0.004  0.009
    7  0.009  0.001  0.004  0.015
    8  0.004  0.001  0.004  0.009
    9  0.000  0.000  0.008  0.008
   10  0.000  0.001  0.050  0.051
   11  0.017  0.001  0.020  0.038
   12  0.008  0.001  0.018  0.027
   13  0.017  0.001  0.020  0.038
   14  0.000  0.000  0.047  0.047
   15  0.001  0.000  0.019  0.021
   16  0.008  0.001  0.018  0.028
   17  0.001  0.000  0.019  0.021
   18  0.000  0.001  0.011  0.012
   19  0.004  0.000  0.018  0.023
   20  0.000  0.000  0.087  0.087
   21  0.015  0.001  0.027  0.043
   22  0.003  0.001  0.019  0.023
   23  0.015  0.001  0.027  0.043
   24  0.000  0.001  0.031  0.032
   25  0.000  0.001  0.011  0.012
   26  0.004  0.000  0.018  0.023
   27  0.003  0.001  0.019  0.023
   28  0.000  0.000  0.008  0.008
   29  0.003  0.001  0.005  0.009
   30  0.009  0.001  0.005  0.015
   31  0.003  0.001  0.005  0.009
   32  0.001  0.001  0.004  0.006
   33  0.009  0.001  0.005  0.015
   34  0.001  0.001  0.004  0.006
   35  0.000  0.000  0.003  0.003
   36  0.000  0.004  0.006  0.010
   37  0.000  0.000  0.000  0.000
tot    0.151  0.031  0.571  0.753
 
band    13 # energy   -5.63939535 # occ.  2.00000000
 
ion      s      p      d    tot
    1  0.000  0.001  0.004  0.005
    2  0.009  0.001  0.004  0.014
    3  0.001  0.000  0.004  0.005
    4  0.009  0.001  0.004  0.014
    5  0.000  0.001  0.010  0.011
    6  0.005  0.001  0.005  0.011
    7  0.001  0.000  0.004  0.005
    8  0.005  0.001  0.005  0.011
    9  0.000  0.000  0.008  0.008
   10  0.010  0.002  0.008  0.020
   11  0.006  0.000  0.038  0.044
   12  0.003  0.001  0.040  0.043
   13  0.006  0.000  0.038  0.044
   14  0.023  0.001  0.011  0.035
   15  0.000  0.001  0.014  0.015
   16  0.003  0.001  0.040  0.043
   17  0.000  0.001  0.014  0.015
   18  0.002  0.000  0.021  0.023
   19  0.001  0.001  0.013  0.015
   20  0.020  0.001  0.007  0.029
   21  0.005  0.000  0.067  0.072
   22  0.001  0.001  0.027  0.029
   23  0.005  0.000  0.067  0.072
   24  0.004  0.001  0.015  0.020
   25  0.005  0.000  0.021  0.026
   26  0.001  0.001  0.013  0.015
   27  0.001  0.001  0.027  0.029
   28  0.000  0.000  0.008  0.008
   29  0.005  0.001  0.004  0.010
   30  0.000  0.000  0.004  0.005
   31  0.005  0.001  0.004  0.010
   32  0.007  0.001  0.005  0.014
   33  0.000  0.000  0.004  0.005
   34  0.007  0.001  0.005  0.014
   35  0.000  0.000  0.003  0.003
   36  0.000  0.004  0.006  0.010
   37  0.000  0.000  0.000  0.000
tot    0.151  0.031  0.571  0.753
 
band    14 # energy   -5.62965267 # occ.  2.00000000
 
ion      s      p      d    tot
    1  0.013  0.002  0.002  0.017
    2  0.000  0.001  0.007  0.008
    3  0.000  0.001  0.007  0.008
    4  0.000  0.001  0.007  0.008
    5  0.000  0.000  0.002  0.002
    6  0.000  0.001  0.007  0.008
    7  0.000  0.001  0.007  0.008
    8  0.000  0.001  0.007  0.008
    9  0.015  0.001  0.000  0.017
   10  0.011  0.001  0.014  0.026
   11  0.002  0.000  0.045  0.048
   12  0.011  0.001  0.014  0.026
   13  0.002  0.000  0.045  0.048
   14  0.002  0.000  0.045  0.048
   15  0.004  0.001  0.019  0.024
   16  0.011  0.001  0.014  0.026
   17  0.004  0.001  0.019  0.024
   18  0.004  0.001  0.019  0.024
   19  0.003  0.001  0.013  0.017
   20  0.001  0.000  0.058  0.060
   21  0.001  0.000  0.058  0.059
   22  0.011  0.001  0.018  0.029
   23  0.001  0.000  0.058  0.059
   24  0.011  0.001  0.018  0.029
   25  0.003  0.001  0.013  0.017
   26  0.003  0.001  0.013  0.017
   27  0.011  0.001  0.018  0.029
   28  0.013  0.001  0.000  0.014
   29  0.000  0.000  0.006  0.007
   30  0.000  0.000  0.006  0.007
   31  0.000  0.000  0.006  0.007
   32  0.000  0.000  0.006  0.007
   33  0.000  0.000  0.006  0.007
   34  0.000  0.000  0.006  0.007
   35  0.005  0.001  0.003  0.009
   36  0.001  0.000  0.001  0.002
   37  0.000  0.000  0.000  0.000
tot    0.142  0.025  0.592  0.759
 
band    15 # energy   -5.59265885 # occ.  2.00000000
 
ion      s      p      d    tot
    1  0.005  0.000  0.001  0.006
    2  0.000  0.001  0.008  0.009
    3  0.000  0.001  0.008  0.009
    4  0.000  0.001  0.008  0.009
    5  0.018  0.002  0.000  0.020
    6  0.000  0.001  0.008  0.009
    7  0.000  0.001  0.008  0.009
    8  0.000  0.001  0.008  0.009
    9  0.004  0.001  0.002  0.007
   10  0.000  0.000  0.042  0.042
   11  0.007  0.002  0.007  0.016
   12  0.000  0.000  0.042  0.042
   13  0.007  0.002  0.007  0.016
   14  0.008  0.002  0.007  0.016
   15  0.010  0.001  0.026  0.036
   16  0.000  0.000  0.042  0.042
   17  0.010  0.001  0.026  0.036
   18  0.010  0.001  0.025  0.036
   19  0.011  0.001  0.032  0.044
   20  0.008  0.002  0.013  0.023
   21  0.008  0.002  0.013  0.023
   22  0.000  0.000  0.036  0.036
   23  0.008  0.002  0.013  0.023
   24  0.000  0.000  0.036  0.036
   25  0.011  0.001  0.032  0.044
   26  0.011  0.001  0.032  0.044
   27  0.000  0.000  0.036  0.036
   28  0.003  0.001  0.003  0.007
   29  0.000  0.001  0.007  0.008
   30  0.000  0.001  0.007  0.008
   31  0.000  0.001  0.007  0.008
   32  0.000  0.001  0.007  0.008
   33  0.000  0.001  0.007  0.008
   34  0.000  0.001  0.007  0.008
   35  0.003  0.000  0.000  0.004
   36  0.021  0.005  0.000  0.026
   37  0.001  0.002  0.000  0.002
tot    0.164  0.037  0.561  0.762
 
band    16 # energy   -5.55604568 # occ.  2.00000000
 
ion      s      p      d    tot
    1  0.000  0.001  0.014  0.015
    2  0.009  0.001  0.004  0.015
    3  0.001  0.000  0.005  0.007
    4  0.009  0.001  0.004  0.015
    5  0.000  0.000  0.005  0.006
    6  0.004  0.001  0.005  0.010
    7  0.001  0.000  0.005  0.007
    8  0.004  0.001  0.005  0.010
    9  0.000  0.001  0.006  0.008
   10  0.000  0.001  0.030  0.030
   11  0.000  0.001  0.020  0.021
   12  0.008  0.000  0.022  0.030
   13  0.000  0.001  0.020  0.021
   14  0.000  0.001  0.018  0.019
   15  0.011  0.002  0.020  0.032
   16  0.008  0.000  0.022  0.030
   17  0.011  0.002  0.020  0.032
   18  0.000  0.000  0.062  0.063
   19  0.013  0.001  0.020  0.034
   20  0.000  0.002  0.022  0.023
   21  0.000  0.001  0.025  0.026
   22  0.017  0.001  0.020  0.037
   23  0.000  0.001  0.025  0.026
   24  0.000  0.000  0.031  0.031
   25  0.000  0.000  0.067  0.067
   26  0.013  0.001  0.020  0.034
   27  0.017  0.001  0.020  0.037
   28  0.000  0.001  0.005  0.006
   29  0.006  0.001  0.004  0.010
   30  0.000  0.000  0.005  0.006
   31  0.006  0.001  0.004  0.010
   32  0.005  0.001  0.003  0.008
   33  0.000  0.000  0.005  0.006
   34  0.005  0.001  0.003  0.008
   35  0.000  0.001  0.008  0.009
   36  0.000  0.000  0.002  0.002
   37  0.000  0.000  0.000  0.000
tot    0.148  0.028  0.574  0.750
 
band    17 # energy   -5.55601423 # occ.  2.00000000
 
ion      s      p      d    tot
    1  0.000  0.001  0.014  0.015
    2  0.000  0.000  0.005  0.006
    3  0.008  0.001  0.005  0.014
    4  0.000  0.000  0.005  0.006
    5  0.000  0.000  0.005  0.006
    6  0.006  0.001  0.004  0.011
    7  0.008  0.001  0.005  0.014
    8  0.006  0.001  0.004  0.011
    9  0.000  0.001  0.006  0.008
   10  0.011  0.000  0.019  0.030
   11  0.000  0.001  0.018  0.020
   12  0.003  0.001  0.027  0.030
   13  0.000  0.001  0.018  0.020
   14  0.001  0.001  0.021  0.022
   15  0.004  0.001  0.048  0.052
   16  0.003  0.001  0.027  0.030
   17  0.004  0.001  0.048  0.053
   18  0.014  0.002  0.006  0.022
   19  0.004  0.001  0.051  0.056
   20  0.000  0.000  0.026  0.026
   21  0.000  0.001  0.023  0.024
   22  0.006  0.001  0.027  0.033
   23  0.000  0.001  0.023  0.024
   24  0.022  0.001  0.016  0.039
   25  0.018  0.001  0.004  0.023
   26  0.004  0.001  0.051  0.056
   27  0.006  0.001  0.027  0.033
   28  0.000  0.001  0.005  0.006
   29  0.001  0.000  0.004  0.006
   30  0.007  0.001  0.002  0.010
   31  0.001  0.000  0.004  0.006
   32  0.002  0.001  0.005  0.008
   33  0.007  0.001  0.002  0.010
   34  0.002  0.001  0.005  0.008
   35  0.000  0.001  0.008  0.009
   36  0.000  0.000  0.002  0.002
   37  0.000  0.000  0.000  0.000
tot    0.148  0.028  0.574  0.750
 
band    18 # energy   -5.25394054 # occ.  2.00000000
 
ion      s      p      d    tot
    1  0.000  0.000  0.017  0.017
    2  0.002  0.001  0.007  0.009
    3  0.002  0.000  0.011  0.013
    4  0.002  0.001  0.007  0.009
    5  0.000  0.001  0.018  0.019
    6  0.008  0.001  0.008  0.016
    7  0.002  0.000  0.011  0.013
    8  0.008  0.001  0.008  0.016
    9  0.000  0.001  0.003  0.004
   10  0.000  0.000  0.020  0.021
   11  0.000  0.000  0.052  0.052
   12  0.000  0.000  0.013  0.013
   13  0.000  0.000  0.052  0.052
   14  0.001  0.000  0.050  0.051
   15  0.000  0.000  0.012  0.012
   16  0.000  0.000  0.013  0.013
   17  0.000  0.000  0.012  0.012
   18  0.000  0.000  0.024  0.024
   19  0.000  0.000  0.009  0.010
   20  0.001  0.000  0.087  0.088
   21  0.000  0.000  0.058  0.059
   22  0.000  0.000  0.025  0.025
   23  0.000  0.000  0.058  0.059
   24  0.001  0.000  0.021  0.022
   25  0.000  0.000  0.015  0.015
   26  0.000  0.000  0.009  0.010
   27  0.000  0.000  0.025  0.025
   28  0.000  0.001  0.007  0.008
   29  0.010  0.001  0.017  0.028
   30  0.001  0.000  0.011  0.013
   31  0.010  0.001  0.017  0.028
   32  0.005  0.001  0.008  0.013
   33  0.001  0.000  0.012  0.013
   34  0.005  0.001  0.008  0.013
   35  0.000  0.000  0.023  0.023
   36  0.000  0.004  0.007  0.011
   37  0.000  0.000  0.000  0.000
tot    0.061  0.018  0.753  0.832
 
band    19 # energy   -5.25391462 # occ.  2.00000000
 
ion      s      p      d    tot
    1  0.000  0.000  0.017  0.017
    2  0.006  0.000  0.010  0.017
    3  0.006  0.001  0.006  0.013
    4  0.006  0.000  0.010  0.017
    5  0.000  0.001  0.018  0.019
    6  0.000  0.000  0.009  0.010
    7  0.006  0.001  0.006  0.013
    8  0.000  0.000  0.009  0.010
    9  0.000  0.001  0.003  0.004
   10  0.000  0.000  0.011  0.011
   11  0.000  0.000  0.051  0.051
   12  0.000  0.000  0.018  0.018
   13  0.000  0.000  0.051  0.051
   14  0.000  0.000  0.052  0.053
   15  0.000  0.000  0.020  0.020
   16  0.000  0.000  0.018  0.018
   17  0.000  0.000  0.020  0.020
   18  0.000  0.000  0.008  0.008
   19  0.000  0.000  0.013  0.013
   20  0.000  0.000  0.049  0.049
   21  0.001  0.000  0.077  0.078
   22  0.001  0.000  0.022  0.023
   23  0.001  0.000  0.077  0.078
   24  0.000  0.000  0.026  0.027
   25  0.000  0.000  0.008  0.008
   26  0.000  0.000  0.013  0.013
   27  0.001  0.000  0.022  0.023
   28  0.000  0.001  0.007  0.008
   29  0.001  0.000  0.007  0.008
   30  0.010  0.001  0.012  0.023
   31  0.001  0.000  0.007  0.008
   32  0.006  0.001  0.016  0.023
   33  0.010  0.001  0.012  0.023
   34  0.006  0.001  0.016  0.023
   35  0.000  0.000  0.023  0.023
   36  0.000  0.004  0.007  0.011
   37  0.000  0.000  0.000  0.000
tot    0.061  0.018  0.753  0.832
 
band    20 # energy   -5.25176565 # occ.  2.00000000
 
ion      s      p      d    tot
    1  0.008  0.000  0.006  0.014
    2  0.000  0.001  0.011  0.012
    3  0.000  0.001  0.011  0.012
    4  0.000  0.001  0.011  0.012
    5  0.002  0.001  0.006  0.009
    6  0.000  0.001  0.011  0.012
    7  0.000  0.001  0.011  0.012
    8  0.000  0.001  0.011  0.012
    9  0.018  0.001  0.000  0.019
   10  0.000  0.000  0.022  0.023
   11  0.000  0.000  0.039  0.039
   12  0.000  0.000  0.023  0.023
   13  0.000  0.000  0.039  0.039
   14  0.000  0.000  0.039  0.039
   15  0.000  0.000  0.027  0.028
   16  0.000  0.000  0.023  0.023
   17  0.000  0.000  0.027  0.028
   18  0.000  0.000  0.028  0.028
   19  0.000  0.000  0.022  0.022
   20  0.001  0.000  0.048  0.049
   21  0.001  0.000  0.048  0.049
   22  0.000  0.000  0.028  0.028
   23  0.001  0.000  0.048  0.049
   24  0.000  0.000  0.028  0.028
   25  0.000  0.000  0.022  0.022
   26  0.000  0.000  0.022  0.022
   27  0.000  0.000  0.028  0.028
   28  0.001  0.000  0.003  0.005
   29  0.000  0.001  0.017  0.018
   30  0.000  0.001  0.017  0.018
   31  0.000  0.001  0.017  0.018
   32  0.000  0.001  0.017  0.018
   33  0.000  0.001  0.017  0.018
   34  0.000  0.001  0.017  0.018
   35  0.019  0.001  0.001  0.021
   36  0.006  0.000  0.007  0.013
   37  0.000  0.000  0.000  0.000
tot    0.059  0.016  0.754  0.829
 
band    21 # energy   -5.22823402 # occ.  2.00000000
 
ion      s      p      d    tot
    1  0.002  0.000  0.001  0.004
    2  0.000  0.001  0.016  0.017
    3  0.000  0.001  0.016  0.016
    4  0.000  0.001  0.016  0.017
    5  0.016  0.000  0.005  0.021
    6  0.000  0.001  0.016  0.016
    7  0.000  0.001  0.016  0.016
    8  0.000  0.001  0.016  0.016
    9  0.007  0.000  0.010  0.018
   10  0.000  0.000  0.023  0.023
   11  0.000  0.000  0.023  0.023
   12  0.000  0.000  0.023  0.023
   13  0.000  0.000  0.023  0.023
   14  0.000  0.000  0.023  0.024
   15  0.000  0.000  0.031  0.031
   16  0.000  0.000  0.023  0.023
   17  0.000  0.000  0.031  0.031
   18  0.000  0.000  0.031  0.031
   19  0.000  0.000  0.027  0.028
   20  0.000  0.000  0.030  0.030
   21  0.000  0.000  0.030  0.030
   22  0.001  0.000  0.023  0.024
   23  0.000  0.000  0.030  0.030
   24  0.001  0.000  0.023  0.024
   25  0.000  0.000  0.027  0.027
   26  0.000  0.000  0.027  0.028
   27  0.001  0.000  0.023  0.024
   28  0.023  0.000  0.009  0.032
   29  0.000  0.000  0.025  0.025
   30  0.000  0.000  0.025  0.025
   31  0.000  0.000  0.025  0.025
   32  0.000  0.000  0.025  0.025
   33  0.000  0.000  0.025  0.025
   34  0.000  0.000  0.025  0.025
   35  0.006  0.000  0.007  0.013
   36  0.007  0.002  0.000  0.009