PROCAR new format
# of k-points:   10         # of bands:  252         # of ions:   36

 k-point     1 :    0.00000000 0.00000000 0.00000000     weight = 0.01562500

band     1 # energy   -8.71598576 # occ.  2.00000000
 
ion      s      p      d    tot
    1  0.007  0.001  0.000  0.008
    2  0.007  0.001  0.000  0.008
    3  0.007  0.001  0.000  0.008
    4  0.007  0.001  0.000  0.008
    5  0.007  0.001  0.000  0.008
    6  0.007  0.001  0.000  0.008
    7  0.007  0.001  0.000  0.008
    8  0.007  0.001  0.000  0.008
    9  0.007  0.001  0.000  0.008
   10  0.025  0.000  0.000  0.025
   11  0.025  0.000  0.000  0.025
   12  0.025  0.000  0.000  0.025
   13  0.025  0.000  0.000  0.025
   14  0.025  0.000  0.000  0.025
   15  0.025  0.000  0.000  0.025
   16  0.025  0.000  0.000  0.025
   17  0.025  0.000  0.000  0.025
   18  0.025  0.000  0.000  0.025
   19  0.024  0.000  0.000  0.025
   20  0.024  0.000  0.000  0.025
   21  0.024  0.000  0.000  0.025
   22  0.024  0.000  0.000  0.025
   23  0.024  0.000  0.000  0.025
   24  0.024  0.000  0.000  0.025
   25  0.024  0.000  0.000  0.025
   26  0.024  0.000  0.000  0.025
   27  0.024  0.000  0.000  0.025
   28  0.006  0.001  0.000  0.007
   29  0.006  0.001  0.000  0.007
   30  0.006  0.001  0.000  0.007
   31  0.006  0.001  0.000  0.007
   32  0.006  0.001  0.000  0.007
   33  0.006  0.001  0.000  0.007
   34  0.006  0.001  0.000  0.007
   35  0.006  0.001  0.000  0.007
   36  0.007  0.001  0.000  0.007
tot    0.565  0.017  0.001  0.582
 
band     2 # energy   -7.39773516 # occ.  2.00000000
 
ion      s      p      d    tot
    1  0.018  0.001  0.001  0.020
    2  0.018  0.001  0.001  0.020
    3  0.018  0.001  0.001  0.020
    4  0.018  0.001  0.001  0.020
    5  0.018  0.001  0.001  0.020
    6  0.018  0.001  0.001  0.020
    7  0.018  0.001  0.001  0.020
    8  0.018  0.001  0.001  0.020
    9  0.018  0.001  0.001  0.020
   10  0.009  0.002  0.001  0.012
   11  0.010  0.002  0.001  0.012
   12  0.009  0.002  0.001  0.012
   13  0.010  0.002  0.001  0.012
   14  0.010  0.002  0.001  0.012
   15  0.009  0.002  0.001  0.012
   16  0.009  0.002  0.001  0.012
   17  0.009  0.002  0.001  0.012
   18  0.009  0.002  0.001  0.012
   19  0.012  0.002  0.001  0.014
   20  0.010  0.002  0.001  0.013
   21  0.010  0.002  0.001  0.013
   22  0.011  0.002  0.001  0.014
   23  0.010  0.002  0.001  0.013
   24  0.011  0.002  0.001  0.014
   25  0.012  0.002  0.001  0.014
   26  0.012  0.002  0.001  0.014
   27  0.011  0.002  0.001  0.014
   28  0.019  0.001  0.000  0.020
   29  0.017  0.001  0.000  0.019
   30  0.017  0.001  0.000  0.019
   31  0.017  0.001  0.000  0.019
   32  0.017  0.001  0.000  0.019
   33  0.017  0.001  0.000  0.019
   34  0.017  0.001  0.000  0.019
   35  0.018  0.001  0.000  0.020
   36  0.016  0.001  0.000  0.017
tot    0.507  0.055  0.019  0.581
 
band     3 # energy   -5.74853712 # occ.  2.00000000
 
ion      s      p      d    tot
    1  0.020  0.000  0.005  0.025
    2  0.013  0.000  0.006  0.020
    3  0.013  0.000  0.006  0.020
    4  0.013  0.000  0.006  0.020
    5  0.002  0.001  0.008  0.011
    6  0.013  0.000  0.006  0.020
    7  0.013  0.000  0.006  0.020
    8  0.013  0.000  0.006  0.020
    9  0.025  0.000  0.004  0.029
   10  0.001  0.004  0.004  0.009
   11  0.020  0.005  0.001  0.027
   12  0.001  0.004  0.004  0.009
   13  0.020  0.005  0.001  0.027
   14  0.020  0.005  0.001  0.027
   15  0.000  0.002  0.006  0.009
   16  0.001  0.004  0.004  0.009
   17  0.000  0.002  0.006  0.009
   18  0.000  0.002  0.006  0.009
   19  0.000  0.002  0.005  0.008
   20  0.019  0.006  0.001  0.026
   21  0.019  0.006  0.001  0.026
   22  0.000  0.004  0.003  0.008
   23  0.019  0.006  0.001  0.026
   24  0.000  0.004  0.003  0.008
   25  0.000  0.002  0.005  0.008
   26  0.000  0.002  0.005  0.008
   27  0.000  0.004  0.003  0.008
   28  0.024  0.000  0.003  0.027
   29  0.013  0.000  0.006  0.019
   30  0.013  0.000  0.006  0.019
   31  0.013  0.000  0.006  0.019
   32  0.013  0.000  0.006  0.019
   33  0.013  0.000  0.006  0.019
   34  0.013  0.000  0.006  0.019
   35  0.022  0.000  0.004  0.027
   36  0.001  0.002  0.005  0.008
tot    0.377  0.078  0.169  0.625
 
band     4 # energy   -5.71835992 # occ.  2.00000000
 
ion      s      p      d    tot
    1  0.000  0.001  0.005  0.006
    2  0.008  0.002  0.002  0.012
    3  0.000  0.001  0.002  0.003
    4  0.006  0.002  0.002  0.010
    5  0.000  0.003  0.005  0.009
    6  0.008  0.002  0.003  0.012
    7  0.000  0.001  0.002  0.003
    8  0.009  0.002  0.003  0.014
    9  0.000  0.001  0.002  0.003
   10  0.036  0.005  0.002  0.043
   11  0.019  0.006  0.008  0.034
   12  0.006  0.001  0.014  0.022
   13  0.010  0.007  0.009  0.026
   14  0.057  0.002  0.006  0.065
   15  0.001  0.008  0.004  0.013
   16  0.012  0.002  0.012  0.026
   17  0.000  0.010  0.003  0.014
   18  0.002  0.001  0.006  0.009
   19  0.001  0.008  0.004  0.013
   20  0.057  0.002  0.006  0.065
   21  0.010  0.007  0.009  0.026
   22  0.006  0.001  0.014  0.021
   23  0.019  0.006  0.008  0.034
   24  0.034  0.005  0.002  0.041
   25  0.003  0.001  0.006  0.009
   26  0.000  0.010  0.003  0.014
   27  0.012  0.002  0.011  0.025
   28  0.000  0.001  0.002  0.003
   29  0.009  0.002  0.003  0.014
   30  0.000  0.001  0.002  0.003
   31  0.008  0.002  0.003  0.012
   32  0.006  0.002  0.002  0.010
   33  0.000  0.001  0.002  0.003
   34  0.008  0.002  0.002  0.012
   35  0.000  0.001  0.004  0.005
   36  0.000  0.004  0.004  0.008
tot    0.348  0.117  0.177  0.642
 
band     5 # energy   -5.71833973 # occ.  2.00000000
 
ion      s      p      d    tot
    1  0.000  0.001  0.005  0.006
    2  0.003  0.001  0.002  0.006
    3  0.010  0.002  0.002  0.015
    4  0.004  0.002  0.002  0.008
    5  0.000  0.003  0.005  0.009
    6  0.003  0.001  0.002  0.006
    7  0.010  0.003  0.003  0.016
    8  0.001  0.001  0.002  0.004
    9  0.000  0.001  0.002  0.003
   10  0.000  0.000  0.016  0.017
   11  0.038  0.004  0.007  0.050
   12  0.030  0.004  0.005  0.038
   13  0.047  0.003  0.007  0.057
   14  0.000  0.008  0.010  0.018
   15  0.002  0.004  0.005  0.011
   16  0.024  0.003  0.007  0.034
   17  0.002  0.003  0.005  0.010
   18  0.000  0.012  0.003  0.015
   19  0.002  0.004  0.005  0.011
   20  0.000  0.008  0.010  0.018
   21  0.047  0.003  0.007  0.057
   22  0.029  0.004  0.005  0.038
   23  0.038  0.004  0.007  0.050
   24  0.000  0.000  0.016  0.017
   25  0.000  0.012  0.003  0.015
   26  0.002  0.003  0.005  0.010
   27  0.023  0.003  0.007  0.033
   28  0.000  0.001  0.002  0.003
   29  0.001  0.001  0.002  0.004
   30  0.010  0.002  0.003  0.015
   31  0.003  0.001  0.002  0.006
   32  0.004  0.002  0.002  0.008
   33  0.010  0.002  0.003  0.015
   34  0.003  0.001  0.002  0.006
   35  0.000  0.001  0.004  0.005
   36  0.000  0.004  0.004  0.008
tot    0.348  0.117  0.177  0.642
 
band     6 # energy   -5.71334835 # occ.  2.00000000
 
ion      s      p      d    tot
    1  0.018  0.003  0.001  0.022
    2  0.000  0.002  0.004  0.006
    3  0.000  0.002  0.004  0.006
    4  0.000  0.002  0.004  0.006
    5  0.000  0.000  0.000  0.000
    6  0.000  0.002  0.004  0.006
    7  0.000  0.002  0.004  0.006
    8  0.000  0.002  0.004  0.006
    9  0.013  0.002  0.001  0.016
   10  0.029  0.004  0.008  0.040
   11  0.001  0.001  0.011  0.014
   12  0.028  0.004  0.008  0.039
   13  0.001  0.001  0.011  0.014
   14  0.001  0.001  0.011  0.013
   15  0.018  0.009  0.002  0.029
   16  0.028  0.004  0.008  0.039
   17  0.018  0.009  0.002  0.029
   18  0.018  0.009  0.002  0.030
   19  0.018  0.009  0.002  0.029
   20  0.001  0.001  0.011  0.013
   21  0.001  0.001  0.011  0.013
   22  0.028  0.004  0.008  0.040
   23  0.001  0.001  0.011  0.013
   24  0.028  0.004  0.008  0.040
   25  0.017  0.009  0.002  0.028
   26  0.018  0.009  0.002  0.029
   27  0.028  0.004  0.008  0.040
   28  0.015  0.002  0.000  0.018
   29  0.000  0.002  0.004  0.006
   30  0.000  0.002  0.004  0.006
   31  0.000  0.002  0.004  0.006
   32  0.000  0.002  0.004  0.006
   33  0.000  0.002  0.004  0.006
   34  0.000  0.002  0.004  0.006
   35  0.016  0.003  0.001  0.020
   36  0.000  0.000  0.000  0.000
tot    0.346  0.115  0.177  0.639
 
band     7 # energy   -5.70882981 # occ.  2.00000000
 
ion      s      p      d    tot
    1  0.000  0.003  0.004  0.006
    2  0.008  0.002  0.002  0.013
    3  0.000  0.001  0.002  0.003
    4  0.006  0.002  0.002  0.010
    5  0.000  0.000  0.003  0.003
    6  0.008  0.002  0.003  0.013
    7  0.000  0.001  0.002  0.003
    8  0.009  0.002  0.003  0.014
    9  0.000  0.003  0.006  0.009
   10  0.000  0.013  0.003  0.016
   11  0.004  0.004  0.005  0.014
   12  0.023  0.003  0.006  0.032
   13  0.005  0.003  0.004  0.013
   14  0.000  0.006  0.010  0.015
   15  0.041  0.004  0.008  0.052
   16  0.018  0.005  0.006  0.029
   17  0.051  0.004  0.006  0.061
   18  0.001  0.002  0.016  0.019
   19  0.040  0.004  0.008  0.051
   20  0.000  0.005  0.009  0.015
   21  0.005  0.003  0.004  0.013
   22  0.023  0.003  0.006  0.032
   23  0.004  0.004  0.005  0.013
   24  0.000  0.013  0.003  0.016
   25  0.001  0.002  0.016  0.018
   26  0.050  0.004  0.005  0.059
   27  0.018  0.005  0.005  0.028
   28  0.000  0.003  0.006  0.008
   29  0.009  0.002  0.002  0.013
   30  0.000  0.001  0.002  0.003
   31  0.007  0.002  0.002  0.012
   32  0.006  0.002  0.002  0.009
   33  0.000  0.001  0.002  0.003
   34  0.007  0.002  0.002  0.012
   35  0.000  0.002  0.004  0.006
   36  0.000  0.000  0.002  0.002
tot    0.345  0.116  0.177  0.639
 
band     8 # energy   -5.70881651 # occ.  2.00000000
 
ion      s      p      d    tot
    1  0.000  0.003  0.004  0.006
    2  0.002  0.001  0.002  0.006
    3  0.010  0.003  0.003  0.015
    4  0.004  0.002  0.002  0.008
    5  0.000  0.000  0.003  0.003
    6  0.003  0.001  0.002  0.006
    7  0.011  0.003  0.003  0.016
    8  0.001  0.001  0.002  0.004
    9  0.000  0.003  0.006  0.009
   10  0.027  0.000  0.007  0.034
   11  0.002  0.005  0.007  0.014
   12  0.005  0.011  0.003  0.019
   13  0.001  0.005  0.009  0.015
   14  0.007  0.003  0.003  0.013
   15  0.021  0.003  0.012  0.036
   16  0.010  0.009  0.004  0.023
   17  0.011  0.002  0.014  0.027
   18  0.061  0.005  0.004  0.069
   19  0.020  0.003  0.012  0.034
   20  0.006  0.003  0.003  0.012
   21  0.001  0.005  0.008  0.014
   22  0.005  0.011  0.003  0.019
   23  0.002  0.005  0.007  0.014
   24  0.028  0.001  0.007  0.035
   25  0.060  0.004  0.003  0.068
   26  0.010  0.002  0.014  0.026
   27  0.009  0.009  0.004  0.022
   28  0.000  0.003  0.006  0.008
   29  0.001  0.001  0.002  0.004
   30  0.010  0.002  0.002  0.014
   31  0.003  0.001  0.002  0.006
   32  0.004  0.002  0.002  0.008
   33  0.009  0.002  0.002  0.014
   34  0.002  0.001  0.002  0.006
   35  0.000  0.002  0.004  0.006
   36  0.000  0.000  0.002  0.002
tot    0.345  0.116  0.177  0.639
 
band     9 # energy   -5.67942636 # occ.  2.00000000
 
ion      s      p      d    tot
    1  0.000  0.001  0.002  0.003
    2  0.004  0.002  0.006  0.011
    3  0.004  0.002  0.006  0.011
    4  0.004  0.002  0.006  0.011
    5  0.040  0.002  0.000  0.042
    6  0.004  0.002  0.006  0.011
    7  0.004  0.002  0.006  0.011
    8  0.004  0.002  0.006  0.011
    9  0.000  0.001  0.005  0.006
   10  0.008  0.005  0.006  0.019
   11  0.016  0.007  0.005  0.028
   12  0.008  0.006  0.006  0.019
   13  0.016  0.007  0.005  0.028
   14  0.016  0.007  0.005  0.028
   15  0.021  0.001  0.010  0.032
   16  0.008  0.006  0.006  0.019
   17  0.021  0.001  0.010  0.032
   18  0.021  0.001  0.010  0.032
   19  0.015  0.002  0.008  0.025
   20  0.015  0.006  0.005  0.025
   21  0.015  0.006  0.005  0.025
   22  0.005  0.005  0.005  0.016
   23  0.015  0.006  0.005  0.025
   24  0.005  0.005  0.005  0.016
   25  0.015  0.002  0.008  0.025
   26  0.015  0.002  0.008  0.025
   27  0.005  0.005  0.005  0.016
   28  0.000  0.001  0.004  0.005
   29  0.004  0.001  0.004  0.009
   30  0.004  0.001  0.004  0.009
   31  0.004  0.001  0.004  0.009
   32  0.004  0.001  0.004  0.009
   33  0.004  0.001  0.004  0.009
   34  0.004  0.001  0.004  0.009
   35  0.001  0.000  0.002  0.003
   36  0.028  0.002  0.000  0.030
tot    0.356  0.104  0.184  0.644
 
band    10 # energy   -4.94374008 # occ.  2.00000000
 
ion      s      p      d    tot
    1  0.034  0.003  0.000  0.038
    2  0.000  0.003  0.010  0.014
    3  0.000  0.003  0.010  0.014
    4  0.000  0.003  0.010  0.014
    5  0.000  0.000  0.000  0.000
    6  0.000  0.003  0.010  0.014
    7  0.000  0.003  0.010  0.014
    8  0.000  0.003  0.010  0.014
    9  0.030  0.004  0.001  0.035
   10  0.009  0.004  0.010  0.023
   11  0.001  0.000  0.015  0.016
   12  0.009  0.004  0.010  0.023
   13  0.001  0.000  0.015  0.016
   14  0.001  0.000  0.015  0.016
   15  0.006  0.003  0.018  0.028
   16  0.009  0.004  0.010  0.023
   17  0.006  0.003  0.018  0.028
   18  0.006  0.003  0.018  0.028
   19  0.005  0.004  0.017  0.026
   20  0.000  0.000  0.015  0.015
   21  0.000  0.000  0.015  0.015
   22  0.012  0.003  0.010  0.025
   23  0.000  0.000  0.015  0.015
   24  0.012  0.003  0.010  0.025
   25  0.005  0.004  0.018  0.026
   26  0.005  0.004  0.017  0.026
   27  0.012  0.003  0.010  0.025
   28  0.036  0.003  0.000  0.039
   29  0.000  0.003  0.010  0.013
   30  0.000  0.003  0.010  0.013
   31  0.000  0.003  0.010  0.013
   32  0.000  0.003  0.010  0.013
   33  0.000  0.003  0.010  0.013
   34  0.000  0.003  0.010  0.013
   35  0.027  0.004  0.001  0.032
   36  0.000  0.000  0.000  0.000
tot    0.228  0.093  0.385  0.705
 
band    11 # energy   -4.93444931 # occ.  2.00000000
 
ion      s      p      d    tot
    1  0.006  0.000  0.008  0.014
    2  0.004  0.001  0.008  0.013
    3  0.004  0.001  0.008  0.013
    4  0.004  0.001  0.008  0.013
    5  0.000  0.002  0.008  0.010
    6  0.004  0.001  0.008  0.013
    7  0.004  0.001  0.008  0.013
    8  0.004  0.001  0.008  0.013
    9  0.012  0.000  0.006  0.018
   10  0.005  0.000  0.024  0.029
   11  0.010  0.001  0.021  0.032
   12  0.005  0.000  0.024  0.029
   13  0.010  0.001  0.022  0.032
   14  0.010  0.001  0.021  0.032
   15  0.002  0.000  0.021  0.023
   16  0.005  0.000  0.024  0.029
   17  0.002  0.000  0.021  0.023
   18  0.002  0.000  0.021  0.023
   19  0.004  0.000  0.022  0.025
   20  0.012  0.000  0.023  0.036
   21  0.012  0.001  0.023  0.036
   22  0.003  0.000  0.025  0.029
   23  0.012  0.001  0.023  0.036
   24  0.003  0.000  0.025  0.029
   25  0.004  0.000  0.022  0.025
   26  0.004  0.000  0.022  0.025
   27  0.003  0.000  0.025  0.029
   28  0.007  0.000  0.008  0.015
   29  0.005  0.001  0.009  0.015
   30  0.005  0.001  0.009  0.015
   31  0.005  0.001  0.009  0.015
   32  0.005  0.001  0.009  0.015
   33  0.005  0.001  0.009  0.015
   34  0.005  0.001  0.009  0.015
   35  0.014  0.000  0.008  0.022
   36  0.000  0.002  0.005  0.008
tot    0.199  0.017  0.559  0.775
 
band    12 # energy   -4.93197974 # occ.  2.00000000
 
ion      s      p      d    tot
    1  0.000  0.001  0.010  0.012
    2  0.008  0.002  0.006  0.016
    3  0.022  0.004  0.006  0.031
    4  0.005  0.002  0.005  0.013
    5  0.000  0.006  0.009  0.015
    6  0.003  0.002  0.005  0.011
    7  0.021  0.004  0.006  0.031
    8  0.005  0.002  0.005  0.013
    9  0.000  0.002  0.013  0.015
   10  0.000  0.001  0.015  0.016
   11  0.016  0.004  0.010  0.030
   12  0.006  0.003  0.011  0.021
   13  0.014  0.004  0.012  0.030
   14  0.000  0.001  0.028  0.029
   15  0.002  0.001  0.011  0.013
   16  0.007  0.003  0.011  0.021
   17  0.001  0.001  0.012  0.015
   18  0.000  0.004  0.023  0.027
   19  0.000  0.001  0.010  0.012
   20  0.000  0.002  0.028  0.030
   21  0.014  0.003  0.012  0.029
   22  0.010  0.003  0.011  0.025
   23  0.015  0.004  0.010  0.029
   24  0.000  0.000  0.018  0.018
   25  0.000  0.004  0.019  0.022
   26  0.000  0.001  0.011  0.013
   27  0.012  0.004  0.010  0.026
   28  0.000  0.001  0.012  0.013
   29  0.009  0.002  0.005  0.017
   30  0.021  0.004  0.006  0.031
   31  0.007  0.002  0.005  0.014
   32  0.002  0.002  0.005  0.009
   33  0.021  0.004  0.006  0.030
   34  0.004  0.002  0.005  0.011
   35  0.000  0.002  0.009  0.011
   36  0.000  0.007  0.005  0.012
tot    0.228  0.095  0.384  0.708
 
band    13 # energy   -4.93196364 # occ.  2.00000000
 
ion      s      p      d    tot
    1  0.000  0.001  0.010  0.012
    2  0.014  0.003  0.005  0.023
    3  0.000  0.002  0.005  0.007
    4  0.016  0.003  0.005  0.025
    5  0.000  0.006  0.009  0.015
    6  0.018  0.004  0.006  0.027
    7  0.000  0.002  0.005  0.007
    8  0.016  0.003  0.006  0.025
    9  0.000  0.002  0.013  0.015
   10  0.009  0.004  0.010  0.023
   11  0.004  0.002  0.023  0.029
   12  0.003  0.002  0.013  0.018
   13  0.006  0.002  0.021  0.029
   14  0.020  0.005  0.005  0.030
   15  0.000  0.003  0.020  0.023
   16  0.002  0.001  0.014  0.017
   17  0.001  0.003  0.018  0.021
   18  0.002  0.000  0.007  0.010
   19  0.000  0.003  0.017  0.020
   20  0.020  0.004  0.005  0.029
   21  0.006  0.002  0.021  0.029
   22  0.004  0.002  0.015  0.021
   23  0.004  0.002  0.023  0.029
   24  0.015  0.004  0.009  0.028
   25  0.000  0.000  0.008  0.009
   26  0.000  0.003  0.016  0.019
   27  0.003  0.001  0.016  0.020
   28  0.000  0.001  0.012  0.013
   29  0.013  0.003  0.006  0.021
   30  0.000  0.002  0.005  0.007
   31  0.015  0.003  0.006  0.024
   32  0.019  0.003  0.006  0.028
   33  0.001  0.002  0.005  0.007
   34  0.017  0.003  0.005  0.026
   35  0.000  0.002  0.009  0.011
   36  0.000  0.007  0.005  0.012
tot    0.228  0.095  0.384  0.708
 
band    14 # energy   -4.92855293 # occ.  2.00000000
 
ion      s      p      d    tot
    1  0.000  0.005  0.011  0.016
    2  0.006  0.002  0.006  0.014
    3  0.022  0.004  0.006  0.031
    4  0.006  0.002  0.006  0.014
    5  0.000  0.000  0.013  0.013
    6  0.005  0.002  0.005  0.012
    7  0.022  0.004  0.006  0.031
    8  0.005  0.002  0.005  0.012
    9  0.000  0.004  0.008  0.013
   10  0.011  0.002  0.005  0.019
   11  0.000  0.002  0.014  0.017
   12  0.003  0.003  0.023  0.029
   13  0.000  0.002  0.014  0.017
   14  0.001  0.001  0.010  0.012
   15  0.005  0.001  0.018  0.024
   16  0.003  0.003  0.024  0.029
   17  0.005  0.002  0.018  0.024
   18  0.019  0.006  0.008  0.032
   19  0.006  0.001  0.020  0.027
   20  0.003  0.002  0.010  0.015
   21  0.001  0.002  0.014  0.017
   22  0.002  0.003  0.020  0.025
   23  0.001  0.002  0.014  0.017
   24  0.009  0.001  0.006  0.017
   25  0.023  0.005  0.006  0.035
   26  0.006  0.002  0.020  0.027
   27  0.002  0.003  0.020  0.026
   28  0.000  0.005  0.008  0.013
   29  0.007  0.002  0.005  0.015
   30  0.020  0.004  0.005  0.029
   31  0.007  0.002  0.005  0.014
   32  0.003  0.002  0.005  0.010
   33  0.020  0.004  0.005  0.028
   34  0.003  0.002  0.005  0.010
   35  0.000  0.004  0.011  0.015
   36  0.000  0.000  0.006  0.006
tot    0.225  0.094  0.384  0.704
 
band    15 # energy   -4.92852677 # occ.  2.00000000
 
ion      s      p      d    tot
    1  0.000  0.005  0.011  0.016
    2  0.015  0.003  0.005  0.024
    3  0.000  0.002  0.005  0.007
    4  0.015  0.003  0.005  0.024
    5  0.000  0.000  0.013  0.013
    6  0.017  0.003  0.006  0.027
    7  0.000  0.002  0.005  0.007
    8  0.017  0.003  0.006  0.026
    9  0.000  0.004  0.008  0.013
   10  0.000  0.003  0.030  0.033
   11  0.001  0.001  0.011  0.013
   12  0.009  0.002  0.011  0.023
   13  0.001  0.001  0.012  0.013
   14  0.000  0.003  0.016  0.018
   15  0.014  0.004  0.011  0.030
   16  0.009  0.002  0.011  0.022
   17  0.014  0.004  0.011  0.029
   18  0.000  0.000  0.021  0.021
   19  0.018  0.004  0.010  0.032
   20  0.000  0.002  0.015  0.017
   21  0.002  0.002  0.011  0.016
   22  0.007  0.002  0.011  0.019
   23  0.003  0.002  0.011  0.016
   24  0.000  0.004  0.025  0.028
   25  0.000  0.000  0.024  0.025
   26  0.017  0.004  0.011  0.032
   27  0.007  0.002  0.011  0.019
   28  0.000  0.005  0.008  0.013
   29  0.012  0.003  0.005  0.021
   30  0.000  0.002  0.005  0.007
   31  0.013  0.003  0.005  0.021
   32  0.017  0.004  0.005  0.026
   33  0.000  0.002  0.005  0.007
   34  0.017  0.003  0.005  0.025
   35  0.000  0.004  0.011  0.015
   36  0.000  0.000  0.006  0.006
tot    0.225  0.094  0.384  0.704
 
band    16 # energy   -4.86805860 # occ.  2.00000000
 
ion      s      p      d    tot
    1  0.009  0.002  0.001  0.012
    2  0.000  0.003  0.011  0.014
    3  0.000  0.003  0.011  0.014
    4  0.000  0.003  0.011  0.014
    5  0.046  0.003  0.000  0.049
    6  0.000  0.003  0.011  0.014
    7  0.000  0.003  0.011  0.014
    8  0.000  0.003  0.011  0.014
    9  0.005  0.001  0.002  0.008
   10  0.002  0.001  0.021  0.025
   11  0.004  0.004  0.018  0.026
   12  0.002  0.001  0.021  0.025
   13  0.004  0.004  0.018  0.026
   14  0.004  0.004  0.018  0.026
   15  0.006  0.001  0.011  0.019
   16  0.002  0.001  0.021  0.025
   17  0.006  0.001  0.011  0.019
   18  0.006  0.001  0.011  0.019
   19  0.010  0.001  0.018  0.029
   20  0.008  0.004  0.012  0.024
   21  0.008  0.004  0.012  0.024
   22  0.003  0.001  0.018  0.023
   23  0.008  0.004  0.012  0.024
   24  0.003  0.001  0.018  0.023
   25  0.010  0.001  0.018  0.029
   26  0.010  0.001  0.018  0.029
   27  0.003  0.001  0.018  0.023
   28  0.003  0.002  0.005  0.009
   29  0.001  0.002  0.010  0.013
   30  0.001  0.002  0.010  0.013
   31  0.001  0.002  0.010  0.013
   32  0.001  0.002  0.010  0.013
   33  0.001  0.002  0.010  0.013
   34  0.001  0.002  0.010  0.013
   35  0.004  0.002  0.002  0.008
   36  0.044  0.004  0.000  0.048
tot    0.221  0.083  0.426  0.730
 
band    17 # energy   -4.24475390 # occ.  2.00000000
 
ion      s      p      d    tot
    1  0.000  0.002  0.002  0.004
    2  0.014  0.001  0.012  0.027
    3  0.008  0.001  0.010  0.019
    4  0.014  0.001  0.012  0.027
    5  0.000  0.002  0.022  0.024
    6  0.001  0.001  0.008  0.010
    7  0.008  0.001  0.010  0.019
    8  0.001  0.001  0.008  0.010
    9  0.000  0.000  0.033  0.033
   10  0.001  0.006  0.024  0.031
   11  0.000  0.000  0.041  0.042
   12  0.000  0.002  0.011  0.013
   13  0.000  0.000  0.041  0.042
   14  0.001  0.003  0.005  0.008
   15  0.000  0.001  0.031  0.032
   16  0.000  0.002  0.011  0.014
   17  0.000  0.001  0.032  0.032
   18  0.000  0.001  0.015  0.016
   19  0.000  0.000  0.047  0.047
   20  0.001  0.007  0.020  0.028
   21  0.000  0.002  0.015  0.017
   22  0.000  0.001  0.022  0.023
   23  0.000  0.002  0.015  0.017
   24  0.000  0.002  0.020  0.022
   25  0.001  0.001  0.003  0.005
   26  0.000  0.000  0.047  0.048
   27  0.000  0.001  0.022  0.023
   28  0.000  0.002  0.028  0.030
   29  0.012  0.001  0.011  0.024
   30  0.000  0.001  0.007  0.008
   31  0.012  0.001  0.011  0.024
   32  0.011  0.001  0.011  0.023
   33  0.000  0.001  0.007  0.008
   34  0.011  0.001  0.011  0.023
   35  0.000  0.000  0.024  0.025
   36  0.000  0.003  0.000  0.003
tot    0.099  0.053  0.648  0.800
 
band    18 # energy   -4.24471057 # occ.  2.00000000
 
ion      s      p      d    tot
    1  0.000  0.002  0.002  0.004
    2  0.001  0.001  0.010  0.011
    3  0.008  0.001  0.011  0.019
    4  0.001  0.001  0.009  0.011
    5  0.000  0.002  0.022  0.024
    6  0.014  0.001  0.010  0.026
    7  0.007  0.001  0.010  0.019
    8  0.014  0.001  0.010  0.025
    9  0.000  0.000  0.033  0.033
   10  0.000  0.000  0.009  0.009
   11  0.001  0.002  0.017  0.020
   12  0.001  0.005  0.019  0.025
   13  0.001  0.002  0.017  0.020
   14  0.000  0.000  0.053  0.053
   15  0.000  0.001  0.019  0.020
   16  0.001  0.005  0.018  0.025
   17  0.000  0.001  0.019  0.020
   18  0.000  0.000  0.040  0.040
   19  0.000  0.001  0.018  0.019
   20  0.000  0.000  0.014  0.014
   21  0.001  0.005  0.018  0.024
   22  0.000  0.002  0.019  0.021
   23  0.001  0.005  0.018  0.024
   24  0.000  0.000  0.025  0.026
   25  0.000  0.000  0.062  0.062
   26  0.000  0.001  0.017  0.019
   27  0.000  0.002  0.019  0.021
   28  0.000  0.002  0.029  0.030
   29  0.003  0.001  0.009  0.013
   30  0.016  0.001  0.010  0.027
   31  0.004  0.001  0.009  0.013
   32  0.004  0.001  0.009  0.015
   33  0.016  0.001  0.010  0.027
   34  0.004  0.001  0.009  0.015
   35  0.000  0.000  0.024  0.025
   36  0.000  0.003  0.000  0.003
tot    0.099  0.053  0.648  0.800
 
band    19 # energy   -4.24460413 # occ.  2.00000000
 
ion      s      p      d    tot
    1  0.002  0.000  0.001  0.003
    2  0.000  0.002  0.017  0.018
    3  0.000  0.001  0.018  0.020
    4  0.000  0.002  0.017  0.019
    5  0.015  0.001  0.000  0.016
    6  0.000  0.001  0.021  0.022
    7  0.000  0.001  0.018  0.020
    8  0.000  0.001  0.021  0.022
    9  0.028  0.001  0.003  0.031
   10  0.001  0.002  0.009  0.011
   11  0.000  0.001  0.020  0.021
   12  0.001  0.001  0.011  0.013
   13  0.000  0.001  0.020  0.021
   14  0.000  0.000  0.021  0.021
   15  0.001  0.003  0.042  0.046
   16  0.000  0.001  0.012  0.013
   17  0.001  0.003  0.042  0.046
   18  0.001  0.004  0.038  0.042
   19  0.000  0.001  0.029  0.030
   20  0.000  0.001  0.004  0.006
   21  0.000  0.000  0.006  0.006
   22  0.000  0.003  0.038  0.042
   23  0.000  0.000  0.006  0.006
   24  0.001  0.004  0.033  0.038
   25  0.000  0.001  0.029  0.030
   26  0.000  0.001  0.029  0.030
   27  0.000  0.003  0.038  0.042
   28  0.022  0.001  0.001  0.023
   29  0.000  0.001  0.017  0.019
   30  0.000  0.001  0.020  0.021
   31  0.000  0.001  0.017  0.018
   32  0.000  0.001  0.017  0.018
   33  0.000  0.001  0.020  0.021
   34  0.000  0.001  0.017  0.018
   35  0.024  0.001  0.002  0.026
   36  0.000  0.000  0.000  0.000
tot    0.098  0.052  0.649  0.799
 
band    20 # energy   -4.22709108 # occ.  2.00000000
 
ion      s      p      d    tot
    1  0.000  0.001  0.039  0.039
    2  0.014  0.001  0.011  0.027
    3  0.008  0.001  0.010  0.019
    4  0.014  0.001  0.011  0.027
    5  0.000  0.001  0.017  0.018
    6  0.001  0.001  0.011  0.012
    7  0.008  0.001  0.010  0.019
    8  0.001  0.001  0.011  0.012
    9  0.000  0.003  0.005  0.008
   10  0.000  0.000  0.061  0.062
   11  0.000  0.004  0.020  0.024
   12  0.000  0.000  0.019  0.020
   13  0.000  0.004  0.020  0.024
   14  0.000  0.000  0.017  0.017
   15  0.001  0.004  0.018  0.024
   16  0.000  0.000  0.019  0.019
   17  0.001  0.004  0.018  0.024
   18  0.000  0.000  0.029  0.029
   19  0.000  0.005  0.018  0.023
   20  0.000  0.000  0.057  0.057
   21  0.000  0.000  0.020  0.020
   22  0.001  0.004  0.018  0.022
   23  0.000  0.000  0.020  0.020
   24  0.000  0.000  0.046  0.046
   25  0.000  0.000  0.004  0.005
   26  0.000  0.005  0.018  0.023
   27  0.001  0.004  0.018  0.022
   28  0.000  0.001  0.007  0.009
   29  0.012  0.001  0.008  0.021
   30  0.000  0.001  0.008  0.009
   31  0.012  0.001  0.008  0.021
   32  0.011  0.001  0.008  0.019
   33  0.000  0.001  0.008  0.009
   34  0.010  0.001  0.008  0.019
   35  0.000  0.003  0.012  0.014
   36  0.000  0.000  0.014  0.014
tot    0.097  0.055  0.646  0.798
 
band    21 # energy   -4.22705920 # occ.  2.00000000
 
ion      s      p      d    tot
    1  0.000  0.001  0.039  0.039
    2  0.001  0.001  0.010  0.012
    3  0.007  0.001  0.011  0.020
    4  0.001  0.001  0.010  0.012
    5  0.000  0.001  0.017  0.018
    6  0.015  0.001  0.011  0.027
    7  0.007  0.001  0.011  0.020
    8  0.015  0.001  0.011  0.027
    9  0.000  0.003  0.005  0.008
   10  0.000  0.000  0.005  0.006
   11  0.000  0.001  0.018  0.020
   12  0.000  0.000  0.047  0.047
   13  0.000  0.001  0.018  0.020
   14  0.001  0.005  0.021  0.026
   15  0.000  0.001  0.025  0.027
   16  0.000  0.000  0.047  0.048
   17  0.000  0.001  0.025  0.027
   18  0.002  0.006  0.014  0.022
   19  0.000  0.002  0.009  0.011
   20  0.000  0.000  0.007  0.008
   21  0.000  0.000  0.044  0.044
   22  0.000  0.001  0.037  0.038
   23  0.000  0.000  0.044  0.045
   24  0.001  0.005  0.008  0.014
   25  0.000  0.006  0.023  0.029
   26  0.000  0.002  0.009  0.011
   27  0.000  0.001  0.037  0.038
   28  0.000  0.001  0.007  0.009
   29  0.003  0.001  0.008  0.012
   30  0.015  0.002  0.008  0.024
   31  0.003  0.001  0.008  0.012
   32  0.004  0.001  0.008  0.013
   33  0.015  0.002  0.008  0.024
   34  0.004  0.001  0.008  0.014
   35  0.000  0.003  0.012  0.014
   36  0.000  0.000  0.014  0.014
tot    0.097  0.055  0.646  0.798
 
band    22 # energy   -4.19857865 # occ.  2.00000000
 
ion      s      p      d    tot
    1  0.029  0.001  0.002  0.032
    2  0.000  0.001  0.020  0.021
    3  0.000  0.001  0.020  0.021
    4  0.000  0.001  0.020  0.021
    5  0.013  0.000  0.004  0.016
    6  0.000  0.001  0.020  0.021
    7  0.000  0.001  0.020  0.021
    8  0.000  0.001  0.020  0.021
    9  0.003  0.000  0.000  0.004
   10  0.000  0.002  0.034  0.037
   11  0.001  0.003  0.028  0.032
   12  0.000  0.002  0.034  0.037
   13  0.001  0.003  0.028  0.032
   14  0.001  0.003  0.028  0.032
   15  0.000  0.000  0.010  0.010
   16  0.000  0.002  0.034  0.037