 vasp.6.2.0 18Jan21 (build Jun 12 2021 23:27:24) complex                        
  
 executed on             LinuxIFC date 2022.05.28  02:10:34
 running on   28 total cores
 distrk:  each k-point on   28 cores,    1 groups
 distr:  one band on NCORE=   1 cores,   28 groups


--------------------------------------------------------------------------------------------------------


 INCAR:
   ISMEAR = -5
   SIGMA = 0.1
   ISPIN = 1
   EDIFF = 1.d-5
   EDIFFG = -0.01
   NSW = 0
   NELM = 150
   ENCUT = 500
   ISIF = 2
   IBRION = 2
   LREAL = Auto
   ALGO = Fast
   ICHARG = 11
   LORBIT = 10
   LCHARG = .F.
   LWAVE = .F.

 POTCAR:    PAW_PBE Ag 02Apr2005                  
 POTCAR:    PAW_PBE Pt 04Feb2005                  
 POTCAR:    PAW_PBE C 08Apr2002                   
 POTCAR:    PAW_PBE O 08Apr2002                   
 -----------------------------------------------------------------------------
|                                                                             |
|           W    W    AA    RRRRR   N    N  II  N    N   GGGG   !!!           |
|           W    W   A  A   R    R  NN   N  II  NN   N  G    G  !!!           |
|           W    W  A    A  R    R  N N  N  II  N N  N  G       !!!           |
|           W WW W  AAAAAA  RRRRR   N  N N  II  N  N N  G  GGG   !            |
|           WW  WW  A    A  R   R   N   NN  II  N   NN  G    G                |
|           W    W  A    A  R    R  N    N  II  N    N   GGGG   !!!           |
|                                                                             |
|     For optimal performance we recommend to set                             |
|       NCORE = 2 up to number-of-cores-per-socket                            |
|     NCORE specifies how many cores store one orbital (NPAR=cpu/NCORE).      |
|     This setting can greatly improve the performance of VASP for DFT.       |
|     The default, NCORE=1 might be grossly inefficient on modern             |
|     multi-core architectures or massively parallel machines. Do your        |
|     own testing! More info at https://www.vasp.at/wiki/index.php/NCORE      |
|     Unfortunately you need to use the default for GW and RPA                |
|     calculations (for HF NCORE is supported but not extensively tested      |
|     yet).                                                                   |
|                                                                             |
 -----------------------------------------------------------------------------

 POTCAR:    PAW_PBE Ag 02Apr2005                  
   VRHFIN =Ag : s1 d10                                                                              
   LEXCH  = PE                                                                                      
   EATOM  =  1037.2675 eV,   76.2370 Ry                                                             
                                                                                                    
   TITEL  = PAW_PBE Ag 02Apr2005                                                                    
   LULTRA =        F    use ultrasoft PP ?                                                          
   IUNSCR =        1    unscreen: 0-lin 1-nonlin 2-no                                               
   RPACOR =    2.000    partial core radius                                                         
   POMASS =  107.868; ZVAL   =   11.000    mass and valenz                                          
   RCORE  =    2.500    outmost cutoff radius                                                       
   RWIGS  =    2.840; RWIGS  =    1.503    wigner-seitz radius (au A)                               
   ENMAX  =  249.844; ENMIN  =  187.383 eV                                                          
   ICORE  =        3    local potential                                                             
   LCOR   =        T    correct aug charges                                                         
   LPAW   =        T    paw PP                                                                      
   EAUG   =  412.496                                                                                
   DEXC   =    0.000                                                                                
   RMAX   =    2.560    core radius for proj-oper                                                   
   RAUG   =    1.300    factor for augmentation sphere                                              
   RDEP   =    2.576    radius for radial grids                                                     
   RDEPT  =    2.072    core radius for aug-charge                                                  
                                                                                                    
   Atomic configuration                                                                             
   12 entries                                                                                       
     n  l   j            E        occ.                                                              
     1  0  0.50    -25324.9161   2.0000                                                             
     2  0  0.50     -3728.5341   2.0000                                                             
     2  1  1.50     -3344.0404   6.0000                                                             
     3  0  0.50      -683.5581   2.0000                                                             
     3  1  1.50      -557.3225   6.0000                                                             
     3  2  2.50      -358.3853  10.0000                                                             
     4  0  0.50       -95.0341   2.0000                                                             
     4  1  1.50       -58.5511   6.0000                                                             
     4  2  2.50        -7.4440  10.0000                                                             
     5  0  0.50        -4.4045   1.0000                                                             
     5  1  0.50        -1.3606   0.0000                                                             
     4  3  2.50        -1.3606   0.0000                                                             
   Description                                                                                      
     l       E           TYP  RCUT    TYP  RCUT                                                     
     2     -7.4439781     23  2.400                                                                 
     2     -8.8045607     23  2.400                                                                 
     0     -4.4044681     23  2.400                                                                 
     0      1.9520038     23  2.400                                                                 
     1     -1.3605826     23  2.500                                                                 
     1     27.2116520     23  2.500                                                                 
     3     -4.0817478     23  2.400                                                                 
  local pseudopotential read in
  partial core-charges read in
  partial kinetic energy density read in
  atomic valenz-charges read in
  non local Contribution for L=           2  read in
    real space projection operators read in
  non local Contribution for L=           2  read in
    real space projection operators read in
  non local Contribution for L=           0  read in
    real space projection operators read in
  non local Contribution for L=           0  read in
    real space projection operators read in
  non local Contribution for L=           1  read in
    real space projection operators read in
  non local Contribution for L=           1  read in
    real space projection operators read in
    PAW grid and wavefunctions read in
 
   number of l-projection  operators is LMAX  =           6
   number of lm-projection operators is LMMAX =          18
 
 POTCAR:    PAW_PBE Pt 04Feb2005                  
   VRHFIN =Pt: s1d9                                                                                 
   LEXCH  = PE                                                                                      
   EATOM  =   729.1176 eV,   53.5886 Ry                                                             
                                                                                                    
   TITEL  = PAW_PBE Pt 04Feb2005                                                                    
   LULTRA =        F    use ultrasoft PP ?                                                          
   IUNSCR =        1    unscreen: 0-lin 1-nonlin 2-no                                               
   RPACOR =    2.330    partial core radius                                                         
   POMASS =  195.080; ZVAL   =   10.000    mass and valenz                                          
   RCORE  =    2.600    outmost cutoff radius                                                       
   RWIGS  =    2.750; RWIGS  =    1.455    wigner-seitz radius (au A)                               
   ENMAX  =  230.283; ENMIN  =  172.712 eV                                                          
   ICORE  =        3    local potential                                                             
   LCOR   =        T    correct aug charges                                                         
   LPAW   =        T    paw PP                                                                      
   EAUG   =  358.966                                                                                
   DEXC   =    0.000                                                                                
   RMAX   =    2.658    core radius for proj-oper                                                   
   RAUG   =    1.300    factor for augmentation sphere                                              
   RDEP   =    2.761    radius for radial grids                                                     
   RDEPT  =    2.203    core radius for aug-charge                                                  
                                                                                                    
   Atomic configuration                                                                             
   16 entries                                                                                       
     n  l   j            E        occ.                                                              
     1  0  0.50    -78401.1885   2.0000                                                             
     2  0  0.50    -13770.7750   2.0000                                                             
     2  1  1.50    -11931.0468   6.0000                                                             
     3  0  0.50     -3234.7234   2.0000                                                             
     3  1  1.50     -2699.2216   6.0000                                                             
     3  2  2.50     -2119.5714  10.0000                                                             
     4  0  0.50      -695.1528   2.0000                                                             
     4  1  1.50      -519.6034   6.0000                                                             
     4  2  2.50      -306.6786  10.0000                                                             
     4  3  3.50       -70.1041  14.0000                                                             
     5  0  0.50      -101.7747   2.0000                                                             
     5  1  1.50       -55.9873   6.0000                                                             
     5  2  2.50        -6.1423   9.0000                                                             
     6  0  0.50        -5.6573   1.0000                                                             
     6  1  1.50        -6.8029   0.0000                                                             
     5  3  2.50        -1.3606   0.0000                                                             
   Description                                                                                      
     l       E           TYP  RCUT    TYP  RCUT                                                     
     2     -6.1423404     23  2.500                                                                 
     2     -7.5029230     23  2.500                                                                 
     0     -5.6573207     23  2.500                                                                 
     0      0.7416693     23  2.500                                                                 
     1     -2.7211652     23  2.600                                                                 
     1     20.4087390     23  2.600                                                                 
     3     -1.3605826     23  2.500                                                                 
  local pseudopotential read in
  partial core-charges read in
  partial kinetic energy density read in
  atomic valenz-charges read in
  non local Contribution for L=           2  read in
    real space projection operators read in
  non local Contribution for L=           2  read in
    real space projection operators read in
  non local Contribution for L=           0  read in
    real space projection operators read in
  non local Contribution for L=           0  read in
    real space projection operators read in
  non local Contribution for L=           1  read in
    real space projection operators read in
  non local Contribution for L=           1  read in
    real space projection operators read in
    PAW grid and wavefunctions read in
 
   number of l-projection  operators is LMAX  =           6
   number of lm-projection operators is LMMAX =          18
 
 POTCAR:    PAW_PBE C 08Apr2002                   
   VRHFIN =C: s2p2                                                                                  
   LEXCH  = PE                                                                                      
   EATOM  =   147.1560 eV,   10.8157 Ry                                                             
                                                                                                    
   TITEL  = PAW_PBE C 08Apr2002                                                                     
   LULTRA =        F    use ultrasoft PP ?                                                          
   IUNSCR =        1    unscreen: 0-lin 1-nonlin 2-no                                               
   RPACOR =    1.200    partial core radius                                                         
   POMASS =   12.011; ZVAL   =    4.000    mass and valenz                                          
   RCORE  =    1.500    outmost cutoff radius                                                       
   RWIGS  =    1.630; RWIGS  =    0.863    wigner-seitz radius (au A)                               
   ENMAX  =  400.000; ENMIN  =  300.000 eV                                                          
   ICORE  =        2    local potential                                                             
   LCOR   =        T    correct aug charges                                                         
   LPAW   =        T    paw PP                                                                      
   EAUG   =  644.873                                                                                
   DEXC   =    0.000                                                                                
   RMAX   =    1.529    core radius for proj-oper                                                   
   RAUG   =    1.300    factor for augmentation sphere                                              
   RDEP   =    1.501    radius for radial grids                                                     
   RDEPT  =    1.300    core radius for aug-charge                                                  
                                                                                                    
   Atomic configuration                                                                             
    4 entries                                                                                       
     n  l   j            E        occ.                                                              
     1  0  0.50      -273.3789   2.0000                                                             
     2  0  0.50       -13.7508   2.0000                                                             
     2  1  0.50        -5.2854   2.0000                                                             
     3  2  1.50        -5.4423   0.0000                                                             
   Description                                                                                      
     l       E           TYP  RCUT    TYP  RCUT                                                     
     0    -13.7508458     23  1.200                                                                 
     0     -8.2022199     23  1.200                                                                 
     1     -5.2854383     23  1.500                                                                 
     1     34.0145650     23  1.500                                                                 
     2     -5.4423304      7  1.500                                                                 
  local pseudopotential read in
  partial core-charges read in
  partial kinetic energy density read in
  atomic valenz-charges read in
  non local Contribution for L=           0  read in
    real space projection operators read in
  non local Contribution for L=           0  read in
    real space projection operators read in
  non local Contribution for L=           1  read in
    real space projection operators read in
  non local Contribution for L=           1  read in
    real space projection operators read in
    PAW grid and wavefunctions read in
 
   number of l-projection  operators is LMAX  =           4
   number of lm-projection operators is LMMAX =           8
 
 POTCAR:    PAW_PBE O 08Apr2002                   
   VRHFIN =O: s2p4                                                                                  
   LEXCH  = PE                                                                                      
   EATOM  =   432.3788 eV,   31.7789 Ry                                                             
                                                                                                    
   TITEL  = PAW_PBE O 08Apr2002                                                                     
   LULTRA =        F    use ultrasoft PP ?                                                          
   IUNSCR =        1    unscreen: 0-lin 1-nonlin 2-no                                               
   RPACOR =    1.200    partial core radius                                                         
   POMASS =   16.000; ZVAL   =    6.000    mass and valenz                                          
   RCORE  =    1.520    outmost cutoff radius                                                       
   RWIGS  =    1.550; RWIGS  =    0.820    wigner-seitz radius (au A)                               
   ENMAX  =  400.000; ENMIN  =  300.000 eV                                                          
   ICORE  =        2    local potential                                                             
   LCOR   =        T    correct aug charges                                                         
   LPAW   =        T    paw PP                                                                      
   EAUG   =  605.392                                                                                
   DEXC   =    0.000                                                                                
   RMAX   =    1.553    core radius for proj-oper                                                   
   RAUG   =    1.300    factor for augmentation sphere                                              
   RDEP   =    1.550    radius for radial grids                                                     
   RDEPT  =    1.329    core radius for aug-charge                                                  
                                                                                                    
   Atomic configuration                                                                             
    4 entries                                                                                       
     n  l   j            E        occ.                                                              
     1  0  0.50      -514.6923   2.0000                                                             
     2  0  0.50       -23.9615   2.0000                                                             
     2  1  0.50        -9.0305   4.0000                                                             
     3  2  1.50        -9.5241   0.0000                                                             
   Description                                                                                      
     l       E           TYP  RCUT    TYP  RCUT                                                     
     0    -23.9615318     23  1.200                                                                 
     0     -9.5240782     23  1.200                                                                 
     1     -9.0304911     23  1.520                                                                 
     1      8.1634956     23  1.520                                                                 
     2     -9.5240782      7  1.500                                                                 
  local pseudopotential read in
  partial core-charges read in
  partial kinetic energy density read in
  kinetic energy density of atom read in
  atomic valenz-charges read in
  non local Contribution for L=           0  read in
    real space projection operators read in
  non local Contribution for L=           0  read in
    real space projection operators read in
  non local Contribution for L=           1  read in
    real space projection operators read in
  non local Contribution for L=           1  read in
    real space projection operators read in
    PAW grid and wavefunctions read in
 
   number of l-projection  operators is LMAX  =           4
   number of lm-projection operators is LMMAX =           8
 
 Optimization of the real space projectors (new method)

 maximal supplied QI-value         = 15.12
 optimisation between [QCUT,QGAM] = [ 11.34, 22.83] = [ 36.00,145.93] Ry 
 Optimized for a Real-space Cutoff    1.43 Angstroem

   l    n(q)    QCUT    max X(q) W(low)/X(q) W(high)/X(q)  e(spline) 
   2      9    11.338    53.897    0.16E-03    0.20E-03    0.28E-06
   2      9    11.338    52.416    0.16E-03    0.20E-03    0.29E-06
   0     10    11.338   122.045    0.31E-04    0.76E-04    0.15E-06
   0     10    11.338    73.629    0.30E-04    0.72E-04    0.15E-06
   1      9    11.338    15.255    0.20E-03    0.19E-04    0.17E-06
   1      9    11.338     9.562    0.16E-03    0.15E-04    0.14E-06
 Optimization of the real space projectors (new method)

 maximal supplied QI-value         = 14.36
 optimisation between [QCUT,QGAM] = [ 11.35, 22.84] = [ 36.05,146.02] Ry 
 Optimized for a Real-space Cutoff    1.47 Angstroem

   l    n(q)    QCUT    max X(q) W(low)/X(q) W(high)/X(q)  e(spline) 
   2      9    11.346    66.195    0.31E-03    0.12E-04    0.29E-06
   2      9    11.346    64.643    0.32E-03    0.12E-04    0.29E-06
   0     10    11.346    95.520    0.90E-04    0.16E-04    0.19E-06
   0     10    11.346    63.403    0.87E-04    0.15E-04    0.19E-06
   1     10    11.346    19.961    0.17E-03    0.21E-03    0.11E-06
   1     10    11.346    13.289    0.14E-03    0.18E-03    0.89E-07
 Optimization of the real space projectors (new method)

 maximal supplied QI-value         = 25.13
 optimisation between [QCUT,QGAM] = [ 11.31, 22.87] = [ 35.82,146.48] Ry 
 Optimized for a Real-space Cutoff    1.00 Angstroem

   l    n(q)    QCUT    max X(q) W(low)/X(q) W(high)/X(q)  e(spline) 
   0      7    11.310   115.676    0.43E-03    0.13E-02    0.19E-06
   0      7    11.310    87.132    0.43E-03    0.13E-02    0.18E-06
   1      6    11.310     4.429    0.42E-03    0.74E-03    0.11E-06
   1      6    11.310     2.733    0.34E-03    0.55E-03    0.92E-07
 Optimization of the real space projectors (new method)

 maximal supplied QI-value         = 24.76
 optimisation between [QCUT,QGAM] = [ 11.39, 22.77] = [ 36.31,145.25] Ry 
 Optimized for a Real-space Cutoff    1.00 Angstroem

   l    n(q)    QCUT    max X(q) W(low)/X(q) W(high)/X(q)  e(spline) 
   0      7    11.387    20.381    0.39E-03    0.13E-02    0.15E-06
   0      7    11.387    15.268    0.42E-03    0.14E-02    0.17E-06
   1      6    11.387     5.964    0.41E-03    0.11E-02    0.17E-06
   1      6    11.387     5.382    0.39E-03    0.87E-03    0.15E-06
  PAW_PBE Ag 02Apr2005                  :
 energy of atom  1       EATOM=-1037.2675
 kinetic energy error for atom=    0.0052 (will be added to EATOM!!)
  PAW_PBE Pt 04Feb2005                  :
 energy of atom  2       EATOM= -729.1176
 kinetic energy error for atom=    0.0039 (will be added to EATOM!!)
  PAW_PBE C 08Apr2002                   :
 energy of atom  3       EATOM= -147.1560
 kinetic energy error for atom=    0.0076 (will be added to EATOM!!)
  PAW_PBE O 08Apr2002                   :
 energy of atom  4       EATOM= -432.3788
 kinetic energy error for atom=    0.0224 (will be added to EATOM!!)
 
 
 POSCAR: Ag-Pt-CO2
  positions in direct lattice
  velocities in cartesian coordinates
 exchange correlation table for  LEXCH =        8
   RHO(1)=    0.500       N(1)  =     2000
   RHO(2)=  100.500       N(2)  =     4000

 VTST: version 3.2, (02/03/18)

 CHAIN: initializing optimizer
 
 OPT: Using VASP Conjugate-Gradient optimizer
 CHAIN: Read ICHAIN            0
 
 POSCAR: Ag-Pt-CO2
  positions in direct lattice
  velocities in cartesian coordinates
 


--------------------------------------------------------------------------------------------------------


 ion  position               nearest neighbor table
   1  0.000  0.000  0.217-   2 2.93   8 2.93   7 2.93   6 2.93   4 2.93  12 2.93  16 2.93  10 2.93
                             3 2.93
   2  0.333  0.000  0.217-   1 2.93   8 2.93   9 2.93   3 2.93   4 2.93   5 2.93  10 2.93  17 2.93
                            11 2.93
   3  0.667  0.000  0.217-   9 2.93   2 2.93   5 2.93  11 2.93   7 2.93  18 2.93   1 2.93   6 2.93
                            12 2.93
   4  0.000  0.333  0.217-   5 2.93   6 2.93   2 2.93   1 2.93   7 2.93  13 2.93  15 2.93   9 2.93
                            10 2.93
   5  0.333  0.333  0.217-   4 2.93   3 2.93   7 2.93   2 2.93   8 2.93  14 2.93  13 2.93  11 2.93
                             6 2.93
   6  0.667  0.333  0.217-   4 2.93   9 2.93   1 2.93  15 2.93   8 2.93  12 2.93   3 2.93   5 2.93
                            14 2.93
   7  0.000  0.667  0.217-   8 2.93   1 2.93   5 2.93   3 2.93   4 2.93  16 2.93  18 2.93  13 2.93
                             9 2.93
   8  0.333  0.667  0.217-   7 2.93   1 2.93   2 2.93   9 2.93   5 2.93  16 2.93   6 2.93  17 2.93
                            14 2.93
   9  0.667  0.667  0.217-   3 2.93   2 2.93   8 2.93   6 2.93  17 2.93   4 2.93  15 2.93   7 2.93
                            18 2.93
  10  0.111  0.111  0.315-  20 2.89  19 2.93  26 2.93  12 2.93  16 2.93  15 2.93  17 2.93  13 2.93
                            11 2.93   2 2.93   1 2.93   4 2.93
  11  0.444  0.111  0.315-  21 2.90  20 2.90  27 2.91  14 2.93  17 2.93  18 2.93   3 2.93  12 2.93
                            13 2.93  10 2.93   5 2.93   2 2.93
  12  0.778  0.111  0.315-  21 2.89  25 2.93  19 2.93  10 2.93  16 2.93  18 2.93  15 2.93  11 2.93
                             1 2.93  14 2.93   6 2.93   3 2.93
  13  0.111  0.444  0.315-  20 2.90  23 2.90  22 2.91  15 2.93  14 2.93  18 2.93  10 2.93  11 2.93
                            16 2.93   4 2.93   5 2.93   7 2.93
  14  0.444  0.444  0.315-  23 2.90  21 2.90  24 2.91  13 2.93  11 2.93  16 2.93   5 2.93  12 2.93
                            17 2.93   8 2.93  15 2.93   6 2.93
  15  0.778  0.444  0.315-  24 2.91  22 2.91  19 2.92  13 2.93  10 2.93  12 2.93  17 2.93  18 2.93
                             4 2.93   6 2.93   9 2.93  14 2.93
  16  0.111  0.778  0.315-  23 2.89  26 2.93  25 2.93  18 2.93  12 2.93  10 2.93  14 2.93  17 2.93
                            13 2.93   7 2.93   8 2.93   1 2.93
  17  0.444  0.778  0.315-  27 2.91  24 2.91  26 2.92  11 2.93  10 2.93   9 2.93  18 2.93  15 2.93
                            16 2.93   2 2.93  14 2.93   8 2.93
  18  0.778  0.778  0.315-  22 2.91  27 2.91  25 2.92  16 2.93  12 2.93  13 2.93  11 2.93  17 2.93
                            15 2.93   7 2.93   3 2.93   9 2.93
  19  0.888  0.223  0.413-  28 2.91  15 2.92  20 2.92  21 2.92  24 2.92  22 2.92  10 2.93  12 2.93
                            32 2.93  31 2.93  26 2.94  25 2.94
  20  0.221  0.221  0.412-  36 2.81  10 2.89  13 2.90  11 2.90  19 2.92  26 2.92  31 2.92  29 2.92
                            27 2.93  22 2.93  21 2.95  23 2.95
  21  0.557  0.221  0.412-  36 2.81  12 2.89  11 2.90  14 2.90  25 2.92  19 2.92  30 2.92  32 2.92
                            27 2.93  24 2.93  20 2.95  23 2.95
  22  0.889  0.556  0.412-  35 2.91  18 2.91  15 2.91  13 2.91  25 2.92  19 2.92  24 2.93  27 2.93
                            33 2.93  31 2.93  23 2.93  20 2.93
  23  0.221  0.557  0.412-  36 2.81  16 2.89  14 2.90  13 2.90  26 2.92  25 2.92  34 2.92  33 2.92
                            22 2.93  24 2.93  21 2.95  20 2.95
  24  0.556  0.556  0.412-  35 2.91  15 2.91  17 2.91  14 2.91  19 2.92  26 2.92  27 2.93  22 2.93
                            32 2.93  34 2.93  23 2.93  21 2.93
  25  0.888  0.888  0.413-  28 2.91  18 2.92  23 2.92  21 2.92  22 2.92  27 2.92  16 2.93  12 2.93
                            33 2.93  30 2.93  26 2.94  19 2.94
  26  0.223  0.888  0.413-  28 2.91  17 2.92  23 2.92  20 2.92  27 2.92  24 2.92  16 2.93  10 2.93
                            34 2.93  29 2.93  25 2.94  19 2.94
  27  0.556  0.889  0.412-  35 2.91  17 2.91  18 2.91  11 2.91  26 2.92  25 2.92  24 2.93  22 2.93
                            29 2.93  30 2.93  20 2.93  21 2.93
  28  0.000  0.000  0.510-  26 2.91  25 2.91  19 2.91  29 2.95  34 2.95  33 2.95  32 2.95  31 2.95
                            30 2.95
  29  0.333  0.004  0.511-  30 2.89  31 2.89  36 2.90  20 2.92  27 2.93  26 2.93  35 2.95  28 2.95
                            34 3.00
  30  0.662  0.004  0.511-  29 2.89  32 2.89  36 2.90  21 2.92  27 2.93  25 2.93  35 2.95  28 2.95
                            33 3.00
  31  0.004  0.333  0.511-  33 2.89  29 2.89  36 2.90  20 2.92  22 2.93  19 2.93  35 2.95  28 2.95
                            32 3.00
  32  0.662  0.333  0.511-  34 2.89  30 2.89  36 2.90  21 2.92  24 2.93  19 2.93  35 2.95  28 2.95
                            31 3.00
  33  0.004  0.662  0.511-  31 2.89  34 2.89  36 2.90  23 2.92  22 2.93  25 2.93  35 2.95  28 2.95
                            30 3.00
  34  0.333  0.662  0.511-  32 2.89  33 2.89  36 2.90  23 2.92  24 2.93  26 2.93  35 2.95  28 2.95
                            29 3.00
  35  0.667  0.667  0.510-  24 2.91  27 2.91  22 2.91  30 2.95  32 2.95  29 2.95  34 2.95  31 2.95
                            33 2.95
  36  0.333  0.333  0.503-  37 2.21  21 2.81  20 2.81  23 2.81  31 2.90  33 2.90  30 2.90  29 2.90
                            34 2.90  32 2.90
  37  0.333  0.334  0.594-  38 1.22  39 1.23  36 2.21
  38  0.201  0.333  0.610-  37 1.22
  39  0.465  0.334  0.610-  37 1.23
 
  LATTYP: Found a hexagonal cell.
 ALAT       =     8.7913665772
 C/A-ratio  =     2.7703738524
  
  Lattice vectors:
  
 A1 = (  -4.3956832886,  -7.6135467898,   0.0000000000)
 A2 = (   8.7913665771,   0.0000000000,   0.0000000000)
 A3 = (   0.0000000000,   0.0000000000,  24.3553720923)


Analysis of symmetry for initial positions (statically):
=====================================================================
 Subroutine PRICEL returns:
 Original cell was already a primitive cell.
 

 Routine SETGRP: Setting up the symmetry group for a 
 hexagonal supercell.


 Subroutine GETGRP returns: Found  1 space group operations
 (whereof  1 operations were pure point group operations)
 out of a pool of 24 trial point group operations.


The static configuration has the point symmetry C_1 .


Analysis of symmetry for dynamics (positions and initial velocities):
=====================================================================
 Subroutine PRICEL returns:
 Original cell was already a primitive cell.
 

 Routine SETGRP: Setting up the symmetry group for a 
 hexagonal supercell.


 Subroutine GETGRP returns: Found  1 space group operations
 (whereof  1 operations were pure point group operations)
 out of a pool of 24 trial point group operations.


The dynamic configuration has the point symmetry C_1 .


Analysis of constrained symmetry for selective dynamics:
=====================================================================
 Subroutine PRICEL returns:
 Original cell was already a primitive cell.
 

 Routine SETGRP: Setting up the symmetry group for a 
 hexagonal supercell.


 Subroutine GETGRP returns: Found  1 space group operations
 (whereof  1 operations were pure point group operations)
 out of a pool of 24 trial point group operations.


The constrained configuration has the point symmetry C_1 .


 Subroutine INISYM returns: Found  1 space group operations
 (whereof  1 operations are pure point group operations),
 and found     1 'primitive' translations


----------------------------------------------------------------------------------------

                                     Primitive cell                                     

  volume of cell :    1630.1898

  direct lattice vectors                    reciprocal lattice vectors
     8.791366577  0.000000000  0.000000000     0.113747958 -0.065672414  0.000000000
     4.395683289  7.613546790  0.000000000     0.000000000  0.131344829  0.000000000
     0.000000000  0.000000000 24.355372092     0.000000000  0.000000000  0.041058703

  length of vectors
     8.791366577  8.791366577 24.355372092     0.131344829  0.131344829  0.041058703

  position of ions in fractional coordinates (direct lattice)
     0.000000000  0.000000000  0.216879796
     0.333333313  0.000000000  0.216879796
     0.666666627  0.000000000  0.216879796
     1.000000000  0.333333343  0.216879796
     0.333333313  0.333333343  0.216879796
     0.666666687  0.333333343  0.216879796
     1.000000000  0.666666687  0.216879796
     0.333333313  0.666666687  0.216879796
     0.666666627  0.666666687  0.216879796
     0.111111104  0.111111112  0.315121252
     0.444444448  0.111111112  0.315121252
     0.777777791  0.111111112  0.315121252
     0.111111097  0.444444448  0.315121252
     0.444444418  0.444444448  0.315121252
     0.777777791  0.444444448  0.315121252
     0.111111104  0.777777791  0.315121252
     0.444444448  0.777777791  0.315121252
     0.777777791  0.777777791  0.315121252
     0.888351115  0.223297786  0.413092091
     0.221460933  0.221460948  0.411716757
     0.557078073  0.221460948  0.411716757
     0.888564182  0.555717939  0.412442956
     0.221460948  0.557078133  0.411716757
     0.555717939  0.555717939  0.412442956
     0.888351115  0.888351115  0.413092091
     0.223297756  0.888351115  0.413092091
     0.555717879  0.888564182  0.412442956
     0.000000000  0.000000000  0.510044593
     0.333362240  0.004221406  0.510549110
     0.662416294  0.004221406  0.510549110
     0.004221406  0.333362270  0.510549110
     0.662416354  0.333362270  0.510549110
     0.004221406  0.662416354  0.510549110
     0.333362240  0.662416354  0.510549110
     0.666666627  0.666666687  0.509640787
     0.333333313  0.333333343  0.503238337
     0.333083396  0.333869032  0.593953561
     0.201011641  0.333453934  0.609760050
     0.465495724  0.333627555  0.609752185

  ion indices of the primitive-cell ions
   primitive index   ion index
                 1           1
                 2           2
                 3           3
                 4           4
                 5           5
                 6           6
                 7           7
                 8           8
                 9           9
                10          10
                11          11
                12          12
                13          13
                14          14
                15          15
                16          16
                17          17
                18          18
                19          19
                20          20
                21          21
                22          22
                23          23
                24          24
                25          25
                26          26
                27          27
                28          28
                29          29
                30          30
                31          31
                32          32
                33          33
                34          34
                35          35
                36          36
                37          37
                38          38
                39          39

----------------------------------------------------------------------------------------

 
 
 KPOINTS: Automatic mesh                          

Automatic generation of k-mesh.
 Grid dimensions read from file:
 generate k-points for:    8    8    1

 Generating k-lattice:

  Cartesian coordinates                     Fractional coordinates (reciprocal lattice)
     0.014218495 -0.008209052  0.000000000     0.125000000 -0.000000000  0.000000000
     0.000000000  0.016418104  0.000000000     0.000000000  0.125000000  0.000000000
     0.000000000  0.000000000  0.041058703     0.000000000  0.000000000  1.000000000

  Length of vectors
     0.016418104  0.016418104  0.041058703

  Shift w.r.t. Gamma in fractional coordinates (k-lattice)
     0.000000000  0.000000000  0.000000000

 TETIRR: Found    192 inequivalent tetrahedra from      384
 
 Subroutine IBZKPT returns following result:
 ===========================================
 
 Found     34 irreducible k-points:
 
 Following reciprocal coordinates:
            Coordinates               Weight
  0.000000  0.000000  0.000000      1.000000
  0.125000  0.000000  0.000000      2.000000
  0.125000  0.125000  0.000000      2.000000
  0.000000  0.125000  0.000000      2.000000
  0.250000  0.000000  0.000000      2.000000
  0.250000  0.250000  0.000000      2.000000
  0.000000  0.250000  0.000000      2.000000
  0.375000  0.000000  0.000000      2.000000
  0.375000  0.375000  0.000000      2.000000
  0.000000  0.375000  0.000000      2.000000
  0.500000  0.000000  0.000000      1.000000
  0.500000  0.500000  0.000000      1.000000
  0.000000  0.500000  0.000000      1.000000
  0.250000  0.125000  0.000000      2.000000
  0.125000  0.250000  0.000000      2.000000
 -0.125000  0.125000  0.000000      2.000000
  0.375000  0.125000  0.000000      2.000000
  0.250000  0.375000  0.000000      2.000000
 -0.125000  0.250000  0.000000      2.000000
  0.250000 -0.125000  0.000000      2.000000
 -0.125000 -0.375000  0.000000      2.000000
 -0.375000 -0.250000  0.000000      2.000000
  0.500000  0.125000  0.000000      2.000000
  0.375000  0.500000  0.000000      2.000000
 -0.125000  0.375000  0.000000      2.000000
  0.375000 -0.125000  0.000000      2.000000
 -0.125000  0.500000  0.000000      2.000000
  0.500000 -0.375000  0.000000      2.000000
  0.500000  0.250000  0.000000      2.000000
  0.250000  0.500000  0.000000      2.000000
 -0.250000  0.250000  0.000000      2.000000
 -0.375000  0.250000  0.000000      2.000000
  0.375000 -0.375000  0.000000      2.000000
 -0.250000  0.375000  0.000000      2.000000
 
 Following cartesian coordinates:
            Coordinates               Weight
  0.000000  0.000000  0.000000      1.000000
  0.014218 -0.008209  0.000000      2.000000
  0.014218  0.008209  0.000000      2.000000
  0.000000  0.016418  0.000000      2.000000
  0.028437 -0.016418  0.000000      2.000000
  0.028437  0.016418  0.000000      2.000000
  0.000000  0.032836  0.000000      2.000000
  0.042655 -0.024627  0.000000      2.000000
  0.042655  0.024627  0.000000      2.000000
  0.000000  0.049254  0.000000      2.000000
  0.056874 -0.032836  0.000000      1.000000
  0.056874  0.032836  0.000000      1.000000
  0.000000  0.065672  0.000000      1.000000
  0.028437 -0.000000  0.000000      2.000000
  0.014218  0.024627  0.000000      2.000000
 -0.014218  0.024627  0.000000      2.000000
  0.042655 -0.008209  0.000000      2.000000
  0.028437  0.032836  0.000000      2.000000
 -0.014218  0.041045  0.000000      2.000000
  0.028437 -0.032836  0.000000      2.000000
 -0.014218 -0.041045  0.000000      2.000000
 -0.042655 -0.008209  0.000000      2.000000
  0.056874 -0.016418  0.000000      2.000000
  0.042655  0.041045  0.000000      2.000000
 -0.014218  0.057463  0.000000      2.000000
  0.042655 -0.041045  0.000000      2.000000
 -0.014218  0.073881  0.000000      2.000000
  0.056874 -0.082091  0.000000      2.000000
  0.056874 -0.000000  0.000000      2.000000
  0.028437  0.049254  0.000000      2.000000
 -0.028437  0.049254  0.000000      2.000000
 -0.042655  0.057463  0.000000      2.000000
  0.042655 -0.073881  0.000000      2.000000
 -0.028437  0.065672  0.000000      2.000000
 


--------------------------------------------------------------------------------------------------------




 Dimension of arrays:
   k-points           NKPTS =     34   k-points in BZ     NKDIM =     34   number of bands    NBANDS=    252
   number of dos      NEDOS =    301   number of ions     NIONS =     39
   non local maximal  LDIM  =      6   non local SUM 2l+1 LMDIM =     18
   total plane-waves  NPLWV = 322560
   max r-space proj   IRMAX =   2706   max aug-charges    IRDMAX=  12182
   dimension x,y,z NGX =    48 NGY =   48 NGZ =  140
   dimension x,y,z NGXF=    96 NGYF=   96 NGZF=  280
   support grid    NGXF=    96 NGYF=   96 NGZF=  280
   ions per type =              35   1   1   2
   NGX,Y,Z   is equivalent  to a cutoff of   9.08,  9.08,  9.56 a.u.
   NGXF,Y,Z  is equivalent  to a cutoff of  18.15, 18.15, 19.11 a.u.

 SYSTEM =  unknown system                          
 POSCAR =  Ag-Pt-CO2                               

 Startparameter for this run:
   NWRITE =      2    write-flag & timer
   PREC   = normal    normal or accurate (medium, high low for compatibility)
   ISTART =      0    job   : 0-new  1-cont  2-samecut
   ICHARG =     11    charge: 1-file 2-atom 10-const
   ISPIN  =      1    spin polarized calculation?
   LNONCOLLINEAR =      F non collinear calculations
   LSORBIT =      F    spin-orbit coupling
   INIWAV =      1    electr: 0-lowe 1-rand  2-diag
   LASPH  =      F    aspherical Exc in radial PAW
   METAGGA=      F    non-selfconsistent MetaGGA calc.

 Electronic Relaxation 1
   ENCUT  =  500.0 eV  36.75 Ry    6.06 a.u.  16.03 16.03 44.41*2*pi/ulx,y,z
   ENINI  =  500.0     initial cutoff
   ENAUG  =  644.9 eV  augmentation charge cutoff
   NELM   =    150;   NELMIN=  2; NELMDL= -5     # of ELM steps 
   EDIFF  = 0.1E-04   stopping-criterion for ELM
   LREAL  =      T    real-space projection
   NLSPLINE    = F    spline interpolate recip. space projectors
   LCOMPAT=      F    compatible to vasp.4.4
   GGA_COMPAT  = T    GGA compatible to vasp.4.4-vasp.4.6
   LMAXPAW     = -100 max onsite density
   LMAXMIX     =    2 max onsite mixed and CHGCAR
   VOSKOWN=      0    Vosko Wilk Nusair interpolation
   ROPT   =   -0.00050  -0.00050  -0.00050  -0.00050
 Ionic relaxation
   EDIFFG = -.1E-01   stopping-criterion for IOM
   NSW    =      0    number of steps for IOM
   NBLOCK =      1;   KBLOCK =      1    inner block; outer block 
   IBRION =     -1    ionic relax: 0-MD 1-quasi-New 2-CG
   NFREE  =      1    steps in history (QN), initial steepest desc. (CG)
   ISIF   =      2    stress and relaxation
   IWAVPR =     10    prediction:  0-non 1-charg 2-wave 3-comb
   ISYM   =      2    0-nonsym 1-usesym 2-fastsym
   LCORR  =      T    Harris-Foulkes like correction to forces

   POTIM  = 0.5000    time-step for ionic-motion
   TEIN   =    0.0    initial temperature
   TEBEG  =    0.0;   TEEND  =   0.0 temperature during run
   SMASS  =  -3.00    Nose mass-parameter (am)
   estimated Nose-frequenzy (Omega)   =  0.10E-29 period in steps = 0.13E+47 mass=  -0.177E-26a.u.
   SCALEE = 1.0000    scale energy and forces
   NPACO  =    256;   APACO  = 16.0  distance and # of slots for P.C.
   PSTRESS=    0.0 pullay stress

  Mass of Ions in am
   POMASS = 107.87195.08 12.01 16.00
  Ionic Valenz
   ZVAL   =  11.00 10.00  4.00  6.00
  Atomic Wigner-Seitz radii
   RWIGS  =  -1.00 -1.00 -1.00 -1.00
  virtual crystal weights 
   VCA    =   1.00  1.00  1.00  1.00
   NELECT =     411.0000    total number of electrons
   NUPDOWN=      -1.0000    fix difference up-down

 DOS related values:
   EMIN   =  10.00;   EMAX   =-10.00  energy-range for DOS
   EFERMI =   0.00
   ISMEAR =    -5;   SIGMA  =   0.10  broadening in eV -4-tet -1-fermi 0-gaus

 Electronic relaxation 2 (details)
   IALGO  =     68    algorithm
   LDIAG  =      T    sub-space diagonalisation (order eigenvalues)
   LSUBROT=      F    optimize rotation matrix (better conditioning)
   TURBO    =      0    0=normal 1=particle mesh
   IRESTART =      0    0=no restart 2=restart with 2 vectors
   NREBOOT  =      0    no. of reboots
   NMIN     =      0    reboot dimension
   EREF     =   0.00    reference energy to select bands
   IMIX   =      4    mixing-type and parameters
     AMIX     =   0.40;   BMIX     =  1.00
     AMIX_MAG =   1.60;   BMIX_MAG =  1.00
     AMIN     =   0.10
     WC   =   100.;   INIMIX=   1;  MIXPRE=   1;  MAXMIX= -45

 Intra band minimization:
   WEIMIN = 0.0000     energy-eigenvalue tresh-hold
   EBREAK =  0.99E-08  absolut break condition
   DEPER  =   0.30     relativ break condition  

   TIME   =   0.40     timestep for ELM

  volume/ion in A,a.u.               =      41.80       282.08
  Fermi-wavevector in a.u.,A,eV,Ry     =   1.034212  1.954376 14.552703  1.069594
  Thomas-Fermi vector in A             =   2.168496
 
 Write flags
   LWAVE        =      F    write WAVECAR
   LDOWNSAMPLE  =      F    k-point downsampling of WAVECAR
   LCHARG       =      F    write CHGCAR
   LVTOT        =      F    write LOCPOT, total local potential
   LVHAR        =      F    write LOCPOT, Hartree potential only
   LELF         =      F    write electronic localiz. function (ELF)
   LORBIT       =     10    0 simple, 1 ext, 2 COOP (PROOUT), +10 PAW based schemes


 Dipole corrections
   LMONO  =      F    monopole corrections only (constant potential shift)
   LDIPOL =      F    correct potential (dipole corrections)
   IDIPOL =      0    1-x, 2-y, 3-z, 4-all directions 
   EPSILON=  1.0000000 bulk dielectric constant

 Exchange correlation treatment:
   GGA     =    --    GGA type
   LEXCH   =     8    internal setting for exchange type
   VOSKOWN=      0    Vosko Wilk Nusair interpolation
   LHFCALC =     F    Hartree Fock is set to
   LHFONE  =     F    Hartree Fock one center treatment
   AEXX    =    0.0000 exact exchange contribution

 Linear response parameters
   LEPSILON=     F    determine dielectric tensor
   LRPA    =     F    only Hartree local field effects (RPA)
   LNABLA  =     F    use nabla operator in PAW spheres
   LVEL    =     F    velocity operator in full k-point grid
   LINTERFAST=   F  fast interpolation
   KINTER  =     0    interpolate to denser k-point grid
   CSHIFT  =0.1000    complex shift for real part using Kramers Kronig
   OMEGAMAX=  -1.0    maximum frequency
   DEG_THRESHOLD= 0.2000000E-02 threshold for treating states as degnerate
   RTIME   =   -0.100 relaxation time in fs
  (WPLASMAI=    0.000 imaginary part of plasma frequency in eV, 0.658/RTIME)
   DFIELD  = 0.0000000 0.0000000 0.0000000 field for delta impulse in time
 
 Orbital magnetization related:
   ORBITALMAG=     F  switch on orbital magnetization
   LCHIMAG   =     F  perturbation theory with respect to B field
   DQ        =  0.001000  dq finite difference perturbation B field
   LLRAUG    =     F  two centre corrections for induced B field



--------------------------------------------------------------------------------------------------------


 Static calculation
 charge density and potential remain constant during run
 non-spin polarized calculation
 RMM-DIIS sequential band-by-band and
  variant of blocked Davidson during initial phase
 perform sub-space diagonalisation
    before iterative eigenvector-optimisation
 no mixing
 using additional bands           46
 real space projection scheme for non local part
 use partial core corrections
 calculate Harris-corrections to forces 
   (improved forces if not selfconsistent)
 use gradient corrections 
 WARNING: stress and forces are not correct
  (second derivative of E(xc) not defined)
 use of overlap-Matrix (Vanderbilt PP)
 Fermi weights with tetrahedron method with Bloechl corrections


--------------------------------------------------------------------------------------------------------


  energy-cutoff  :      500.00
  volume of cell :     1630.19
      direct lattice vectors                 reciprocal lattice vectors
     8.791366577  0.000000000  0.000000000     0.113747958 -0.065672414  0.000000000
     4.395683289  7.613546790  0.000000000     0.000000000  0.131344829  0.000000000
     0.000000000  0.000000000 24.355372092     0.000000000  0.000000000  0.041058703

  length of vectors
     8.791366577  8.791366577 24.355372092     0.131344829  0.131344829  0.041058703


 
 k-points in units of 2pi/SCALE and weight: Automatic mesh                          
   0.00000000  0.00000000  0.00000000       0.016
   0.01421849 -0.00820905  0.00000000       0.031
   0.01421849  0.00820905  0.00000000       0.031
   0.00000000  0.01641810  0.00000000       0.031
   0.02843699 -0.01641810  0.00000000       0.031
   0.02843699  0.01641810  0.00000000       0.031
   0.00000000  0.03283621  0.00000000       0.031
   0.04265548 -0.02462716  0.00000000       0.031
   0.04265548  0.02462716  0.00000000       0.031
   0.00000000  0.04925431  0.00000000       0.031
   0.05687398 -0.03283621  0.00000000       0.016
   0.05687398  0.03283621  0.00000000       0.016
   0.00000000  0.06567241  0.00000000       0.016
   0.02843699 -0.00000000  0.00000000       0.031
   0.01421849  0.02462716  0.00000000       0.031
  -0.01421849  0.02462716  0.00000000       0.031
   0.04265548 -0.00820905  0.00000000       0.031
   0.02843699  0.03283621  0.00000000       0.031
  -0.01421849  0.04104526  0.00000000       0.031
   0.02843699 -0.03283621  0.00000000       0.031
  -0.01421849 -0.04104526  0.00000000       0.031
  -0.04265548 -0.00820905  0.00000000       0.031
   0.05687398 -0.01641810  0.00000000       0.031
   0.04265548  0.04104526  0.00000000       0.031
  -0.01421849  0.05746336  0.00000000       0.031
   0.04265548 -0.04104526  0.00000000       0.031
  -0.01421849  0.07388147  0.00000000       0.031
   0.05687398 -0.08209052  0.00000000       0.031
   0.05687398 -0.00000000  0.00000000       0.031
   0.02843699  0.04925431  0.00000000       0.031
  -0.02843699  0.04925431  0.00000000       0.031
  -0.04265548  0.05746336  0.00000000       0.031
   0.04265548 -0.07388147  0.00000000       0.031
  -0.02843699  0.06567241  0.00000000       0.031
 
 k-points in reciprocal lattice and weights: Automatic mesh                          
   0.00000000  0.00000000  0.00000000       0.016
   0.12500000  0.00000000  0.00000000       0.031
   0.12500000  0.12500000  0.00000000       0.031
   0.00000000  0.12500000  0.00000000       0.031
   0.25000000  0.00000000  0.00000000       0.031
   0.25000000  0.25000000  0.00000000       0.031
   0.00000000  0.25000000  0.00000000       0.031
   0.37500000  0.00000000  0.00000000       0.031
   0.37500000  0.37500000  0.00000000       0.031
   0.00000000  0.37500000  0.00000000       0.031
   0.50000000  0.00000000  0.00000000       0.016
   0.50000000  0.50000000  0.00000000       0.016
   0.00000000  0.50000000  0.00000000       0.016
   0.25000000  0.12500000  0.00000000       0.031
   0.12500000  0.25000000  0.00000000       0.031
  -0.12500000  0.12500000  0.00000000       0.031
   0.37500000  0.12500000  0.00000000       0.031
   0.25000000  0.37500000  0.00000000       0.031
  -0.12500000  0.25000000  0.00000000       0.031
   0.25000000 -0.12500000  0.00000000       0.031
  -0.12500000 -0.37500000  0.00000000       0.031
  -0.37500000 -0.25000000  0.00000000       0.031
   0.50000000  0.12500000  0.00000000       0.031
   0.37500000  0.50000000  0.00000000       0.031
  -0.12500000  0.37500000  0.00000000       0.031
   0.37500000 -0.12500000  0.00000000       0.031
  -0.12500000  0.50000000  0.00000000       0.031
   0.50000000 -0.37500000  0.00000000       0.031
   0.50000000  0.25000000  0.00000000       0.031
   0.25000000  0.50000000  0.00000000       0.031
  -0.25000000  0.25000000  0.00000000       0.031
  -0.37500000  0.25000000  0.00000000       0.031
   0.37500000 -0.37500000  0.00000000       0.031
  -0.25000000  0.37500000  0.00000000       0.031
 
 position of ions in fractional coordinates (direct lattice) 
   0.00000000  0.00000000  0.21687980
   0.33333331  0.00000000  0.21687980
   0.66666663  0.00000000  0.21687980
   0.00000000  0.33333334  0.21687980
   0.33333331  0.33333334  0.21687980
   0.66666669  0.33333334  0.21687980
   0.00000000  0.66666669  0.21687980
   0.33333331  0.66666669  0.21687980
   0.66666663  0.66666669  0.21687980
   0.11111110  0.11111111  0.31512125
   0.44444445  0.11111111  0.31512125
   0.77777779  0.11111111  0.31512125
   0.11111110  0.44444445  0.31512125
   0.44444442  0.44444445  0.31512125
   0.77777779  0.44444445  0.31512125
   0.11111110  0.77777779  0.31512125
   0.44444445  0.77777779  0.31512125
   0.77777779  0.77777779  0.31512125
   0.88835112  0.22329779  0.41309209
   0.22146093  0.22146095  0.41171676
   0.55707807  0.22146095  0.41171676
   0.88856418  0.55571794  0.41244296
   0.22146095  0.55707813  0.41171676
   0.55571794  0.55571794  0.41244296
   0.88835112  0.88835112  0.41309209
   0.22329776  0.88835112  0.41309209
   0.55571788  0.88856418  0.41244296
   0.00000000  0.00000000  0.51004459
   0.33336224  0.00422141  0.51054911
   0.66241629  0.00422141  0.51054911
   0.00422141  0.33336227  0.51054911
   0.66241635  0.33336227  0.51054911
   0.00422141  0.66241635  0.51054911
   0.33336224  0.66241635  0.51054911
   0.66666663  0.66666669  0.50964079
   0.33333331  0.33333334  0.50323834
   0.33308340  0.33386903  0.59395356
   0.20101164  0.33345393  0.60976005
   0.46549572  0.33362756  0.60975218
 
 position of ions in cartesian coordinates  (Angst):
   0.00000000  0.00000000  5.28218814
   2.93045535  0.00000000  5.28218814
   5.86091070  0.00000000  5.28218814
   1.46522781  2.53784900  5.28218814
   4.39568315  2.53784900  5.28218814
   7.32613904  2.53784900  5.28218814
   2.93045562  5.07569801  5.28218814
   5.86091096  5.07569801  5.28218814
   8.79136632  5.07569801  5.28218814
   1.46522770  0.84594965  7.67489535
   4.39568332  0.84594965  7.67489535
   7.32613893  0.84594965  7.67489535
   2.93045542  3.38379860  7.67489535
   5.86091083  3.38379860  7.67489535
   8.79136671  3.38379860  7.67489535
   4.39568328  5.92164760  7.67489535
   7.32613890  5.92164760  7.67489535
  10.25659451  5.92164760  7.67489535
   8.79136665  1.70008814 10.06101158
   2.92041644  1.68610329 10.02751482
   5.87094974  1.68610329 10.02751482
  10.25445351  4.23098453 10.04520166
   4.39568342  4.24134043 10.02751482
   7.32828017  4.23098453 10.04520166
  11.71473045  6.76350278 10.06101158
   5.86800258  6.76350278 10.06101158
   8.79136631  6.76512497 10.04520166
   0.00000000  0.00000000 12.42232586
   2.94926562  0.03213987 12.43461354
   5.84210043  0.03213987 12.43461354
   1.50246689  2.53806924 12.43461354
   7.28889995  2.53806924 12.43461354
   2.94888442  5.04333790 12.43461354
   5.84248215  5.04333790 12.43461354
   8.79136632  5.07569801 12.41249099
   4.39568315  2.53784900 12.25655696
   4.39584076  2.54192749 14.46595998
   3.23292490  2.53876713 14.85093291
   5.55886462  2.54008900 14.85074135
 


--------------------------------------------------------------------------------------------------------


 k-point   1 :   0.0000 0.0000 0.0000  plane waves:   41243
 k-point   2 :   0.1250 0.0000 0.0000  plane waves:   41326
 k-point   3 :   0.1250 0.1250 0.0000  plane waves:   41326
 k-point   4 :   0.0000 0.1250 0.0000  plane waves:   41326
 k-point   5 :   0.2500 0.0000 0.0000  plane waves:   41336
 k-point   6 :   0.2500 0.2500 0.0000  plane waves:   41336
 k-point   7 :   0.0000 0.2500 0.0000  plane waves:   41336
 k-point   8 :   0.3750 0.0000 0.0000  plane waves:   41410
 k-point   9 :   0.3750 0.3750 0.0000  plane waves:   41410
 k-point  10 :   0.0000 0.3750 0.0000  plane waves:   41410
 k-point  11 :   0.5000 0.0000 0.0000  plane waves:   41412
 k-point  12 :   0.5000 0.5000 0.0000  plane waves:   41412
 k-point  13 :   0.0000 0.5000 0.0000  plane waves:   41412
 k-point  14 :   0.2500 0.1250 0.0000  plane waves:   41324
 k-point  15 :   0.1250 0.2500 0.0000  plane waves:   41324
 k-point  16 :  -0.1250 0.1250 0.0000  plane waves:   41324
 k-point  17 :   0.3750 0.1250 0.0000  plane waves:   41412
 k-point  18 :   0.2500 0.3750 0.0000  plane waves:   41412
 k-point  19 :  -0.1250 0.2500 0.0000  plane waves:   41412
 k-point  20 :   0.2500-0.1250 0.0000  plane waves:   41412
 k-point  21 :  -0.1250-0.3750 0.0000  plane waves:   41412
 k-point  22 :  -0.3750-0.2500 0.0000  plane waves:   41412
 k-point  23 :   0.5000 0.1250 0.0000  plane waves:   41392
 k-point  24 :   0.3750 0.5000 0.0000  plane waves:   41392
 k-point  25 :  -0.1250 0.3750 0.0000  plane waves:   41392
 k-point  26 :   0.3750-0.1250 0.0000  plane waves:   41392
 k-point  27 :  -0.1250 0.5000 0.0000  plane waves:   41392
 k-point  28 :   0.5000-0.3750 0.0000  plane waves:   41392
 k-point  29 :   0.5000 0.2500 0.0000  plane waves:   41436
 k-point  30 :   0.2500 0.5000 0.0000  plane waves:   41436
 k-point  31 :  -0.2500 0.2500 0.0000  plane waves:   41436
 k-point  32 :  -0.3750 0.2500 0.0000  plane waves:   41434
 k-point  33 :   0.3750-0.3750 0.0000  plane waves:   41434
 k-point  34 :  -0.2500 0.3750 0.0000  plane waves:   41434

 maximum and minimum number of plane-waves per node :     41436    41243

 maximum number of plane-waves:     41436
 maximum index in each direction: 
   IXMAX=   16   IYMAX=   16   IZMAX=   44
   IXMIN=  -16   IYMIN=  -16   IZMIN=  -44


 serial   3D FFT for wavefunctions
 parallel 3D FFT for charge:
    minimum data exchange during FFTs selected (reduces bandwidth)


 total amount of memory used by VASP MPI-rank0   277780. kBytes
=======================================================================

   base      :      30000. kBytes
   nonlr-proj:      15463. kBytes
   fftplans  :       4808. kBytes
   grid      :      20723. kBytes
   one-center:        606. kBytes
   wavefun   :     206180. kBytes
 
     INWAV:  cpu time    0.0000: real time    0.0001
 initial charge density was supplied:
 number of electron     411.0000047 magnetization 
 keeping initial charge density in first step


--------------------------------------------------------------------------------------------------------


 Maximum index for non-local projection operator         2584
 Maximum index for augmentation-charges          715 (set IRDMAX)


--------------------------------------------------------------------------------------------------------


 First call to EWALD:  gamma=   0.151
 Maximum number of real-space cells 4x 4x 2
 Maximum number of reciprocal cells 2x 2x 5

    FEWALD:  cpu time    0.0014: real time    0.0014


--------------------------------------- Iteration      1(   1)  ---------------------------------------


    POTLOK:  cpu time    0.0596: real time    0.0599
    SETDIJ:  cpu time    0.0049: real time    0.0051
     EDDAV:  cpu time   26.7741: real time   26.7771
 BZINTS: Fermi energy:    9.568499;  411.000000 electrons
         Band energy: 0.103436E+04;  BLOECHL correction:   -0.024606
       DOS:  cpu time    0.0611: real time    0.0612
    --------------------------------------------
      LOOP:  cpu time   26.8997: real time   26.9033

 eigenvalue-minimisations  : 17136
 total energy-change (2. order) : 0.2557222E+04  (-0.1891921E+05)
 number of electron     411.0000047 magnetization 
 augmentation part      411.0000047 magnetization 

 Free energy of the ion-electron system (eV)
  ---------------------------------------------------
  alpha Z        PSCENC =       723.14916956
  Ewald energy   TEWEN  =    130656.21769771
  -Hartree energ DENC   =   -169145.36615970
  -exchange      EXHF   =         0.00000000
  -V(xc)+E(xc)   XCENC  =      -315.84724049
  PAW double counting   =     40576.21608891   -39016.66695731
  entropy T*S    EENTRO =         0.00000000
  eigenvalues    EBANDS =      1034.36320488
  atomic energy  EATOM  =     38045.15578310
  Solvation  Ediel_sol  =         0.00000000
  ---------------------------------------------------
  free energy    TOTEN  =      2557.22158666 eV

  energy without entropy =     2557.22158666  energy(sigma->0) =     2557.22158666


--------------------------------------------------------------------------------------------------------




--------------------------------------- Iteration      1(   2)  ---------------------------------------


     EDDAV:  cpu time   28.0370: real time   28.0385
 BZINTS: Fermi energy:    0.993446;  411.000000 electrons
         Band energy:-0.152331E+04;  BLOECHL correction:   -0.060781
       DOS:  cpu time    0.0584: real time    0.0584
    --------------------------------------------
      LOOP:  cpu time   28.0954: real time   28.0969

 eigenvalue-minimisations  : 18144
 total energy-change (2. order) :-0.2557674E+04  (-0.2452990E+04)
 number of electron     411.0000047 magnetization 
 augmentation part      411.0000047 magnetization 

 Free energy of the ion-electron system (eV)
  ---------------------------------------------------
  alpha Z        PSCENC =       723.14916956
  Ewald energy   TEWEN  =    130656.21769771
  -Hartree energ DENC   =   -169145.36615970
  -exchange      EXHF   =         0.00000000
  -V(xc)+E(xc)   XCENC  =      -315.84724049
  PAW double counting   =     40576.21608891   -39016.66695731
  entropy T*S    EENTRO =         0.00000000
  eigenvalues    EBANDS =     -1523.31121865
  atomic energy  EATOM  =     38045.15578310
  Solvation  Ediel_sol  =         0.00000000
  ---------------------------------------------------
  free energy    TOTEN  =        -0.45283687 eV

  energy without entropy =       -0.45283687  energy(sigma->0) =       -0.45283687


--------------------------------------------------------------------------------------------------------




--------------------------------------- Iteration      1(   3)  ---------------------------------------


     EDDAV:  cpu time   31.7279: real time   31.7295
 BZINTS: Fermi energy:    0.271918;  411.000000 electrons
         Band energy:-0.163819E+04;  BLOECHL correction:   -0.082212
       DOS:  cpu time    0.0577: real time    0.0577
    --------------------------------------------
      LOOP:  cpu time   31.7856: real time   31.7871

 eigenvalue-minimisations  : 21084
 total energy-change (2. order) :-0.1148838E+03  (-0.1125567E+03)
 number of electron     411.0000047 magnetization 
 augmentation part      411.0000047 magnetization 

 Free energy of the ion-electron system (eV)
  ---------------------------------------------------
  alpha Z        PSCENC =       723.14916956
  Ewald energy   TEWEN  =    130656.21769771
  -Hartree energ DENC   =   -169145.36615970
  -exchange      EXHF   =         0.00000000
  -V(xc)+E(xc)   XCENC  =      -315.84724049
  PAW double counting   =     40576.21608891   -39016.66695731
  entropy T*S    EENTRO =         0.00000000
  eigenvalues    EBANDS =     -1638.19499457
  atomic energy  EATOM  =     38045.15578310
  Solvation  Ediel_sol  =         0.00000000
  ---------------------------------------------------
  free energy    TOTEN  =      -115.33661280 eV

  energy without entropy =     -115.33661280  energy(sigma->0) =     -115.33661280


--------------------------------------------------------------------------------------------------------




--------------------------------------- Iteration      1(   4)  ---------------------------------------


     EDDAV:  cpu time   29.6241: real time   29.6258
 BZINTS: Fermi energy:    0.254331;  411.000000 electrons
         Band energy:-0.164044E+04;  BLOECHL correction:   -0.080573
       DOS:  cpu time    0.0589: real time    0.0589
    --------------------------------------------
      LOOP:  cpu time   29.6831: real time   29.6878

 eigenvalue-minimisations  : 19376
 total energy-change (2. order) :-0.2245265E+01  (-0.2235947E+01)
 number of electron     411.0000047 magnetization 
 augmentation part      411.0000047 magnetization 

 Free energy of the ion-electron system (eV)
  ---------------------------------------------------
  alpha Z        PSCENC =       723.14916956
  Ewald energy   TEWEN  =    130656.21769771
  -Hartree energ DENC   =   -169145.36615970
  -exchange      EXHF   =         0.00000000
  -V(xc)+E(xc)   XCENC  =      -315.84724049
  PAW double counting   =     40576.21608891   -39016.66695731
  entropy T*S    EENTRO =         0.00000000
  eigenvalues    EBANDS =     -1640.44025908
  atomic energy  EATOM  =     38045.15578310
  Solvation  Ediel_sol  =         0.00000000
  ---------------------------------------------------
  free energy    TOTEN  =      -117.58187730 eV

  energy without entropy =     -117.58187730  energy(sigma->0) =     -117.58187730


--------------------------------------------------------------------------------------------------------




--------------------------------------- Iteration      1(   5)  ---------------------------------------


     EDDAV:  cpu time   30.0244: real time   30.0292
 BZINTS: Fermi energy:    0.253968;  411.000000 electrons
         Band energy:-0.164049E+04;  BLOECHL correction:   -0.080591
       DOS:  cpu time    0.0578: real time    0.0578
    --------------------------------------------
      LOOP:  cpu time   30.0821: real time   30.0839

 eigenvalue-minimisations  : 19740
 total energy-change (2. order) :-0.4932704E-01  (-0.4924878E-01)
 number of electron     411.0000047 magnetization 
 augmentation part      411.0000047 magnetization 

 Free energy of the ion-electron system (eV)
  ---------------------------------------------------
  alpha Z        PSCENC =       723.14916956
  Ewald energy   TEWEN  =    130656.21769771
  -Hartree energ DENC   =   -169145.36615970
  -exchange      EXHF   =         0.00000000
  -V(xc)+E(xc)   XCENC  =      -315.84724049
  PAW double counting   =     40576.21608891   -39016.66695731
  entropy T*S    EENTRO =         0.00000000
  eigenvalues    EBANDS =     -1640.48958612
  atomic energy  EATOM  =     38045.15578310
  Solvation  Ediel_sol  =         0.00000000
  ---------------------------------------------------
  free energy    TOTEN  =      -117.63120434 eV

  energy without entropy =     -117.63120434  energy(sigma->0) =     -117.63120434


--------------------------------------------------------------------------------------------------------




--------------------------------------- Iteration      1(   6)  ---------------------------------------


    EDDIAG:  cpu time    5.2160: real time    5.2166
  RMM-DIIS:  cpu time   15.9685: real time   15.9694
    ORTHCH:  cpu time    0.9558: real time    0.9559
 BZINTS: Fermi energy:    0.253966;  411.000000 electrons
         Band energy:-0.164049E+04;  BLOECHL correction:   -0.080592
       DOS:  cpu time    0.0579: real time    0.0579
    --------------------------------------------
      LOOP:  cpu time   22.1983: real time   22.1997

 eigenvalue-minimisations  : 17816
 total energy-change (2. order) :-0.1056039E-02  (-0.1054967E-02)
 number of electron     411.0000047 magnetization 
 augmentation part      411.0000047 magnetization 

 Free energy of the ion-electron system (eV)
  ---------------------------------------------------
  alpha Z        PSCENC =       723.14916956
  Ewald energy   TEWEN  =    130656.21769771
  -Hartree energ DENC   =   -169145.36615970
  -exchange      EXHF   =         0.00000000
  -V(xc)+E(xc)   XCENC  =      -315.84724049
  PAW double counting   =     40576.21608891   -39016.66695731
  entropy T*S    EENTRO =         0.00000000
  eigenvalues    EBANDS =     -1640.49064216
  atomic energy  EATOM  =     38045.15578310
  Solvation  Ediel_sol  =         0.00000000
  ---------------------------------------------------
  free energy    TOTEN  =      -117.63226038 eV

  energy without entropy =     -117.63226038  energy(sigma->0) =     -117.63226038


--------------------------------------------------------------------------------------------------------




--------------------------------------- Iteration      1(   7)  ---------------------------------------


    EDDIAG:  cpu time    5.2198: real time    5.2201
  RMM-DIIS:  cpu time   21.9295: real time   21.9307
    ORTHCH:  cpu time    0.9552: real time    0.9552
 BZINTS: Fermi energy:    0.253965;  411.000000 electrons
         Band energy:-0.164049E+04;  BLOECHL correction:   -0.080592
       DOS:  cpu time    0.0592: real time    0.0592
    --------------------------------------------
      LOOP:  cpu time   28.1637: real time   28.1653

 eigenvalue-minimisations  : 25462
 total energy-change (2. order) :-0.3815979E-03  (-0.3807429E-03)
 number of electron     411.0000047 magnetization 
 augmentation part      411.0000047 magnetization 

 Free energy of the ion-electron system (eV)
  ---------------------------------------------------
  alpha Z        PSCENC =       723.14916956
  Ewald energy   TEWEN  =    130656.21769771
  -Hartree energ DENC   =   -169145.36615970
  -exchange      EXHF   =         0.00000000
  -V(xc)+E(xc)   XCENC  =      -315.84724049
  PAW double counting   =     40576.21608891   -39016.66695731
  entropy T*S    EENTRO =         0.00000000
  eigenvalues    EBANDS =     -1640.49102376
  atomic energy  EATOM  =     38045.15578310
  Solvation  Ediel_sol  =         0.00000000
  ---------------------------------------------------
  free energy    TOTEN  =      -117.63264198 eV

  energy without entropy =     -117.63264198  energy(sigma->0) =     -117.63264198


--------------------------------------------------------------------------------------------------------




--------------------------------------- Iteration      1(   8)  ---------------------------------------


    EDDIAG:  cpu time    5.2168: real time    5.2172
  RMM-DIIS:  cpu time   16.5216: real time   16.5225
    ORTHCH:  cpu time    0.9554: real time    0.9555
 BZINTS: Fermi energy:    0.253965;  411.000000 electrons
         Band energy:-0.164049E+04;  BLOECHL correction:   -0.080592
       DOS:  cpu time    0.0567: real time    0.0566
    --------------------------------------------
      LOOP:  cpu time   22.7504: real time   22.7518

 eigenvalue-minimisations  : 18747
 total energy-change (2. order) :-0.1605620E-04  (-0.1857481E-04)
 number of electron     411.0000047 magnetization 
 augmentation part      411.0000047 magnetization 

 Free energy of the ion-electron system (eV)
  ---------------------------------------------------
  alpha Z        PSCENC =       723.14916956
  Ewald energy   TEWEN  =    130656.21769771
  -Hartree energ DENC   =   -169145.36615970
  -exchange      EXHF   =         0.00000000
  -V(xc)+E(xc)   XCENC  =      -315.84724049
  PAW double counting   =     40576.21608891   -39016.66695731
  entropy T*S    EENTRO =         0.00000000
  eigenvalues    EBANDS =     -1640.49103982
  atomic energy  EATOM  =     38045.15578310
  Solvation  Ediel_sol  =         0.00000000
  ---------------------------------------------------
  free energy    TOTEN  =      -117.63265804 eV

  energy without entropy =     -117.63265804  energy(sigma->0) =     -117.63265804


--------------------------------------------------------------------------------------------------------




--------------------------------------- Iteration      1(   9)  ---------------------------------------


    EDDIAG:  cpu time    5.2202: real time    5.2204
  RMM-DIIS:  cpu time   12.7371: real time   12.7378
    ORTHCH:  cpu time    0.9555: real time    0.9555
 BZINTS: Fermi energy:    0.253965;  411.000000 electrons
         Band energy:-0.164049E+04;  BLOECHL correction:   -0.080592
       DOS:  cpu time    0.0580: real time    0.0580
    --------------------------------------------
      LOOP:  cpu time   18.9707: real time   18.9717

 eigenvalue-minimisations  : 12932
 total energy-change (2. order) :-0.3533234E-05  (-0.3660762E-05)
 number of electron     411.0000047 magnetization 
 augmentation part      411.0000047 magnetization 

 Free energy of the ion-electron system (eV)
  ---------------------------------------------------
  alpha Z        PSCENC =       723.14916956
  Ewald energy   TEWEN  =    130656.21769771
  -Hartree energ DENC   =   -169145.36615970
  -exchange      EXHF   =         0.00000000
  -V(xc)+E(xc)   XCENC  =      -315.84724049
  PAW double counting   =     40576.21608891   -39016.66695731
  entropy T*S    EENTRO =         0.00000000
  eigenvalues    EBANDS =     -1640.49104335
  atomic energy  EATOM  =     38045.15578310
  Solvation  Ediel_sol  =         0.00000000
  ---------------------------------------------------
  free energy    TOTEN  =      -117.63266157 eV

  energy without entropy =     -117.63266157  energy(sigma->0) =     -117.63266157


--------------------------------------------------------------------------------------------------------




 average (electrostatic) potential at core
  the test charge radii are     1.1249  1.2059  0.6991  0.7215
  (the norm of the test charge is              1.0000)
       1 -78.6117       2 -78.6070       3 -78.6070       4 -78.6101       5 -78.6053
       6 -78.6098       7 -78.6064       8 -78.6061       9 -78.6129      10 -78.8392
      11 -78.8482      12 -78.8390      13 -78.8501      14 -78.8499      15 -78.8473
      16 -78.8447      17 -78.8447      18 -78.8448      19 -78.8331      20 -78.8136
      21 -78.8135      22 -78.8483      23 -78.8242      24 -78.8481      25 -78.8329
      26 -78.8329      27 -78.8406      28 -78.5876      29 -78.5434      30 -78.5435
      31 -78.5187      32 -78.5186      33 -78.5415      34 -78.5413      35 -78.5953
      36 -72.9491      37 -57.2844      38 -76.0439      39 -76.0437
 
 
 
 E-fermi :   0.2540     XC(G=0):  -5.5492     alpha+bet : -5.2351

 Fermi energy:         0.2539645785

 k-point     1 :       0.0000    0.0000    0.0000
  band No.  band energies     occupation 
      1     -22.4118      2.00000
      2     -20.7963      2.00000
      3      -8.1745      2.00000
      4      -7.0596      2.00000
      5      -6.7301      2.00000
      6      -6.2936      2.00000
      7      -6.2141      2.00000
      8      -5.9561      2.00000
      9      -5.7001      2.00000
     10      -5.5789      2.00000
     11      -5.5755      2.00000
     12      -5.5747      2.00000
     13      -5.5697      2.00000
     14      -5.5663      2.00000
     15      -5.5631      2.00000
     16      -5.5482      2.00000
     17      -5.5293      2.00000
     18      -5.5287      2.00000
     19      -5.5259      2.00000
     20      -5.5248      2.00000
     21      -5.5235      2.00000
     22      -5.5191      2.00000
     23      -5.3685      2.00000
     24      -5.3627      2.00000
     25      -5.3602      2.00000
     26      -5.3545      2.00000
     27      -5.3540      2.00000
     28      -5.3534      2.00000
     29      -5.1806      2.00000
     30      -5.1633      2.00000
     31      -5.1620      2.00000
     32      -5.1578      2.00000
     33      -5.1473      2.00000
     34      -5.1391      2.00000
     35      -5.1385      2.00000
     36      -5.1328      2.00000
     37      -5.1104      2.00000
     38      -5.1092      2.00000
     39      -5.1091      2.00000
     40      -5.1084      2.00000
     41      -5.0274      2.00000
     42      -4.9985      2.00000
     43      -4.9978      2.00000
     44      -4.9943      2.00000
     45      -4.9380      2.00000
     46      -4.9295      2.00000
     47      -4.7803      2.00000
     48      -4.7803      2.00000
     49      -4.7662      2.00000
     50      -4.7651      2.00000
     51      -4.7585      2.00000
     52      -4.7578      2.00000
     53      -4.7558      2.00000
     54      -4.7467      2.00000
     55      -4.7390      2.00000
     56      -4.7265      2.00000
     57      -4.6182      2.00000
     58      -4.6150      2.00000
     59      -4.5934      2.00000
     60      -4.5853      2.00000
     61      -4.3819      2.00000
     62      -4.3787      2.00000
     63      -4.3775      2.00000
     64      -4.3735      2.00000
     65      -4.3677      2.00000
     66      -4.3666      2.00000
     67      -4.3509      2.00000
     68      -4.3503      2.00000
     69      -4.3469      2.00000
     70      -4.3164      2.00000
     71      -4.3164      2.00000
     72      -4.2168      2.00000
     73      -4.2141      2.00000
     74      -4.2001      2.00000
     75      -4.1983      2.00000
     76      -4.1966      2.00000
     77      -4.1887      2.00000
     78      -4.1866      2.00000
     79      -4.1813      2.00000
[...]
  0.000   0.000   0.000   0.000   0.000   0.000   0.000   0.000   0.000   0.000   1.000   0.000   0.000   0.000   0.000   0.000
  0.000   0.000   0.000   0.000   0.000   0.000   0.000   0.000   0.000   0.000   0.000   0.000   0.000   0.000   0.000   0.000
  0.000   0.000   0.000   0.000   0.000   0.000   0.000   0.000   0.000   0.000   0.000   0.000   0.000   0.000   0.000   0.000
  0.000   0.000   0.000   0.000   0.000   0.000   0.000   0.000   0.000   0.000   0.000   0.000   0.000   0.000   0.000   0.000
  0.000   0.000   0.000   0.000   0.000   0.000   0.000   0.000   0.000   0.000   0.000   0.000   0.000   0.000   0.000   0.000
  0.000   0.000   0.000   0.000   0.000   0.000   0.000   0.000   0.000   0.000   0.000   0.000   0.000   0.000   0.000   0.000
  0.000   0.000   0.000   0.000   0.000   0.000   0.000   0.000   0.000   0.000   0.000   0.000   0.000   0.000   0.000   0.000
  0.000   0.000   0.000   0.000   0.000   0.000   0.000   0.000   0.000   0.000   0.000   0.000   0.000   0.000   0.000   0.000


------------------------ aborting loop because EDIFF is reached ----------------------------------------





 total charge

# of ion       s       p       d       tot
------------------------------------------
    1        0.416   0.203   9.177   9.796
    2        0.416   0.203   9.177   9.796
    3        0.416   0.203   9.177   9.796
    4        0.416   0.203   9.178   9.796
    5        0.419   0.201   9.178   9.798
    6        0.416   0.203   9.178   9.796
    7        0.417   0.203   9.177   9.797
    8        0.417   0.203   9.177   9.797
    9        0.414   0.204   9.177   9.795
   10        0.405   0.271   9.165   9.841
   11        0.405   0.271   9.165   9.842
   12        0.405   0.271   9.165   9.841
   13        0.405   0.271   9.166   9.842
   14        0.405   0.271   9.166   9.842
   15        0.404   0.270   9.165   9.840
   16        0.405   0.271   9.165   9.841
   17        0.404   0.270   9.165   9.840
   18        0.404   0.270   9.165   9.840
   19        0.400   0.272   9.165   9.837
   20        0.409   0.285   9.164   9.857
   21        0.409   0.285   9.164   9.857
   22        0.402   0.272   9.168   9.841
   23        0.410   0.283   9.164   9.856
   24        0.402   0.272   9.168   9.841
   25        0.403   0.269   9.166   9.839
   26        0.403   0.269   9.166   9.839
   27        0.402   0.271   9.169   9.842
   28        0.415   0.195   9.182   9.793
   29        0.406   0.205   9.182   9.793
   30        0.406   0.205   9.182   9.793
   31        0.393   0.204   9.186   9.783
   32        0.393   0.204   9.186   9.783
   33        0.407   0.205   9.182   9.794
   34        0.407   0.205   9.182   9.794
   35        0.411   0.198   9.182   9.791
   36        0.650   0.346   8.196   9.192
   37        0.890   1.695   0.000   2.585
   38        1.600   3.501   0.000   5.101
   39        1.600   3.501   0.000   5.101
--------------------------------------------------
tot         19.010  17.400 329.235 365.645
 
    CHARGE:  cpu time    1.2625: real time    1.2628
    FORLOC:  cpu time    0.0124: real time    0.0124
    FORNL :  cpu time    5.4190: real time    5.4195
    STRESS:  cpu time   16.2954: real time   16.2964
    FORCOR:  cpu time    0.0515: real time    0.0516
    FORHAR:  cpu time    0.0197: real time    0.0197
    OFIELD:  cpu time    0.0003: real time    0.0003

  FORCE on cell =-STRESS in cart. coord.  units (eV):
  Direction    XX          YY          ZZ          XY          YZ          ZX
  --------------------------------------------------------------------------------------
  Alpha Z   723.14917   723.14917   723.14917
  Ewald  153956.54113153218.25902************     0.39920    -0.11569    -0.06582
  Hartree164022.89435163647.74318************     0.19677     0.00582    -0.03138
  E(xc)   -2147.79863 -2149.67054 -2154.17485     0.00092     0.00474    -0.00015
  Local  ************************328270.39406    -0.56383     0.11334     0.09225
  n-local  -373.46444  -368.46737  -375.03711    -0.00204     0.01160     0.00060
  augment  3284.08895  3286.06409  3294.15384    -0.00136    -0.00747    -0.00004
  Kinetic  5207.37260  5255.94003  5273.39264    -0.02582    -0.04332     0.00379
  Fock        0.00000     0.00000     0.00000     0.00000     0.00000     0.00000
  -------------------------------------------------------------------------------------
  Total      -7.24760    -6.88728    -1.01694     0.00384    -0.03098    -0.00076
  in kB      -7.12306    -6.76893    -0.99946     0.00377    -0.03045    -0.00075
  external pressure =       -4.96 kB  Pullay stress =        0.00 kB


 VOLUME and BASIS-vectors are now :
 -----------------------------------------------------------------------------
  energy-cutoff  :      500.00
  volume of cell :     1630.19
      direct lattice vectors                 reciprocal lattice vectors
     8.791366577  0.000000000  0.000000000     0.113747958 -0.065672414  0.000000000
     4.395683289  7.613546790  0.000000000     0.000000000  0.131344829  0.000000000
     0.000000000  0.000000000 24.355372092     0.000000000  0.000000000  0.041058703

  length of vectors
     8.791366577  8.791366577 24.355372092     0.131344829  0.131344829  0.041058703


 FORCES acting on ions
    electron-ion (+dipol)            ewald-force                    non-local-force                 convergence-correction
 -----------------------------------------------------------------------------------------------
   0.136E-02 0.329E-01 0.273E+04   -.112E-03 -.376E-01 -.272E+04   -.167E-04 -.317E-01 -.191E+01   -.124E-02 0.322E-01 -.315E+00
   0.441E+00 0.380E+00 0.273E+04   -.485E+00 -.494E+00 -.272E+04   0.926E-02 0.544E-01 -.175E+01   0.357E-01 0.524E-01 -.280E+00
   -.442E+00 0.371E+00 0.273E+04   0.485E+00 -.494E+00 -.272E+04   -.901E-02 0.541E-01 -.175E+01   -.356E-01 0.625E-01 -.277E+00
   0.461E+00 0.204E+00 0.273E+04   -.638E+00 -.193E+00 -.272E+04   0.101E+00 -.964E-02 -.178E+01   0.714E-01 0.127E-03 -.321E+00
   -.139E-01 -.123E-01 0.273E+04   0.490E-04 -.549E-03 -.273E+04   -.218E-02 0.233E-01 -.166E+01   0.162E-01 -.135E-01 -.247E+00
   -.452E+00 0.200E+00 0.273E+04   0.638E+00 -.193E+00 -.272E+04   -.101E+00 -.973E-02 -.178E+01   -.803E-01 0.437E-02 -.316E+00
   0.112E+00 -.555E+00 0.273E+04   -.152E+00 0.687E+00 -.272E+04   0.493E-01 -.564E-01 -.171E+01   -.133E-01 -.689E-01 -.257E+00
   -.120E+00 -.549E+00 0.273E+04   0.152E+00 0.687E+00 -.272E+04   -.495E-01 -.564E-01 -.171E+01   0.216E-01 -.750E-01 -.255E+00
   0.131E-01 -.523E-01 0.273E+04   0.144E-03 0.381E-01 -.272E+04   0.241E-02 0.168E-01 -.184E+01   -.159E-01 -.807E-04 -.276E+00
   0.580E+01 0.371E+01 0.990E+03   -.579E+01 -.364E+01 -.990E+03   -.123E+00 -.830E-01 -.644E+00   0.896E-01 0.958E-02 0.476E-01
   -.125E-01 0.434E+01 0.997E+03   -.533E-05 -.430E+01 -.996E+03   -.232E-02 -.127E-01 -.634E+00   0.150E-01 -.285E-01 0.419E-01
   -.579E+01 0.371E+01 0.990E+03   0.579E+01 -.364E+01 -.990E+03   0.123E+00 -.831E-01 -.644E+00   -.976E-01 0.163E-01 0.469E-01
   0.343E+01 -.218E+01 0.997E+03   -.345E+01 0.220E+01 -.996E+03   0.592E-02 -.547E-03 -.590E+00   0.495E-02 -.583E-02 0.709E-01
   -.345E+01 -.218E+01 0.997E+03   0.345E+01 0.220E+01 -.996E+03   -.101E-01 -.422E-03 -.590E+00   0.183E-01 -.933E-02 0.676E-01
   0.933E-02 0.805E+00 0.991E+03   0.338E-03 -.972E+00 -.990E+03   0.223E-03 0.414E-01 -.739E+00   -.987E-02 0.978E-01 0.240E-01
   -.130E-02 -.685E+01 0.990E+03   -.364E-03 0.678E+01 -.989E+03   -.382E-04 0.144E+00 -.596E+00   0.172E-02 -.518E-01 0.335E-01
   0.862E+00 -.661E+00 0.990E+03   -.101E+01 0.694E+00 -.990E+03   0.376E-01 -.904E-02 -.627E+00   0.846E-01 -.175E-01 0.597E-02
   -.860E+00 -.671E+00 0.990E+03   0.101E+01 0.694E+00 -.990E+03   -.377E-01 -.937E-02 -.627E+00   -.863E-01 -.718E-02 0.829E-02
   0.343E-02 0.662E+01 -.783E+03   0.122E-02 -.660E+01 0.782E+03   0.927E-04 -.151E-01 0.677E+00   -.476E-02 -.120E-01 0.265E+00
   0.162E+02 0.110E+02 -.733E+03   -.159E+02 -.109E+02 0.733E+03   -.351E+00 -.163E+00 -.166E+00   0.321E-01 0.398E-01 0.206E+00
   -.162E+02 0.110E+02 -.733E+03   0.159E+02 -.109E+02 0.733E+03   0.351E+00 -.163E+00 -.166E+00   -.285E-01 0.422E-01 0.202E+00
   0.908E+01 -.723E+01 -.769E+03   -.919E+01 0.738E+01 0.769E+03   0.124E+00 -.135E+00 0.605E+00   0.273E-02 -.208E-01 0.197E+00
   -.552E-03 -.211E+02 -.735E+03   -.367E-02 0.208E+02 0.735E+03   -.537E-04 0.368E+00 -.798E-01   0.433E-02 -.721E-01 0.207E+00
   -.908E+01 -.723E+01 -.769E+03   0.920E+01 0.738E+01 0.769E+03   -.124E+00 -.135E+00 0.605E+00   -.629E-02 -.219E-01 0.199E+00
   -.467E+01 -.192E+01 -.786E+03   0.460E+01 0.187E+01 0.786E+03   0.494E-01 0.197E-01 0.627E+00   0.152E-01 0.307E-01 0.231E+00
   0.467E+01 -.192E+01 -.786E+03   -.460E+01 0.187E+01 0.786E+03   -.493E-01 0.198E-01 0.627E+00   -.143E-01 0.245E-01 0.232E+00
   -.194E-03 0.108E+02 -.772E+03   0.186E-02 -.110E+02 0.771E+03   0.102E-03 0.177E+00 0.658E+00   -.179E-02 0.561E-02 0.160E+00
   0.930E-02 0.962E+01 -.256E+04   -.574E-02 -.961E+01 0.256E+04   0.102E-03 -.581E-01 0.211E+01   -.365E-02 0.292E-01 0.285E+00
   0.360E+02 0.816E+02 -.253E+04   -.357E+02 -.817E+02 0.252E+04   -.362E+00 -.150E+00 0.220E+01   0.695E-02 0.692E-01 0.259E+00
   -.360E+02 0.816E+02 -.253E+04   0.357E+02 -.817E+02 0.252E+04   0.358E+00 -.151E+00 0.220E+01   0.914E-02 0.763E-01 0.259E+00
   0.934E+02 0.261E-01 -.250E+04   -.937E+02 0.453E-01 0.250E+04   0.127E+00 -.746E-01 0.275E+01   0.763E-01 0.821E-02 0.241E+00
   -.934E+02 0.536E-01 -.250E+04   0.937E+02 0.129E-01 0.250E+04   -.132E+00 -.742E-01 0.275E+01   -.636E-01 0.125E-01 0.239E+00
   0.362E+02 -.817E+02 -.253E+04   -.361E+02 0.817E+02 0.252E+04   -.197E+00 0.212E+00 0.220E+01   0.148E-01 -.745E-01 0.242E+00
   -.362E+02 -.817E+02 -.253E+04   0.360E+02 0.817E+02 0.252E+04   0.192E+00 0.211E+00 0.220E+01   0.941E-02 -.773E-01 0.241E+00
   0.231E-03 -.966E+01 -.256E+04   0.160E-01 0.966E+01 0.255E+04   0.247E-02 0.525E-01 0.210E+01   -.188E-01 -.363E-01 0.270E+00
   0.159E-01 0.288E+00 -.202E+04   -.210E-01 -.303E+00 0.202E+04   0.323E-03 -.153E-01 -.224E+00   0.497E-02 0.142E-01 0.150E+00
   -.253E-02 -.931E+00 -.100E+04   0.229E-02 0.952E+00 0.998E+03   0.705E-03 -.277E-01 0.321E+01   0.166E-02 -.332E-02 0.480E-02
   0.243E+03 0.458E+00 -.167E+04   -.294E+03 -.598E+00 0.168E+04   0.506E+02 0.147E+00 -.181E+02   -.399E-01 -.399E-02 -.111E-01
   -.243E+03 0.179E+00 -.167E+04   0.294E+03 -.259E+00 0.168E+04   -.506E+02 0.925E-01 -.181E+02   0.327E-01 -.654E-02 -.900E-02
 -----------------------------------------------------------------------------------------------
   -.337E-01 -.127E+00 0.310E+02   -.568E-13 0.351E-13 0.109E-10   -.802E-02 0.108E+00 -.329E+02   0.478E-01 0.211E-01 0.187E+01
 
 
 POSITION                                       TOTAL-FORCE (eV/Angst)
 -----------------------------------------------------------------------------------
      0.00000      0.00000      5.28219        -0.000168     -0.004343      0.038436
      2.93046      0.00000      5.28219         0.001026     -0.006732      0.035628
      5.86091      0.00000      5.28219        -0.001353     -0.006778      0.035604
      1.46523      2.53785      5.28219        -0.004192      0.001508      0.031725
      4.39568      2.53785      5.28219         0.000010     -0.003135      0.020482
      7.32614      2.53785      5.28219         0.003932      0.001467      0.031736
      2.93046      5.07570      5.28219        -0.004371      0.006205      0.030199
      5.86091      5.07570      5.28219         0.004009      0.006226      0.030225
      8.79137      5.07570      5.28219        -0.000343      0.002441      0.030119
      1.46523      0.84595      7.67490        -0.023136     -0.004056     -0.011877
      4.39568      0.84595      7.67490         0.000063     -0.003088     -0.071246
      7.32614      0.84595      7.67490         0.022845     -0.004046     -0.011902
      2.93046      3.38380      7.67490        -0.007814      0.006841     -0.069381
      5.86091      3.38380      7.67490         0.007951      0.006871     -0.069392
      8.79137      3.38380      7.67490        -0.000138     -0.027874     -0.042008
      4.39568      5.92165      7.67490        -0.000131      0.018790     -0.010046
      7.32614      5.92165      7.67490        -0.022575      0.006685     -0.033352
     10.25659      5.92165      7.67490         0.022253      0.006666     -0.033353
      8.79137      1.70009     10.06101        -0.000173     -0.000772      0.062917
      2.92042      1.68610     10.02751        -0.013027     -0.014033     -0.078525
      5.87095      1.68610     10.02751         0.012705     -0.014002     -0.078509
     10.25445      4.23098     10.04520         0.007111     -0.002387      0.017025
      4.39568      4.24134     10.02751        -0.000107      0.026896     -0.076966
      7.32828      4.23098     10.04520        -0.007416     -0.002394      0.017017
     11.71473      6.76350     10.06101        -0.005885      0.002913      0.023704
      5.86800      6.76350     10.06101         0.005554      0.002906      0.023771
      8.79137      6.76512     10.04520        -0.000172      0.016605      0.007427
      0.00000      0.00000     12.42233        -0.000143     -0.014862     -0.018464
      2.94927      0.03214     12.43461        -0.030365     -0.137624     -0.069789
      5.84210      0.03214     12.43461         0.030439     -0.137616     -0.069803
      1.50247      2.53807     12.43461        -0.112518      0.004900      0.014417
      7.28890      2.53807     12.43461         0.112634      0.004735      0.014446
      2.94888      5.04334     12.43461        -0.033997      0.130817     -0.068410
      5.84248      5.04334     12.43461         0.033971      0.130953     -0.068446
      8.79137      5.07570     12.41249        -0.000252      0.016989     -0.021121
      4.39568      2.53785     12.25656        -0.000040     -0.016393      0.475314
      4.39584      2.54193     14.46596         0.001966     -0.009890     -0.041566
      3.23292      2.53877     14.85093        -0.007742      0.003617      0.003748
      5.55886      2.54009     14.85074         0.009588      0.004996      0.000216
 -----------------------------------------------------------------------------------
    total drift:                                0.006099      0.003070     -0.023558


--------------------------------------------------------------------------------------------------------



  FREE ENERGIE OF THE ION-ELECTRON SYSTEM (eV)
  ---------------------------------------------------
  free  energy   TOTEN  =      -117.63266157 eV

  energy  without entropy=     -117.63266157  energy(sigma->0) =     -117.63266157
 


--------------------------------------------------------------------------------------------------------


    POTLOK:  cpu time    0.0486: real time    0.0486


--------------------------------------------------------------------------------------------------------


 stress matrix after NEB project (eV)
     -7.24760      0.00384     -0.00076
      0.00384     -6.88728     -0.03098
     -0.00076     -0.03098     -1.01694
  FORCES: max atom, RMS     0.042771    0.007221
  FORCE total and by dimension    0.045093    0.041566
  Stress total and by dimension   10.049797    7.247600
     LOOP+:  cpu time  261.8626: real time  261.8873
 -----------------------------------------------------------------------------
|                                                                             |
|           W    W    AA    RRRRR   N    N  II  N    N   GGGG   !!!           |
|           W    W   A  A   R    R  NN   N  II  NN   N  G    G  !!!           |
|           W    W  A    A  R    R  N N  N  II  N N  N  G       !!!           |
|           W WW W  AAAAAA  RRRRR   N  N N  II  N  N N  G  GGG   !            |
|           WW  WW  A    A  R   R   N   NN  II  N   NN  G    G                |
|           W    W  A    A  R    R  N    N  II  N    N   GGGG   !!!           |
|                                                                             |
|     Tetrahedron method does not include variations of the Fermi             |
|     occupations, so forces and stress will be inaccurate. We suggest        |
|     using a different smearing scheme ISMEAR = 1 or 2 for metals in         |
|     relaxations.                                                            |
|                                                                             |
 -----------------------------------------------------------------------------

    4ORBIT:  cpu time    0.0000: real time    0.0000



 total charge

# of ion       s       p       d       tot
------------------------------------------
    1        0.416   0.203   9.177   9.796
    2        0.416   0.203   9.177   9.796
    3        0.416   0.203   9.177   9.796
    4        0.416   0.203   9.178   9.796
    5        0.419   0.201   9.178   9.798
    6        0.416   0.203   9.178   9.796
    7        0.417   0.203   9.177   9.797
    8        0.417   0.203   9.177   9.797
    9        0.414   0.204   9.177   9.795
   10        0.405   0.271   9.165   9.841
   11        0.405   0.271   9.165   9.842
   12        0.405   0.271   9.165   9.841
   13        0.405   0.271   9.166   9.842
   14        0.405   0.271   9.166   9.842
   15        0.404   0.270   9.165   9.840
   16        0.405   0.271   9.165   9.841
   17        0.404   0.270   9.165   9.840
   18        0.404   0.270   9.165   9.840
   19        0.400   0.272   9.165   9.837
   20        0.409   0.285   9.164   9.857
   21        0.409   0.285   9.164   9.857
   22        0.402   0.272   9.168   9.841
   23        0.410   0.283   9.164   9.856
   24        0.402   0.272   9.168   9.841
   25        0.403   0.269   9.166   9.839
   26        0.403   0.269   9.166   9.839
   27        0.402   0.271   9.169   9.842
   28        0.415   0.195   9.182   9.793
   29        0.406   0.205   9.182   9.793
   30        0.406   0.205   9.182   9.793
   31        0.393   0.204   9.186   9.783
   32        0.393   0.204   9.186   9.783
   33        0.407   0.205   9.182   9.794
   34        0.407   0.205   9.182   9.794
   35        0.411   0.198   9.182   9.791
   36        0.650   0.346   8.196   9.192
   37        0.890   1.695   0.000   2.585
   38        1.600   3.501   0.000   5.101
   39        1.600   3.501   0.000   5.101
--------------------------------------------------
tot         19.010  17.400 329.235 365.645
 
 BZINTS: Fermi energy:    0.253965;  411.000000 electrons
         Band energy:-0.164049E+04;  BLOECHL correction:   -0.080592

 total amount of memory used by VASP MPI-rank0   277780. kBytes
=======================================================================

   base      :      30000. kBytes
   nonlr-proj:      15463. kBytes
   fftplans  :       4808. kBytes
   grid      :      20723. kBytes
   one-center:        606. kBytes
   wavefun   :     206180. kBytes
 
  
  
 General timing and accounting informations for this job:
 ========================================================
  
                  Total CPU time used (sec):      285.055
                            User time (sec):      275.629
                          System time (sec):        9.427
                         Elapsed time (sec):      285.513
  
                   Maximum memory used (kb):      580452.
                   Average memory used (kb):          N/A
  
                          Minor page faults:       118733
                          Major page faults:            0
                 Voluntary context switches:         6775
