PROCAR new format
# of k-points:   10         # of bands:  252         # of ions:   37

 k-point     1 :    0.00000000 0.00000000 0.00000000     weight = 0.01562500

band     1 # energy   -6.28000781 # occ.  2.00000000
 
ion      s      p      d    tot
    1  0.006  0.001  0.000  0.007
    2  0.006  0.001  0.000  0.007
    3  0.006  0.001  0.000  0.007
    4  0.006  0.001  0.000  0.007
    5  0.006  0.001  0.000  0.006
    6  0.006  0.001  0.000  0.007
    7  0.006  0.001  0.000  0.007
    8  0.006  0.001  0.000  0.007
    9  0.006  0.001  0.000  0.007
   10  0.024  0.000  0.000  0.024
   11  0.023  0.000  0.000  0.024
   12  0.024  0.000  0.000  0.024
   13  0.023  0.000  0.000  0.024
   14  0.023  0.000  0.000  0.024
   15  0.023  0.000  0.000  0.024
   16  0.024  0.000  0.000  0.024
   17  0.023  0.000  0.000  0.024
   18  0.023  0.000  0.000  0.024
   19  0.023  0.000  0.000  0.024
   20  0.023  0.000  0.000  0.024
   21  0.023  0.000  0.000  0.024
   22  0.023  0.000  0.000  0.023
   23  0.023  0.000  0.000  0.024
   24  0.023  0.000  0.000  0.023
   25  0.023  0.000  0.000  0.024
   26  0.023  0.000  0.000  0.024
   27  0.023  0.000  0.000  0.023
   28  0.006  0.001  0.000  0.006
   29  0.005  0.001  0.000  0.006
   30  0.005  0.001  0.000  0.006
   31  0.005  0.001  0.000  0.006
   32  0.005  0.001  0.000  0.006
   33  0.005  0.001  0.000  0.006
   34  0.005  0.001  0.000  0.006
   35  0.006  0.001  0.000  0.006
   36  0.008  0.000  0.001  0.009
   37  0.001  0.000  0.000  0.001
tot    0.526  0.013  0.007  0.545
 
band     2 # energy   -5.40997857 # occ.  2.00000000
 
ion      s      p      d    tot
    1  0.008  0.000  0.000  0.009
    2  0.008  0.000  0.000  0.009
    3  0.008  0.000  0.000  0.009
    4  0.008  0.000  0.000  0.009
    5  0.008  0.000  0.000  0.009
    6  0.008  0.000  0.000  0.009
    7  0.008  0.000  0.000  0.009
    8  0.008  0.000  0.000  0.009
    9  0.008  0.000  0.000  0.009
   10  0.011  0.001  0.016  0.027
   11  0.011  0.001  0.014  0.026
   12  0.011  0.001  0.015  0.027
   13  0.011  0.001  0.014  0.026
   14  0.011  0.001  0.014  0.026
   15  0.011  0.001  0.014  0.027
   16  0.011  0.001  0.015  0.027
   17  0.011  0.001  0.014  0.027
   18  0.011  0.001  0.014  0.027
   19  0.012  0.001  0.016  0.029
   20  0.012  0.001  0.017  0.030
   21  0.012  0.001  0.017  0.030
   22  0.011  0.001  0.015  0.027
   23  0.012  0.001  0.017  0.030
   24  0.011  0.001  0.015  0.027
   25  0.012  0.001  0.016  0.029
   26  0.012  0.001  0.016  0.029
   27  0.011  0.001  0.015  0.027
   28  0.007  0.000  0.000  0.008
   29  0.007  0.000  0.000  0.007
   30  0.007  0.000  0.000  0.007
   31  0.007  0.000  0.000  0.007
   32  0.007  0.000  0.000  0.007
   33  0.007  0.000  0.000  0.007
   34  0.007  0.000  0.000  0.007
   35  0.007  0.000  0.000  0.007
   36  0.011  0.000  0.002  0.013
   37  0.002  0.000  0.000  0.002
tot    0.347  0.024  0.282  0.653
 
band     3 # energy   -5.11894312 # occ.  2.00000000
 
ion      s      p      d    tot
    1  0.015  0.000  0.025  0.039
    2  0.015  0.000  0.024  0.039
    3  0.015  0.000  0.024  0.039
    4  0.015  0.000  0.024  0.039
    5  0.014  0.000  0.023  0.037
    6  0.015  0.000  0.024  0.039
    7  0.015  0.000  0.024  0.039
    8  0.015  0.000  0.024  0.039
    9  0.015  0.000  0.025  0.040
   10  0.001  0.000  0.021  0.022
   11  0.001  0.000  0.022  0.023
   12  0.001  0.000  0.021  0.022
   13  0.001  0.000  0.022  0.023
   14  0.001  0.000  0.022  0.023
   15  0.000  0.000  0.023  0.024
   16  0.001  0.000  0.021  0.022
   17  0.000  0.000  0.023  0.024
   18  0.000  0.000  0.023  0.024
   19  0.000  0.000  0.010  0.011
   20  0.000  0.000  0.009  0.009
   21  0.000  0.000  0.009  0.009
   22  0.000  0.000  0.012  0.013
   23  0.000  0.000  0.009  0.009
   24  0.000  0.000  0.012  0.013
   25  0.000  0.000  0.010  0.011
   26  0.000  0.000  0.010  0.011
   27  0.000  0.000  0.012  0.013
   28  0.006  0.000  0.009  0.015
   29  0.006  0.000  0.007  0.013
   30  0.006  0.000  0.007  0.013
   31  0.006  0.000  0.007  0.013
   32  0.006  0.000  0.007  0.013
   33  0.006  0.000  0.007  0.013
   34  0.006  0.000  0.007  0.013
   35  0.006  0.000  0.009  0.015
   36  0.007  0.000  0.000  0.007
   37  0.001  0.000  0.000  0.001
tot    0.193  0.005  0.568  0.766
 
band     4 # energy   -5.01352921 # occ.  2.00000000
 
ion      s      p      d    tot
    1  0.007  0.001  0.003  0.010
    2  0.000  0.000  0.005  0.006
    3  0.000  0.000  0.005  0.006
    4  0.000  0.000  0.005  0.006
    5  0.000  0.000  0.001  0.001
    6  0.000  0.000  0.005  0.006
    7  0.000  0.000  0.005  0.006
    8  0.000  0.000  0.005  0.006
    9  0.002  0.001  0.003  0.005
   10  0.005  0.000  0.050  0.056
   11  0.001  0.001  0.021  0.022
   12  0.005  0.000  0.050  0.056
   13  0.001  0.001  0.021  0.022
   14  0.001  0.001  0.021  0.022
   15  0.012  0.001  0.009  0.021
   16  0.005  0.000  0.050  0.056
   17  0.012  0.001  0.009  0.021
   18  0.012  0.001  0.009  0.021
   19  0.000  0.001  0.041  0.041
   20  0.008  0.000  0.060  0.068
   21  0.008  0.000  0.060  0.068
   22  0.014  0.001  0.004  0.019
   23  0.008  0.000  0.060  0.068
   24  0.014  0.001  0.004  0.019
   25  0.000  0.001  0.041  0.041
   26  0.000  0.001  0.041  0.041
   27  0.014  0.001  0.004  0.019
   28  0.001  0.000  0.003  0.004
   29  0.000  0.000  0.004  0.005
   30  0.000  0.000  0.004  0.005
   31  0.000  0.000  0.004  0.005
   32  0.000  0.000  0.004  0.005
   33  0.000  0.000  0.004  0.005
   34  0.000  0.000  0.004  0.005
   35  0.002  0.001  0.002  0.005
   36  0.013  0.000  0.016  0.029
   37  0.005  0.000  0.000  0.005
tot    0.148  0.016  0.639  0.803
 
band     5 # energy   -4.99577495 # occ.  2.00000000
 
ion      s      p      d    tot
    1  0.000  0.000  0.001  0.001
    2  0.001  0.000  0.004  0.006
    3  0.002  0.001  0.005  0.007
    4  0.001  0.000  0.004  0.006
    5  0.000  0.000  0.004  0.005
    6  0.000  0.000  0.003  0.003
    7  0.002  0.001  0.004  0.007
    8  0.000  0.000  0.003  0.003
    9  0.000  0.000  0.010  0.010
   10  0.003  0.000  0.033  0.036
   11  0.003  0.000  0.056  0.059
   12  0.001  0.001  0.020  0.022
   13  0.003  0.000  0.054  0.057
   14  0.011  0.001  0.006  0.018
   15  0.006  0.001  0.038  0.045
   16  0.001  0.001  0.019  0.021
   17  0.007  0.001  0.037  0.045
   18  0.025  0.001  0.018  0.044
   19  0.004  0.000  0.065  0.069
   20  0.000  0.000  0.029  0.029
   21  0.000  0.001  0.025  0.026
   22  0.006  0.001  0.030  0.037
   23  0.000  0.001  0.025  0.026
   24  0.023  0.001  0.025  0.049
   25  0.017  0.001  0.004  0.022
   26  0.005  0.000  0.062  0.067
   27  0.005  0.001  0.030  0.037
   28  0.000  0.000  0.007  0.007
   29  0.001  0.000  0.004  0.004
   30  0.000  0.000  0.002  0.003
   31  0.001  0.000  0.004  0.005
   32  0.002  0.001  0.005  0.007
   33  0.000  0.000  0.002  0.003
   34  0.002  0.001  0.005  0.007
   35  0.000  0.000  0.007  0.008
   36  0.000  0.000  0.000  0.000
   37  0.000  0.000  0.000  0.000
tot    0.131  0.017  0.652  0.800
 
band     6 # energy   -4.99576452 # occ.  2.00000000
 
ion      s      p      d    tot
    1  0.000  0.000  0.001  0.001
    2  0.001  0.000  0.003  0.004
    3  0.000  0.000  0.003  0.003
    4  0.001  0.000  0.003  0.004
    5  0.000  0.000  0.004  0.005
    6  0.002  0.001  0.005  0.007
    7  0.000  0.000  0.003  0.003
    8  0.002  0.001  0.005  0.007
    9  0.000  0.000  0.010  0.010
   10  0.000  0.001  0.015  0.017
   11  0.008  0.001  0.021  0.030
   12  0.002  0.000  0.028  0.031
   13  0.008  0.001  0.024  0.032
   14  0.000  0.000  0.071  0.071
   15  0.020  0.001  0.024  0.045
   16  0.002  0.000  0.029  0.032
   17  0.019  0.001  0.025  0.045
   18  0.000  0.001  0.045  0.046
   19  0.013  0.001  0.023  0.036
   20  0.000  0.001  0.024  0.026
   21  0.000  0.000  0.028  0.028
   22  0.017  0.001  0.027  0.044
   23  0.000  0.000  0.028  0.028
   24  0.000  0.001  0.032  0.033
   25  0.000  0.000  0.084  0.084
   26  0.012  0.001  0.025  0.038
   27  0.018  0.001  0.026  0.045
   28  0.000  0.000  0.007  0.007
   29  0.001  0.000  0.003  0.005
   30  0.002  0.000  0.005  0.007
   31  0.001  0.000  0.003  0.005
   32  0.000  0.000  0.002  0.002
   33  0.002  0.000  0.005  0.007
   34  0.000  0.000  0.002  0.002
   35  0.000  0.000  0.007  0.008
   36  0.000  0.000  0.000  0.000
   37  0.000  0.000  0.000  0.000
tot    0.131  0.017  0.652  0.800
 
band     7 # energy   -4.99287865 # occ.  2.00000000
 
ion      s      p      d    tot
    1  0.001  0.000  0.000  0.001
    2  0.000  0.000  0.005  0.005
    3  0.000  0.000  0.005  0.005
    4  0.000  0.000  0.005  0.005
    5  0.005  0.001  0.004  0.010
    6  0.000  0.000  0.005  0.005
    7  0.000  0.000  0.005  0.005
    8  0.000  0.000  0.005  0.005
    9  0.002  0.000  0.004  0.006
   10  0.008  0.001  0.005  0.015
   11  0.012  0.000  0.039  0.052
   12  0.008  0.001  0.005  0.015
   13  0.012  0.000  0.039  0.052
   14  0.012  0.000  0.039  0.052
   15  0.000  0.000  0.052  0.052
   16  0.008  0.001  0.005  0.015
   17  0.000  0.000  0.052  0.052
   18  0.001  0.000  0.051  0.052
   19  0.012  0.001  0.028  0.041
   20  0.005  0.001  0.011  0.017
   21  0.005  0.001  0.011  0.017
   22  0.002  0.000  0.057  0.059
   23  0.005  0.001  0.011  0.018
   24  0.002  0.000  0.057  0.059
   25  0.013  0.001  0.028  0.041
   26  0.012  0.001  0.028  0.041
   27  0.002  0.000  0.057  0.059
   28  0.004  0.001  0.005  0.009
   29  0.000  0.000  0.004  0.004
   30  0.000  0.000  0.004  0.004
   31  0.000  0.000  0.004  0.004
   32  0.000  0.000  0.004  0.004
   33  0.000  0.000  0.004  0.004
   34  0.000  0.000  0.004  0.004
   35  0.003  0.001  0.005  0.008
   36  0.000  0.000  0.000  0.000
   37  0.000  0.000  0.000  0.000
tot    0.133  0.017  0.651  0.801
 
band     8 # energy   -4.99097068 # occ.  2.00000000
 
ion      s      p      d    tot
    1  0.000  0.000  0.009  0.010
    2  0.000  0.000  0.004  0.005
    3  0.001  0.001  0.005  0.007
    4  0.001  0.000  0.004  0.005
    5  0.000  0.000  0.003  0.004
    6  0.000  0.000  0.003  0.003
    7  0.001  0.001  0.006  0.007
    8  0.000  0.000  0.003  0.003
    9  0.000  0.000  0.002  0.002
   10  0.000  0.000  0.082  0.082
   11  0.009  0.001  0.029  0.039
   12  0.020  0.001  0.026  0.047
   13  0.010  0.001  0.030  0.041
   14  0.000  0.002  0.009  0.011
   15  0.002  0.000  0.034  0.036
   16  0.019  0.001  0.029  0.049
   17  0.002  0.000  0.032  0.034
   18  0.000  0.001  0.072  0.073
   19  0.005  0.001  0.028  0.033
   20  0.000  0.001  0.043  0.043
   21  0.016  0.001  0.019  0.035
   22  0.003  0.000  0.025  0.029
   23  0.015  0.001  0.020  0.036
   24  0.000  0.000  0.060  0.060
   25  0.000  0.001  0.018  0.020
   26  0.005  0.001  0.029  0.034
   27  0.003  0.000  0.027  0.030
   28  0.000  0.000  0.003  0.003
   29  0.001  0.000  0.002  0.003
   30  0.000  0.000  0.002  0.002
   31  0.000  0.000  0.002  0.003
   32  0.001  0.000  0.004  0.005
   33  0.000  0.000  0.002  0.002
   34  0.001  0.000  0.004  0.005
   35  0.000  0.000  0.002  0.002
   36  0.000  0.000  0.003  0.003
   37  0.000  0.000  0.000  0.000
tot    0.115  0.016  0.677  0.808
 
band     9 # energy   -4.99096507 # occ.  2.00000000
 
ion      s      p      d    tot
    1  0.000  0.000  0.009  0.010
    2  0.001  0.000  0.004  0.005
    3  0.000  0.000  0.003  0.003
    4  0.001  0.000  0.004  0.005
    5  0.000  0.000  0.003  0.004
    6  0.001  0.000  0.005  0.007
    7  0.000  0.000  0.003  0.003
    8  0.001  0.000  0.006  0.007
    9  0.000  0.000  0.002  0.002
   10  0.026  0.001  0.010  0.037
   11  0.004  0.001  0.017  0.022
   12  0.006  0.000  0.065  0.072
   13  0.003  0.001  0.016  0.020
   14  0.013  0.000  0.037  0.050
   15  0.001  0.001  0.058  0.059
   16  0.007  0.000  0.062  0.070
   17  0.001  0.001  0.060  0.061
   18  0.002  0.000  0.020  0.023
   19  0.002  0.001  0.022  0.025
   20  0.020  0.001  0.012  0.033
   21  0.005  0.001  0.036  0.041
   22  0.001  0.000  0.049  0.051
   23  0.005  0.001  0.034  0.040
   24  0.004  0.000  0.015  0.019
   25  0.006  0.000  0.032  0.039
   26  0.001  0.001  0.021  0.024
   27  0.001  0.000  0.048  0.049
   28  0.000  0.000  0.003  0.003
   29  0.000  0.000  0.003  0.004
   30  0.001  0.000  0.004  0.005
   31  0.000  0.000  0.003  0.004
   32  0.000  0.000  0.002  0.002
   33  0.001  0.000  0.004  0.005
   34  0.000  0.000  0.002  0.002
   35  0.000  0.000  0.002  0.002
   36  0.000  0.000  0.003  0.003
   37  0.000  0.000  0.000  0.000
tot    0.115  0.016  0.677  0.808
 
band    10 # energy   -4.96408032 # occ.  2.00000000
 
ion      s      p      d    tot
    1  0.004  0.000  0.017  0.021
    2  0.001  0.000  0.010  0.011
    3  0.001  0.000  0.010  0.011
    4  0.001  0.000  0.010  0.011
    5  0.001  0.001  0.002  0.003
    6  0.001  0.000  0.010  0.011
    7  0.001  0.000  0.010  0.011
    8  0.001  0.000  0.010  0.011
    9  0.002  0.000  0.002  0.004
   10  0.000  0.000  0.071  0.071
   11  0.005  0.000  0.011  0.016
   12  0.000  0.000  0.071  0.071
   13  0.005  0.000  0.011  0.016
   14  0.005  0.000  0.011  0.016
   15  0.003  0.000  0.032  0.035
   16  0.000  0.000  0.071  0.071
   17  0.003  0.000  0.032  0.035
   18  0.003  0.000  0.032  0.035
   19  0.000  0.000  0.053  0.053
   20  0.000  0.001  0.018  0.019
   21  0.000  0.001  0.018  0.019
   22  0.002  0.000  0.019  0.022
   23  0.000  0.001  0.018  0.019
   24  0.002  0.000  0.019  0.022
   25  0.000  0.000  0.053  0.053
   26  0.000  0.000  0.053  0.053
   27  0.002  0.000  0.019  0.022
   28  0.005  0.000  0.016  0.021
   29  0.001  0.000  0.009  0.010
   30  0.001  0.000  0.009  0.010
   31  0.001  0.000  0.009  0.010
   32  0.001  0.000  0.009  0.010
   33  0.001  0.000  0.009  0.010
   34  0.001  0.000  0.009  0.010
   35  0.000  0.000  0.004  0.004
   36  0.005  0.000  0.004  0.008
   37  0.002  0.000  0.000  0.002
tot    0.067  0.007  0.767  0.841
 
band    11 # energy   -4.95682159 # occ.  2.00000000
 
ion      s      p      d    tot
    1  0.000  0.001  0.008  0.009
    2  0.001  0.000  0.010  0.011
    3  0.001  0.000  0.010  0.011
    4  0.001  0.000  0.010  0.011
    5  0.000  0.000  0.001  0.002
    6  0.001  0.000  0.010  0.011
    7  0.001  0.000  0.010  0.011
    8  0.001  0.000  0.010  0.011
    9  0.007  0.000  0.009  0.017
   10  0.005  0.000  0.012  0.017
   11  0.000  0.000  0.039  0.040
   12  0.005  0.000  0.012  0.017
   13  0.000  0.000  0.039  0.040
   14  0.000  0.000  0.039  0.040
   15  0.000  0.000  0.043  0.043
   16  0.005  0.000  0.012  0.017
   17  0.000  0.000  0.043  0.043
   18  0.000  0.000  0.043  0.043
   19  0.002  0.001  0.008  0.011
   20  0.002  0.000  0.026  0.028
   21  0.002  0.000  0.026  0.028
   22  0.002  0.000  0.066  0.068
   23  0.002  0.000  0.026  0.028
   24  0.002  0.000  0.067  0.068
   25  0.002  0.001  0.008  0.011
   26  0.002  0.001  0.008  0.011
   27  0.002  0.000  0.066  0.068
   28  0.007  0.001  0.000  0.008
   29  0.002  0.000  0.012  0.014
   30  0.002  0.000  0.012  0.014
   31  0.002  0.000  0.012  0.014
   32  0.002  0.000  0.012  0.014
   33  0.002  0.000  0.012  0.014
   34  0.002  0.000  0.012  0.014
   35  0.004  0.000  0.025  0.029
   36  0.000  0.000  0.001  0.001
   37  0.000  0.000  0.000  0.000
tot    0.071  0.007  0.757  0.835
 
band    12 # energy   -4.95214554 # occ.  2.00000000
 
ion      s      p      d    tot
    1  0.000  0.000  0.017  0.017
    2  0.001  0.000  0.008  0.010
    3  0.000  0.000  0.010  0.010
    4  0.003  0.000  0.006  0.010
    5  0.000  0.000  0.005  0.005
    6  0.001  0.000  0.009  0.010
    7  0.004  0.001  0.005  0.010
    8  0.002  0.001  0.007  0.010
    9  0.000  0.000  0.012  0.012
   10  0.000  0.000  0.028  0.028
   11  0.001  0.000  0.043  0.044
   12  0.000  0.000  0.041  0.041
   13  0.006  0.000  0.017  0.023
   14  0.003  0.000  0.035  0.037
   15  0.001  0.000  0.052  0.053
   16  0.000  0.000  0.022  0.022
   17  0.008  0.000  0.014  0.022
   18  0.003  0.000  0.041  0.044
   19  0.001  0.000  0.061  0.063
   20  0.003  0.000  0.045  0.048
   21  0.008  0.000  0.013  0.021
   22  0.000  0.000  0.043  0.043
   23  0.001  0.000  0.059  0.060
   24  0.000  0.000  0.025  0.025
   25  0.004  0.000  0.048  0.052
   26  0.011  0.000  0.018  0.029
   27  0.000  0.000  0.017  0.018
   28  0.000  0.000  0.011  0.011
   29  0.002  0.001  0.006  0.009
   30  0.003  0.001  0.004  0.007
   31  0.000  0.000  0.008  0.008
   32  0.002  0.000  0.005  0.007
   33  0.000  0.000  0.008  0.009
   34  0.001  0.001  0.008  0.009
   35  0.000  0.000  0.010  0.010
   36  0.000  0.000  0.002  0.002
   37  0.000  0.000  0.000  0.000
tot    0.070  0.009  0.759  0.838
 
band    13 # energy   -4.95214493 # occ.  2.00000000
 
ion      s      p      d    tot
    1  0.000  0.000  0.017  0.017
    2  0.003  0.000  0.007  0.010
    3  0.004  0.001  0.005  0.010
    4  0.000  0.000  0.009  0.010
    5  0.000  0.000  0.005  0.005
    6  0.003  0.001  0.006  0.010
    7  0.000  0.000  0.010  0.010
    8  0.001  0.000  0.008  0.010
    9  0.000  0.000  0.012  0.012
   10  0.000  0.000  0.032  0.033
   11  0.006  0.000  0.020  0.026
   12  0.000  0.000  0.019  0.020
   13  0.000  0.000  0.046  0.046
   14  0.004  0.000  0.028  0.032
   15  0.007  0.000  0.019  0.026
   16  0.000  0.000  0.038  0.038
   17  0.000  0.000  0.057  0.057
   18  0.005  0.000  0.031  0.036
   19  0.010  0.000  0.023  0.033
   20  0.005  0.000  0.033  0.038
   21  0.000  0.000  0.065  0.065
   22  0.000  0.000  0.014  0.014
   23  0.007  0.000  0.019  0.026
   24  0.000  0.000  0.031  0.032
   25  0.007  0.000  0.037  0.044
   26  0.000  0.000  0.067  0.067
   27  0.000  0.000  0.039  0.040
   28  0.000  0.000  0.011  0.011
   29  0.001  0.000  0.007  0.008
   30  0.000  0.000  0.009  0.009
   31  0.002  0.001  0.005  0.008
   32  0.000  0.000  0.008  0.009
   33  0.003  0.001  0.004  0.008
   34  0.002  0.000  0.005  0.007
   35  0.000  0.000  0.010  0.010
   36  0.000  0.000  0.002  0.002
   37  0.000  0.000  0.000  0.000
tot    0.070  0.009  0.759  0.838
 
band    14 # energy   -4.94271728 # occ.  2.00000000
 
ion      s      p      d    tot
    1  0.000  0.000  0.006  0.006
    2  0.002  0.000  0.006  0.009
    3  0.000  0.000  0.010  0.011
    4  0.003  0.000  0.006  0.009
    5  0.000  0.000  0.018  0.018
    6  0.000  0.000  0.010  0.010
    7  0.002  0.000  0.007  0.010
    8  0.001  0.000  0.007  0.009
    9  0.000  0.000  0.009  0.009
   10  0.006  0.000  0.019  0.025
   11  0.004  0.000  0.040  0.044
   12  0.000  0.000  0.078  0.078
   13  0.000  0.000  0.057  0.057
   14  0.005  0.000  0.036  0.041
   15  0.000  0.000  0.033  0.033
   16  0.004  0.000  0.031  0.036
   17  0.000  0.000  0.012  0.012
   18  0.000  0.000  0.039  0.039
   19  0.000  0.000  0.029  0.029
   20  0.004  0.000  0.034  0.039
   21  0.000  0.000  0.043  0.043
   22  0.000  0.000  0.082  0.082
   23  0.004  0.000  0.036  0.040
   24  0.006  0.000  0.019  0.025
   25  0.000  0.000  0.032  0.032
   26  0.000  0.000  0.016  0.017
   27  0.005  0.000  0.032  0.037
   28  0.000  0.000  0.004  0.004
   29  0.001  0.000  0.005  0.006
   30  0.001  0.000  0.003  0.004
   31  0.000  0.000  0.006  0.006
   32  0.002  0.000  0.003  0.004
   33  0.000  0.000  0.006  0.006
   34  0.001  0.000  0.004  0.006
   35  0.000  0.000  0.005  0.005
   36  0.000  0.000  0.004  0.004
   37  0.000  0.000  0.000  0.000
tot    0.051  0.007  0.789  0.847
 
band    15 # energy   -4.94271643 # occ.  2.00000000
 
ion      s      p      d    tot
    1  0.000  0.000  0.006  0.006
    2  0.001  0.000  0.009  0.011
    3  0.002  0.000  0.005  0.008
    4  0.000  0.000  0.010  0.010
    5  0.000  0.000  0.018  0.018
    6  0.003  0.000  0.005  0.009
    7  0.000  0.000  0.009  0.009
    8  0.002  0.000  0.008  0.010
    9  0.000  0.000  0.009  0.009
   10  0.001  0.000  0.066  0.068
   11  0.002  0.000  0.048  0.051
   12  0.007  0.000  0.008  0.015
   13  0.006  0.000  0.032  0.038
   14  0.001  0.000  0.053  0.054
   15  0.000  0.000  0.023  0.023
   16  0.002  0.000  0.054  0.057
   17  0.000  0.000  0.044  0.044
   18  0.000  0.000  0.017  0.017
   19  0.000  0.000  0.023  0.023
   20  0.001  0.000  0.042  0.043
   21  0.005  0.000  0.033  0.038
   22  0.007  0.000  0.007  0.014
   23  0.002  0.000  0.040  0.042
   24  0.001  0.000  0.070  0.071
   25  0.000  0.000  0.020  0.020
   26  0.000  0.000  0.035  0.035
   27  0.002  0.000  0.057  0.059
   28  0.000  0.000  0.004  0.004
   29  0.001  0.000  0.004  0.005
   30  0.000  0.000  0.006  0.007
   31  0.002  0.000  0.003  0.005
   32  0.000  0.000  0.006  0.007
   33  0.002  0.000  0.003  0.005
   34  0.000  0.000  0.004  0.005
   35  0.000  0.000  0.005  0.005
   36  0.000  0.000  0.004  0.004
   37  0.000  0.000  0.000  0.000
tot    0.051  0.007  0.789  0.847
 
band    16 # energy   -4.91754447 # occ.  2.00000000
 
ion      s      p      d    tot
    1  0.003  0.000  0.001  0.004
    2  0.002  0.000  0.012  0.014
    3  0.002  0.000  0.012  0.014
    4  0.002  0.000  0.012  0.014
    5  0.007  0.000  0.015  0.022
    6  0.002  0.000  0.012  0.014
    7  0.002  0.000  0.012  0.014
    8  0.002  0.000  0.012  0.014
    9  0.000  0.000  0.011  0.012
   10  0.000  0.000  0.010  0.011
   11  0.001  0.000  0.029  0.030
   12  0.000  0.000  0.010  0.011
   13  0.001  0.000  0.029  0.030
   14  0.001  0.000  0.029  0.030
   15  0.004  0.000  0.012  0.016
   16  0.000  0.000  0.010  0.011
   17  0.004  0.000  0.012  0.016
   18  0.004  0.000  0.012  0.016
   19  0.003  0.000  0.020  0.023
   20  0.002  0.000  0.037  0.039
   21  0.002  0.000  0.037  0.039
   22  0.000  0.001  0.013  0.014
   23  0.002  0.000  0.037  0.039
   24  0.000  0.001  0.013  0.014
   25  0.003  0.000  0.020  0.023
   26  0.003  0.000  0.020  0.023
   27  0.000  0.001  0.013  0.014
   28  0.006  0.000  0.025  0.031
   29  0.010  0.000  0.021  0.032
   30  0.010  0.000  0.021  0.032
   31  0.010  0.000  0.021  0.032
   32  0.010  0.000  0.021  0.032
   33  0.010  0.000  0.021  0.032
   34  0.010  0.000  0.021  0.032
   35  0.019  0.000  0.013  0.032
   36  0.011  0.000  0.008  0.020
   37  0.000  0.000  0.000  0.000
tot    0.150  0.009  0.633  0.792
 
band    17 # energy   -4.79235139 # occ.  2.00000000
 
ion      s      p      d    tot
    1  0.002  0.001  0.001  0.004
    2  0.000  0.000  0.009  0.009
    3  0.000  0.000  0.009  0.009
    4  0.000  0.000  0.009  0.009
    5  0.001  0.000  0.006  0.007
    6  0.000  0.000  0.009  0.009
    7  0.000  0.000  0.009  0.009
    8  0.000  0.000  0.009  0.009
    9  0.001  0.000  0.010  0.011
   10  0.000  0.000  0.018  0.018
   11  0.001  0.000  0.037  0.038
   12  0.000  0.000  0.017  0.018
   13  0.001  0.000  0.037  0.038
   14  0.001  0.000  0.037  0.038
   15  0.001  0.001  0.060  0.063
   16  0.000  0.000  0.017  0.018
   17  0.001  0.001  0.060  0.063
   18  0.001  0.001  0.060  0.063
   19  0.001  0.000  0.019  0.020
   20  0.000  0.000  0.045  0.046
   21  0.000  0.000  0.045  0.046
   22  0.002  0.001  0.045  0.048
   23  0.000  0.000  0.045  0.046
   24  0.002  0.001  0.045  0.048
   25  0.001  0.000  0.019  0.019
   26  0.001  0.000  0.019  0.020
   27  0.002  0.001  0.045  0.048
   28  0.005  0.001  0.001  0.007
   29  0.000  0.000  0.010  0.010
   30  0.000  0.000  0.010  0.010
   31  0.000  0.000  0.010  0.010
   32  0.000  0.000  0.010  0.010
   33  0.000  0.000  0.010  0.010
   34  0.000  0.000  0.010  0.010
   35  0.000  0.000  0.004  0.004
   36  0.004  0.000  0.010  0.014
   37  0.002  0.000  0.000  0.002
tot    0.032  0.015  0.816  0.863
 
band    18 # energy   -4.78888089 # occ.  2.00000000
 
ion      s      p      d    tot
    1  0.000  0.001  0.019  0.019
    2  0.001  0.001  0.007  0.009
    3  0.000  0.000  0.010  0.011
    4  0.001  0.001  0.007  0.010
    5  0.000  0.000  0.003  0.003
    6  0.001  0.000  0.005  0.006
    7  0.000  0.000  0.010  0.011
    8  0.001  0.000  0.005  0.006
    9  0.000  0.000  0.007  0.007
   10  0.000  0.000  0.056  0.056
   11  0.001  0.001  0.023  0.025
   12  0.002  0.000  0.052  0.054
   13  0.001  0.001  0.025  0.027
   14  0.000  0.000  0.001  0.001
   15  0.000  0.000  0.039  0.039
   16  0.002  0.000  0.052  0.054
   17  0.000  0.000  0.036  0.037
   18  0.000  0.000  0.077  0.077
   19  0.001  0.000  0.039  0.040
   20  0.000  0.000  0.005  0.005
   21  0.001  0.001  0.021  0.022
   22  0.003  0.000  0.046  0.049
   23  0.001  0.001  0.020  0.021
   24  0.000  0.000  0.043  0.043
   25  0.000  0.000  0.074  0.074
   26  0.001  0.000  0.037  0.038
   27  0.003  0.000  0.046  0.049
   28  0.000  0.000  0.008  0.008
   29  0.001  0.000  0.005  0.006
   30  0.000  0.000  0.009  0.009
   31  0.001  0.000  0.005  0.006
   32  0.001  0.001  0.005  0.007
   33  0.000  0.000  0.009  0.009
   34  0.001  0.001  0.005  0.007
   35  0.000  0.001  0.018  0.018
   36  0.000  0.000  0.001  0.001
   37  0.000  0.000  0.000  0.000
tot    0.022  0.015  0.829  0.866
 
band    19 # energy   -4.78886352 # occ.  2.00000000
 
ion      s      p      d    tot
    1  0.000  0.001  0.019  0.019
    2  0.000  0.000  0.008  0.008
    3  0.002  0.001  0.005  0.007
    4  0.000  0.000  0.008  0.008
    5  0.000  0.000  0.003  0.003
    6  0.001  0.001  0.010  0.011
    7  0.002  0.001  0.005  0.007
    8  0.001  0.001  0.010  0.011
    9  0.000  0.000  0.007  0.007
   10  0.003  0.000  0.050  0.053
   11  0.000  0.000  0.010  0.010
   12  0.001  0.000  0.055  0.056
   13  0.000  0.000  0.008  0.009
   14  0.001  0.001  0.032  0.034
   15  0.000  0.000  0.062  0.063
   16  0.001  0.000  0.055  0.055
   17  0.000  0.000  0.065  0.066
   18  0.000  0.000  0.024  0.025
   19  0.000  0.000  0.061  0.061
   20  0.001  0.001  0.026  0.028
   21  0.000  0.000  0.009  0.010
   22  0.001  0.000  0.044  0.045
   23  0.000  0.000  0.010  0.011
   24  0.003  0.000  0.047  0.051
   25  0.001  0.000  0.026  0.027
   26  0.000  0.000  0.063  0.064
   27  0.001  0.000  0.044  0.045
   28  0.000  0.000  0.008  0.008
   29  0.001  0.001  0.008  0.009
   30  0.001  0.001  0.004  0.006
   31  0.001  0.001  0.007  0.009
   32  0.000  0.000  0.007  0.007
   33  0.001  0.001  0.004  0.006
   34  0.000  0.000  0.007  0.008
   35  0.000  0.001  0.018  0.018
   36  0.000  0.000  0.001  0.001
   37  0.000  0.000  0.000  0.000
tot    0.022  0.015  0.829  0.866
 
band    20 # energy   -4.78403815 # occ.  2.00000000
 
ion      s      p      d    tot
    1  0.000  0.000  0.010  0.011
    2  0.000  0.000  0.009  0.009
    3  0.000  0.000  0.009  0.009
    4  0.000  0.000  0.009  0.009
    5  0.002  0.001  0.007  0.011
    6  0.000  0.000  0.009  0.009
    7  0.000  0.000  0.009  0.009
    8  0.000  0.000  0.009  0.009
    9  0.002  0.000  0.001  0.003
   10  0.001  0.001  0.061  0.063
   11  0.000  0.001  0.043  0.044
   12  0.001  0.001  0.061  0.063
   13  0.000  0.001  0.043  0.044
   14  0.000  0.001  0.044  0.044
   15  0.000  0.000  0.017  0.018
   16  0.001  0.001  0.061  0.063
   17  0.000  0.000  0.017  0.018
   18  0.000  0.000  0.017  0.018
   19  0.001  0.001  0.056  0.058
   20  0.002  0.000  0.028  0.029
   21  0.002  0.000  0.028  0.029
   22  0.000  0.000  0.025  0.025
   23  0.002  0.000  0.028  0.029
   24  0.000  0.000  0.025  0.025
   25  0.001  0.001  0.056  0.058
   26  0.001  0.001  0.056  0.058
   27  0.000  0.000  0.025  0.025
   28  0.002  0.000  0.005  0.007
   29  0.000  0.000  0.009  0.009
   30  0.000  0.000  0.009  0.009
   31  0.000  0.000  0.009  0.009
   32  0.000  0.000  0.009  0.009
   33  0.000  0.000  0.009  0.009
   34  0.000  0.000  0.009  0.009
   35  0.002  0.001  0.004  0.007
   36  0.001  0.000  0.004  0.005
   37  0.000  0.000  0.000  0.000
tot    0.024  0.015  0.825  0.864
 
band    21 # energy   -4.77314247 # occ.  2.00000000
 
ion      s      p      d    tot
    1  0.000  0.000  0.001  0.001
    2  0.002  0.001  0.007  0.009
    3  0.000  0.000  0.011  0.011
    4  0.001  0.001  0.007  0.010
    5  0.000  0.001  0.013  0.014
    6  0.001  0.000  0.005  0.007
    7  0.000  0.000  0.011  0.011
    8  0.001  0.000  0.005  0.007
    9  0.000  0.001  0.014  0.015
   10  0.000  0.001  0.022  0.023
   11  0.000  0.000  0.072  0.073
   12  0.000  0.000  0.033  0.034
   13  0.000  0.000  0.074  0.075
   14  0.001  0.000  0.035  0.036
   15  0.001  0.000  0.026  0.027
   16  0.000  0.000  0.033  0.033
   17  0.001  0.000  0.025  0.025
   18  0.003  0.001  0.052  0.056
   19  0.001  0.000  0.019  0.020
   20  0.002  0.000  0.033  0.035
   21  0.001  0.000  0.061  0.061
   22  0.000  0.000  0.037  0.038
   23  0.001  0.000  0.059  0.060
   24  0.000  0.001  0.019  0.020
   25  0.003  0.001  0.045  0.049
   26  0.001  0.000  0.017  0.018
   27  0.000  0.000  0.036  0.037
   28  0.000  0.000  0.012  0.012
   29  0.001  0.000  0.004  0.005
   30  0.000  0.000  0.008  0.009
   31  0.001  0.000  0.005  0.006
   32  0.002  0.001  0.005  0.007
   33  0.000  0.000  0.008  0.009
   34  0.002  0.001  0.005  0.007
   35  0.000  0.000  0.002  0.002
   36  0.000  0.001  0.005  0.006