PROCAR new format
# of k-points:   10         # of bands:  252         # of ions:   37

 k-point     1 :    0.00000000 0.00000000 0.00000000     weight = 0.01562500

band     1 # energy  -17.86354227 # occ.  2.00000000
 
ion      s      p      d    tot
    1  0.000  0.000  0.000  0.000
    2  0.000  0.000  0.000  0.000
    3  0.000  0.000  0.000  0.000
    4  0.000  0.000  0.000  0.000
    5  0.000  0.000  0.000  0.000
    6  0.000  0.000  0.000  0.000
    7  0.000  0.000  0.000  0.000
    8  0.000  0.000  0.000  0.000
    9  0.000  0.000  0.000  0.000
   10  0.000  0.000  0.000  0.000
   11  0.000  0.000  0.000  0.000
   12  0.000  0.000  0.000  0.000
   13  0.000  0.000  0.000  0.000
   14  0.000  0.000  0.000  0.000
   15  0.000  0.000  0.000  0.000
   16  0.000  0.000  0.000  0.000
   17  0.000  0.000  0.000  0.000
   18  0.000  0.000  0.000  0.000
   19  0.000  0.000  0.000  0.000
   20  0.000  0.000  0.000  0.000
   21  0.000  0.000  0.000  0.000
   22  0.000  0.000  0.000  0.000
   23  0.000  0.000  0.000  0.000
   24  0.000  0.000  0.000  0.000
   25  0.000  0.000  0.000  0.000
   26  0.000  0.000  0.000  0.000
   27  0.000  0.000  0.000  0.000
   28  0.000  0.000  0.000  0.000
   29  0.000  0.000  0.000  0.000
   30  0.000  0.000  0.000  0.000
   31  0.000  0.000  0.000  0.000
   32  0.000  0.000  0.000  0.000
   33  0.000  0.000  0.000  0.000
   34  0.000  0.000  0.000  0.000
   35  0.000  0.000  0.000  0.000
   36  0.048  0.065  0.123  0.236
   37  0.771  0.013  0.000  0.785
tot    0.819  0.078  0.124  1.021
 
band     2 # energy   -6.29686491 # occ.  2.00000000
 
ion      s      p      d    tot
    1  0.006  0.001  0.000  0.007
    2  0.006  0.001  0.000  0.006
    3  0.006  0.001  0.000  0.006
    4  0.006  0.001  0.000  0.006
    5  0.006  0.001  0.000  0.006
    6  0.006  0.001  0.000  0.006
    7  0.006  0.001  0.000  0.006
    8  0.006  0.001  0.000  0.006
    9  0.006  0.001  0.000  0.006
   10  0.023  0.000  0.000  0.024
   11  0.023  0.000  0.000  0.024
   12  0.023  0.000  0.000  0.024
   13  0.023  0.000  0.000  0.024
   14  0.023  0.000  0.000  0.024
   15  0.023  0.000  0.000  0.023
   16  0.023  0.000  0.000  0.024
   17  0.023  0.000  0.000  0.023
   18  0.023  0.000  0.000  0.023
   19  0.023  0.000  0.000  0.023
   20  0.025  0.000  0.000  0.026
   21  0.025  0.000  0.000  0.026
   22  0.023  0.000  0.000  0.024
   23  0.025  0.000  0.000  0.026
   24  0.023  0.000  0.000  0.024
   25  0.023  0.000  0.000  0.023
   26  0.023  0.000  0.000  0.023
   27  0.023  0.000  0.000  0.024
   28  0.005  0.001  0.000  0.006
   29  0.005  0.001  0.000  0.006
   30  0.005  0.001  0.000  0.006
   31  0.005  0.001  0.000  0.006
   32  0.005  0.001  0.000  0.006
   33  0.005  0.001  0.000  0.006
   34  0.005  0.001  0.000  0.006
   35  0.005  0.001  0.000  0.006
   36  0.009  0.001  0.000  0.010
   37  0.001  0.001  0.000  0.002
tot    0.526  0.015  0.007  0.548
 
band     3 # energy   -5.42982748 # occ.  2.00000000
 
ion      s      p      d    tot
    1  0.007  0.000  0.000  0.008
    2  0.008  0.000  0.000  0.008
    3  0.008  0.000  0.000  0.008
    4  0.008  0.000  0.000  0.008
    5  0.008  0.000  0.000  0.008
    6  0.008  0.000  0.000  0.008
    7  0.008  0.000  0.000  0.008
    8  0.008  0.000  0.000  0.008
    9  0.008  0.000  0.000  0.009
   10  0.010  0.001  0.017  0.028
   11  0.011  0.001  0.014  0.026
   12  0.010  0.001  0.017  0.028
   13  0.011  0.001  0.014  0.026
   14  0.011  0.001  0.014  0.026
   15  0.012  0.001  0.013  0.026
   16  0.010  0.001  0.017  0.028
   17  0.012  0.001  0.013  0.026
   18  0.012  0.001  0.013  0.026
   19  0.011  0.001  0.018  0.030
   20  0.014  0.001  0.023  0.039
   21  0.014  0.001  0.023  0.039
   22  0.010  0.001  0.016  0.027
   23  0.014  0.001  0.023  0.039
   24  0.010  0.001  0.016  0.027
   25  0.011  0.001  0.018  0.030
   26  0.011  0.001  0.018  0.030
   27  0.010  0.001  0.016  0.027
   28  0.005  0.000  0.000  0.006
   29  0.005  0.000  0.000  0.005
   30  0.005  0.000  0.000  0.005
   31  0.005  0.000  0.000  0.005
   32  0.005  0.000  0.000  0.005
   33  0.005  0.000  0.000  0.005
   34  0.005  0.000  0.000  0.005
   35  0.005  0.000  0.000  0.005
   36  0.011  0.001  0.005  0.017
   37  0.001  0.008  0.000  0.009
tot    0.326  0.032  0.316  0.674
 
band     4 # energy   -5.19598666 # occ.  2.00000000
 
ion      s      p      d    tot
    1  0.009  0.000  0.001  0.010
    2  0.003  0.000  0.004  0.007
    3  0.003  0.000  0.004  0.007
    4  0.003  0.000  0.004  0.007
    5  0.001  0.000  0.003  0.004
    6  0.003  0.000  0.004  0.007
    7  0.003  0.000  0.004  0.007
    8  0.003  0.000  0.004  0.007
    9  0.001  0.000  0.003  0.004
   10  0.002  0.000  0.013  0.016
   11  0.000  0.000  0.002  0.002
   12  0.002  0.000  0.013  0.016
   13  0.000  0.000  0.002  0.002
   14  0.000  0.000  0.002  0.002
   15  0.001  0.001  0.000  0.001
   16  0.002  0.000  0.013  0.016
   17  0.001  0.001  0.000  0.001
   18  0.001  0.001  0.000  0.001
   19  0.000  0.001  0.022  0.023
   20  0.003  0.001  0.079  0.083
   21  0.003  0.001  0.079  0.083
   22  0.007  0.000  0.001  0.009
   23  0.003  0.001  0.079  0.083
   24  0.007  0.000  0.001  0.009
   25  0.000  0.001  0.022  0.023
   26  0.000  0.001  0.022  0.023
   27  0.007  0.000  0.001  0.009
   28  0.007  0.000  0.002  0.009
   29  0.008  0.000  0.007  0.015
   30  0.008  0.000  0.007  0.015
   31  0.008  0.000  0.007  0.015
   32  0.008  0.000  0.007  0.015
   33  0.008  0.000  0.007  0.015
   34  0.008  0.000  0.007  0.015
   35  0.014  0.001  0.002  0.017
   36  0.003  0.000  0.149  0.152
   37  0.006  0.091  0.000  0.097
tot    0.148  0.101  0.576  0.824
 
band     5 # energy   -5.12200059 # occ.  2.00000000
 
ion      s      p      d    tot
    1  0.007  0.000  0.025  0.032
    2  0.012  0.000  0.021  0.033
    3  0.012  0.000  0.021  0.033
    4  0.012  0.000  0.021  0.033
    5  0.015  0.000  0.019  0.034
    6  0.012  0.000  0.021  0.033
    7  0.012  0.000  0.021  0.033
    8  0.012  0.000  0.021  0.033
    9  0.016  0.000  0.019  0.035
   10  0.002  0.001  0.012  0.016
   11  0.001  0.000  0.027  0.028
   12  0.002  0.001  0.012  0.016
   13  0.001  0.000  0.027  0.028
   14  0.001  0.000  0.027  0.028
   15  0.000  0.000  0.025  0.025
   16  0.002  0.001  0.012  0.016
   17  0.000  0.000  0.025  0.025
   18  0.000  0.000  0.025  0.025
   19  0.000  0.000  0.014  0.014
   20  0.002  0.000  0.032  0.034
   21  0.002  0.000  0.032  0.034
   22  0.003  0.000  0.012  0.015
   23  0.002  0.000  0.032  0.034
   24  0.003  0.000  0.012  0.015
   25  0.000  0.000  0.014  0.014
   26  0.000  0.000  0.014  0.014
   27  0.003  0.000  0.012  0.015
   28  0.003  0.000  0.008  0.010
   29  0.003  0.000  0.005  0.007
   30  0.003  0.000  0.005  0.007
   31  0.003  0.000  0.005  0.007
   32  0.003  0.000  0.005  0.007
   33  0.003  0.000  0.005  0.007
   34  0.003  0.000  0.005  0.007
   35  0.001  0.000  0.008  0.009
   36  0.015  0.000  0.009  0.024
   37  0.002  0.015  0.000  0.017
tot    0.171  0.022  0.602  0.795
 
band     6 # energy   -5.03457815 # occ.  2.00000000
 
ion      s      p      d    tot
    1  0.000  0.000  0.009  0.009
    2  0.000  0.000  0.003  0.003
    3  0.000  0.000  0.002  0.003
    4  0.000  0.000  0.003  0.003
    5  0.000  0.000  0.004  0.004
    6  0.001  0.000  0.003  0.004
    7  0.000  0.000  0.002  0.003
    8  0.001  0.000  0.003  0.004
    9  0.000  0.000  0.002  0.002
   10  0.015  0.001  0.012  0.029
   11  0.001  0.001  0.022  0.024
   12  0.004  0.001  0.022  0.027
   13  0.001  0.001  0.022  0.024
   14  0.004  0.000  0.024  0.028
   15  0.001  0.000  0.022  0.023
   16  0.004  0.001  0.022  0.027
   17  0.001  0.000  0.022  0.023
   18  0.003  0.000  0.010  0.013
   19  0.005  0.001  0.020  0.026
   20  0.031  0.001  0.006  0.038
   21  0.007  0.000  0.096  0.103
   22  0.000  0.001  0.052  0.053
   23  0.008  0.000  0.092  0.101
   24  0.001  0.000  0.024  0.025
   25  0.017  0.000  0.036  0.054
   26  0.004  0.001  0.019  0.025
   27  0.000  0.001  0.051  0.052
   28  0.000  0.000  0.004  0.004
   29  0.001  0.001  0.006  0.007
   30  0.001  0.000  0.007  0.008
   31  0.001  0.001  0.006  0.007
   32  0.000  0.000  0.005  0.006
   33  0.001  0.000  0.007  0.008
   34  0.000  0.000  0.005  0.006
   35  0.000  0.000  0.001  0.001
   36  0.000  0.000  0.024  0.025
   37  0.000  0.009  0.000  0.009
tot    0.115  0.024  0.668  0.807
 
band     7 # energy   -5.03457314 # occ.  2.00000000
 
ion      s      p      d    tot
    1  0.000  0.000  0.009  0.009
    2  0.001  0.000  0.002  0.003
    3  0.001  0.000  0.003  0.004
    4  0.001  0.000  0.002  0.003
    5  0.000  0.000  0.004  0.004
    6  0.000  0.000  0.002  0.003
    7  0.001  0.000  0.003  0.004
    8  0.000  0.000  0.002  0.002
    9  0.000  0.000  0.002  0.002
   10  0.000  0.000  0.025  0.026
   11  0.003  0.001  0.023  0.027
   12  0.011  0.001  0.016  0.028
   13  0.003  0.000  0.023  0.027
   14  0.000  0.001  0.021  0.023
   15  0.002  0.000  0.014  0.017
   16  0.011  0.001  0.016  0.028
   17  0.002  0.000  0.014  0.016
   18  0.000  0.000  0.026  0.026
   19  0.013  0.001  0.031  0.044
   20  0.000  0.000  0.123  0.124
   21  0.024  0.000  0.034  0.058
   22  0.001  0.000  0.032  0.034
   23  0.023  0.000  0.037  0.061
   24  0.000  0.001  0.060  0.061
   25  0.000  0.002  0.014  0.016
   26  0.013  0.001  0.031  0.045
   27  0.001  0.000  0.033  0.035
   28  0.000  0.000  0.004  0.004
   29  0.000  0.000  0.006  0.007
   30  0.000  0.000  0.005  0.006
   31  0.000  0.000  0.006  0.007
   32  0.001  0.001  0.006  0.008
   33  0.000  0.000  0.005  0.006
   34  0.001  0.001  0.006  0.008
   35  0.000  0.000  0.001  0.001
   36  0.000  0.000  0.024  0.025
   37  0.000  0.009  0.000  0.009
tot    0.115  0.024  0.668  0.807
 
band     8 # energy   -5.01344509 # occ.  2.00000000
 
ion      s      p      d    tot
    1  0.000  0.000  0.000  0.000
    2  0.000  0.000  0.006  0.006
    3  0.000  0.000  0.006  0.006
    4  0.000  0.000  0.006  0.006
    5  0.004  0.001  0.003  0.008
    6  0.000  0.000  0.005  0.006
    7  0.000  0.000  0.005  0.006
    8  0.000  0.000  0.005  0.006
    9  0.002  0.000  0.002  0.005
   10  0.005  0.001  0.006  0.013
   11  0.012  0.001  0.027  0.040
   12  0.005  0.001  0.006  0.012
   13  0.012  0.001  0.027  0.040
   14  0.011  0.001  0.027  0.039
   15  0.001  0.000  0.043  0.044
   16  0.005  0.001  0.006  0.012
   17  0.001  0.000  0.043  0.044
   18  0.001  0.000  0.044  0.045
   19  0.014  0.001  0.034  0.048
   20  0.007  0.001  0.012  0.020
   21  0.007  0.001  0.011  0.019
   22  0.001  0.000  0.068  0.070
   23  0.007  0.001  0.011  0.019
   24  0.001  0.000  0.069  0.071
   25  0.014  0.001  0.033  0.048
   26  0.014  0.001  0.034  0.048
   27  0.001  0.000  0.068  0.070
   28  0.006  0.001  0.005  0.012
   29  0.000  0.000  0.004  0.004
   30  0.000  0.000  0.004  0.004
   31  0.000  0.000  0.004  0.004
   32  0.000  0.000  0.004  0.004
   33  0.000  0.000  0.004  0.004
   34  0.000  0.000  0.004  0.004
   35  0.001  0.001  0.009  0.010
   36  0.000  0.000  0.000  0.001
   37  0.000  0.000  0.000  0.000
tot    0.135  0.017  0.648  0.800
 
band     9 # energy   -5.01210948 # occ.  2.00000000
 
ion      s      p      d    tot
    1  0.000  0.000  0.001  0.001
    2  0.000  0.000  0.003  0.003
    3  0.002  0.001  0.005  0.007
    4  0.000  0.000  0.003  0.003
    5  0.000  0.000  0.007  0.008
    6  0.000  0.000  0.003  0.004
    7  0.002  0.001  0.005  0.007
    8  0.000  0.000  0.003  0.004
    9  0.000  0.000  0.006  0.006
   10  0.000  0.000  0.025  0.025
   11  0.005  0.000  0.062  0.068
   12  0.000  0.001  0.038  0.039
   13  0.005  0.000  0.061  0.066
   14  0.022  0.001  0.004  0.027
   15  0.004  0.001  0.021  0.026
   16  0.000  0.001  0.038  0.039
   17  0.005  0.001  0.021  0.027
   18  0.018  0.000  0.029  0.048
   19  0.002  0.000  0.054  0.056
   20  0.005  0.000  0.037  0.042
   21  0.001  0.001  0.023  0.026
   22  0.006  0.001  0.040  0.047
   23  0.001  0.001  0.023  0.025
   24  0.024  0.001  0.014  0.040
   25  0.008  0.001  0.010  0.018
   26  0.002  0.000  0.053  0.055
   27  0.006  0.001  0.041  0.048
   28  0.000  0.000  0.003  0.003
   29  0.001  0.000  0.004  0.005
   30  0.000  0.000  0.002  0.002
   31  0.001  0.000  0.004  0.006
   32  0.001  0.000  0.004  0.005
   33  0.000  0.000  0.002  0.002
   34  0.001  0.000  0.004  0.005
   35  0.000  0.000  0.008  0.009
   36  0.000  0.000  0.001  0.001
   37  0.000  0.000  0.000  0.000
tot    0.123  0.016  0.664  0.804
 
band    10 # energy   -5.01210377 # occ.  2.00000000
 
ion      s      p      d    tot
    1  0.000  0.000  0.001  0.001
    2  0.001  0.000  0.004  0.006
    3  0.000  0.000  0.002  0.002
    4  0.001  0.001  0.004  0.006
    5  0.000  0.000  0.007  0.008
    6  0.001  0.000  0.004  0.006
    7  0.000  0.000  0.002  0.002
    8  0.001  0.000  0.004  0.006
    9  0.000  0.000  0.006  0.006
   10  0.000  0.001  0.043  0.043
   11  0.016  0.001  0.023  0.040
   12  0.000  0.000  0.029  0.030
   13  0.016  0.001  0.024  0.041
   14  0.000  0.000  0.080  0.081
   15  0.014  0.001  0.027  0.041
   16  0.000  0.000  0.029  0.030
   17  0.013  0.001  0.027  0.041
   18  0.000  0.001  0.018  0.019
   19  0.006  0.000  0.024  0.030
   20  0.000  0.001  0.018  0.019
   21  0.004  0.001  0.032  0.036
   22  0.018  0.001  0.024  0.043
   23  0.004  0.001  0.032  0.037
   24  0.000  0.001  0.049  0.050
   25  0.000  0.000  0.069  0.069
   26  0.006  0.000  0.025  0.031
   27  0.018  0.001  0.023  0.042
   28  0.000  0.000  0.003  0.003
   29  0.000  0.000  0.003  0.003
   30  0.002  0.000  0.004  0.006
   31  0.000  0.000  0.003  0.003
   32  0.000  0.000  0.003  0.003
   33  0.002  0.000  0.004  0.006
   34  0.000  0.000  0.003  0.004
   35  0.000  0.000  0.008  0.009
   36  0.000  0.000  0.001  0.001
   37  0.000  0.000  0.000  0.000
tot    0.123  0.016  0.664  0.804
 
band    11 # energy   -4.99247491 # occ.  2.00000000
 
ion      s      p      d    tot
    1  0.000  0.000  0.001  0.002
    2  0.001  0.000  0.008  0.009
    3  0.001  0.000  0.008  0.009
    4  0.001  0.000  0.008  0.009
    5  0.002  0.000  0.000  0.002
    6  0.001  0.000  0.008  0.009
    7  0.001  0.000  0.008  0.009
    8  0.001  0.000  0.008  0.009
    9  0.002  0.000  0.018  0.021
   10  0.001  0.000  0.028  0.029
   11  0.002  0.001  0.013  0.016
   12  0.001  0.000  0.027  0.029
   13  0.002  0.001  0.013  0.016
   14  0.002  0.001  0.012  0.015
   15  0.005  0.000  0.063  0.068
   16  0.001  0.000  0.027  0.029
   17  0.005  0.000  0.063  0.068
   18  0.005  0.000  0.063  0.068
   19  0.001  0.001  0.004  0.005
   20  0.000  0.000  0.041  0.041
   21  0.000  0.000  0.040  0.041
   22  0.004  0.001  0.050  0.055
   23  0.000  0.000  0.040  0.041
   24  0.004  0.001  0.050  0.055
   25  0.001  0.001  0.004  0.005
   26  0.001  0.001  0.004  0.005
   27  0.004  0.001  0.050  0.055
   28  0.003  0.000  0.000  0.004
   29  0.002  0.000  0.009  0.012
   30  0.002  0.000  0.009  0.012
   31  0.002  0.000  0.009  0.012
   32  0.002  0.000  0.009  0.012
   33  0.002  0.000  0.009  0.012
   34  0.002  0.000  0.009  0.012
   35  0.003  0.000  0.019  0.022
   36  0.000  0.000  0.008  0.008
   37  0.000  0.005  0.000  0.005
tot    0.073  0.014  0.742  0.829
 
band    12 # energy   -4.98603564 # occ.  2.00000000
 
ion      s      p      d    tot
    1  0.002  0.001  0.013  0.016
    2  0.000  0.000  0.007  0.008
    3  0.000  0.000  0.007  0.008
    4  0.000  0.000  0.007  0.008
    5  0.001  0.000  0.006  0.008
    6  0.000  0.000  0.007  0.008
    7  0.000  0.000  0.007  0.008
    8  0.000  0.000  0.007  0.008
    9  0.004  0.001  0.003  0.008
   10  0.006  0.000  0.081  0.088
   11  0.000  0.000  0.067  0.067
   12  0.006  0.000  0.082  0.088
   13  0.000  0.000  0.067  0.067
   14  0.000  0.000  0.067  0.067
   15  0.012  0.001  0.005  0.017
   16  0.006  0.000  0.082  0.088
   17  0.012  0.001  0.005  0.017
   18  0.012  0.001  0.005  0.017
   19  0.000  0.000  0.015  0.015
   20  0.001  0.000  0.031  0.032
   21  0.001  0.000  0.031  0.032
   22  0.000  0.000  0.014  0.014
   23  0.001  0.000  0.031  0.032
   24  0.000  0.000  0.014  0.014
   25  0.000  0.000  0.015  0.015
   26  0.000  0.000  0.015  0.015
   27  0.000  0.000  0.014  0.014
   28  0.003  0.000  0.000  0.003
   29  0.000  0.000  0.008  0.008
   30  0.000  0.000  0.008  0.008
   31  0.000  0.000  0.008  0.008
   32  0.000  0.000  0.008  0.008
   33  0.000  0.000  0.008  0.008
   34  0.000  0.000  0.008  0.008
   35  0.000  0.000  0.002  0.002
   36  0.004  0.001  0.004  0.009
   37  0.000  0.001  0.000  0.001
tot    0.073  0.010  0.757  0.840
 
band    13 # energy   -4.97263870 # occ.  2.00000000
 
ion      s      p      d    tot
    1  0.000  0.000  0.015  0.015
    2  0.002  0.000  0.005  0.007
    3  0.000  0.000  0.011  0.011
    4  0.002  0.000  0.005  0.007
    5  0.000  0.000  0.005  0.005
    6  0.002  0.001  0.007  0.010
    7  0.000  0.000  0.011  0.011
    8  0.002  0.001  0.007  0.010
    9  0.000  0.000  0.008  0.008
   10  0.000  0.000  0.061  0.061
   11  0.000  0.000  0.037  0.037
   12  0.011  0.000  0.040  0.052
   13  0.000  0.000  0.037  0.038
   14  0.000  0.001  0.017  0.018
   15  0.010  0.000  0.036  0.046
   16  0.011  0.000  0.041  0.052
   17  0.010  0.000  0.033  0.043
   18  0.000  0.000  0.122  0.122
   19  0.000  0.000  0.027  0.028
   20  0.000  0.000  0.037  0.037
   21  0.001  0.000  0.015  0.017
   22  0.000  0.000  0.027  0.027
   23  0.001  0.000  0.016  0.017
   24  0.000  0.000  0.011  0.011
   25  0.000  0.000  0.039  0.039
   26  0.000  0.000  0.027  0.028
   27  0.000  0.000  0.026  0.027
   28  0.000  0.000  0.013  0.013
   29  0.001  0.000  0.005  0.006
   30  0.002  0.000  0.004  0.007
   31  0.001  0.000  0.005  0.006
   32  0.001  0.000  0.004  0.005
   33  0.002  0.000  0.004  0.007
   34  0.001  0.000  0.004  0.005
   35  0.000  0.000  0.006  0.006
   36  0.000  0.000  0.002  0.003
   37  0.000  0.000  0.000  0.000
tot    0.061  0.009  0.770  0.840
 
band    14 # energy   -4.97261422 # occ.  2.00000000
 
ion      s      p      d    tot
    1  0.000  0.000  0.015  0.015
    2  0.001  0.001  0.010  0.011
    3  0.003  0.001  0.005  0.008
    4  0.001  0.001  0.010  0.011
    5  0.000  0.000  0.005  0.005
    6  0.001  0.000  0.008  0.009
    7  0.003  0.001  0.005  0.008
    8  0.001  0.000  0.008  0.009
    9  0.000  0.000  0.008  0.008
   10  0.015  0.000  0.034  0.049
   11  0.000  0.000  0.024  0.024
   12  0.004  0.000  0.054  0.058
   13  0.000  0.000  0.023  0.024
   14  0.000  0.000  0.044  0.044
   15  0.003  0.000  0.092  0.095
   16  0.004  0.000  0.054  0.058
   17  0.003  0.000  0.094  0.098
   18  0.013  0.000  0.005  0.019
   19  0.000  0.000  0.035  0.035
   20  0.002  0.000  0.008  0.010
   21  0.000  0.000  0.030  0.031
   22  0.000  0.000  0.016  0.016
   23  0.000  0.000  0.030  0.030
   24  0.001  0.000  0.032  0.032
   25  0.001  0.000  0.023  0.024
   26  0.000  0.000  0.035  0.035
   27  0.000  0.000  0.016  0.016
   28  0.000  0.000  0.013  0.013
   29  0.002  0.000  0.004  0.006
   30  0.000  0.000  0.005  0.005
   31  0.002  0.000  0.004  0.006
   32  0.002  0.000  0.005  0.007
   33  0.000  0.000  0.005  0.005
   34  0.002  0.000  0.005  0.007
   35  0.000  0.000  0.006  0.006
   36  0.000  0.000  0.002  0.003
   37  0.000  0.000  0.000  0.000
tot    0.061  0.009  0.770  0.840
 
band    15 # energy   -4.96336373 # occ.  2.00000000
 
ion      s      p      d    tot
    1  0.000  0.000  0.006  0.006
    2  0.003  0.000  0.006  0.009
    3  0.000  0.000  0.010  0.010
    4  0.003  0.000  0.006  0.009
    5  0.000  0.000  0.011  0.011
    6  0.002  0.001  0.007  0.010
    7  0.000  0.000  0.010  0.010
    8  0.002  0.001  0.007  0.010
    9  0.000  0.000  0.016  0.016
   10  0.007  0.000  0.017  0.024
   11  0.003  0.000  0.055  0.057
   12  0.002  0.000  0.042  0.044
   13  0.003  0.000  0.054  0.057
   14  0.011  0.000  0.012  0.023
   15  0.000  0.000  0.023  0.023
   16  0.002  0.000  0.043  0.044
   17  0.000  0.000  0.023  0.023
   18  0.000  0.000  0.044  0.045
   19  0.002  0.000  0.050  0.052
   20  0.000  0.000  0.045  0.045
   21  0.000  0.000  0.025  0.025
   22  0.002  0.000  0.050  0.052
   23  0.000  0.000  0.025  0.025
   24  0.009  0.000  0.019  0.028
   25  0.007  0.000  0.009  0.016
   26  0.002  0.000  0.049  0.051
   27  0.002  0.000  0.050  0.053
   28  0.000  0.000  0.003  0.004
   29  0.000  0.000  0.007  0.008
   30  0.002  0.000  0.002  0.005
   31  0.000  0.000  0.008  0.008
   32  0.001  0.001  0.007  0.009
   33  0.002  0.000  0.002  0.005
   34  0.001  0.001  0.007  0.009
   35  0.000  0.000  0.009  0.009
   36  0.000  0.000  0.004  0.004
   37  0.000  0.000  0.000  0.000
tot    0.067  0.008  0.764  0.840
 
band    16 # energy   -4.96333966 # occ.  2.00000000
 
ion      s      p      d    tot
    1  0.000  0.000  0.006  0.006
    2  0.000  0.000  0.009  0.010
    3  0.003  0.001  0.006  0.010
    4  0.000  0.000  0.010  0.010
    5  0.000  0.000  0.011  0.011
    6  0.002  0.000  0.008  0.010
    7  0.003  0.001  0.005  0.010
    8  0.002  0.000  0.008  0.010
    9  0.000  0.000  0.016  0.016
   10  0.000  0.000  0.051  0.051
   11  0.008  0.000  0.025  0.034
   12  0.005  0.000  0.026  0.031
   13  0.008  0.000  0.026  0.035
   14  0.000  0.000  0.068  0.069
   15  0.000  0.000  0.037  0.038
   16  0.005  0.000  0.025  0.030
   17  0.000  0.000  0.037  0.037
   18  0.000  0.000  0.016  0.016
   19  0.005  0.000  0.022  0.028
   20  0.000  0.000  0.018  0.018
   21  0.000  0.000  0.038  0.038
   22  0.007  0.000  0.030  0.036
   23  0.000  0.000  0.039  0.039
   24  0.000  0.000  0.060  0.061
   25  0.000  0.000  0.063  0.063
   26  0.005  0.000  0.023  0.028
   27  0.007  0.000  0.029  0.036
   28  0.000  0.000  0.003  0.004
   29  0.002  0.001  0.004  0.007
   30  0.000  0.000  0.009  0.009
   31  0.002  0.001  0.004  0.006
   32  0.001  0.000  0.004  0.006
   33  0.000  0.000  0.009  0.009
   34  0.001  0.000  0.004  0.006
   35  0.000  0.000  0.009  0.009
   36  0.000  0.000  0.004  0.004
   37  0.000  0.000  0.000  0.000
tot    0.067  0.008  0.764  0.840
 
band    17 # energy   -4.96009511 # occ.  2.00000000
 
ion      s      p      d    tot
    1  0.011  0.000  0.011  0.023
    2  0.003  0.000  0.013  0.017
    3  0.003  0.000  0.013  0.017
    4  0.003  0.000  0.013  0.017
    5  0.001  0.000  0.018  0.019
    6  0.003  0.000  0.013  0.017
    7  0.003  0.000  0.013  0.017
    8  0.003  0.000  0.013  0.017
    9  0.001  0.000  0.003  0.004
   10  0.000  0.000  0.017  0.017
   11  0.005  0.000  0.015  0.021
   12  0.000  0.000  0.017  0.017
   13  0.005  0.000  0.015  0.021
   14  0.005  0.000  0.015  0.021
   15  0.001  0.000  0.017  0.018
   16  0.000  0.000  0.017  0.017
   17  0.001  0.000  0.017  0.018
   18  0.001  0.000  0.017  0.018
   19  0.002  0.000  0.037  0.039
   20  0.000  0.001  0.010  0.011
   21  0.000  0.001  0.010  0.011
   22  0.002  0.000  0.020  0.023
   23  0.000  0.001  0.010  0.011
   24  0.002  0.000  0.021  0.023
   25  0.002  0.000  0.037  0.039
   26  0.002  0.000  0.037  0.039
   27  0.002  0.000  0.020  0.023
   28  0.010  0.000  0.037  0.047
   29  0.009  0.000  0.021  0.030
   30  0.009  0.000  0.021  0.030
   31  0.009  0.000  0.021  0.030
   32  0.009  0.000  0.021  0.030
   33  0.009  0.000  0.021  0.030
   34  0.009  0.000  0.021  0.030
   35  0.004  0.000  0.015  0.020
   36  0.016  0.001  0.008  0.025
   37  0.000  0.000  0.000  0.000
tot    0.148  0.009  0.646  0.803
 
band    18 # energy   -4.86216519 # occ.  2.00000000
 
ion      s      p      d    tot
    1  0.000  0.000  0.000  0.000
    2  0.000  0.000  0.005  0.005
    3  0.000  0.000  0.005  0.005
    4  0.000  0.000  0.005  0.005
    5  0.002  0.000  0.005  0.007
    6  0.000  0.000  0.005  0.005
    7  0.000  0.000  0.005  0.005
    8  0.000  0.000  0.005  0.005
    9  0.000  0.000  0.012  0.012
   10  0.001  0.000  0.003  0.004
   11  0.000  0.001  0.061  0.062
   12  0.001  0.000  0.003  0.004
   13  0.000  0.001  0.061  0.062
   14  0.000  0.001  0.061  0.062
   15  0.000  0.001  0.039  0.040
   16  0.001  0.000  0.003  0.004
   17  0.000  0.001  0.039  0.040
   18  0.000  0.001  0.039  0.040
   19  0.001  0.000  0.015  0.016
   20  0.004  0.001  0.051  0.055
   21  0.004  0.001  0.051  0.055
   22  0.005  0.000  0.026  0.032
   23  0.004  0.001  0.051  0.055
   24  0.005  0.000  0.026  0.031
   25  0.001  0.000  0.015  0.016
   26  0.001  0.000  0.015  0.016
   27  0.005  0.000  0.026  0.032
   28  0.001  0.001  0.000  0.002
   29  0.000  0.001  0.017  0.018
   30  0.000  0.001  0.017  0.018
   31  0.000  0.001  0.017  0.018
   32  0.000  0.001  0.017  0.018
   33  0.000  0.001  0.017  0.018
   34  0.000  0.001  0.017  0.018
   35  0.007  0.001  0.005  0.012
   36  0.005  0.000  0.024  0.029
   37  0.002  0.027  0.000  0.029
tot    0.052  0.040  0.765  0.857
 
band    19 # energy   -4.83484764 # occ.  2.00000000
 
ion      s      p      d    tot
    1  0.000  0.000  0.003  0.003
    2  0.001  0.001  0.008  0.009
    3  0.000  0.000  0.006  0.007
    4  0.001  0.001  0.008  0.009
    5  0.000  0.000  0.009  0.010
    6  0.002  0.001  0.004  0.006
    7  0.000  0.000  0.006  0.007
    8  0.002  0.001  0.004  0.006
    9  0.000  0.001  0.011  0.012
   10  0.000  0.001  0.027  0.029
   11  0.000  0.000  0.056  0.057
   12  0.000  0.000  0.008  0.008
   13  0.000  0.000  0.056  0.057
   14  0.001  0.000  0.036  0.037
   15  0.000  0.000  0.037  0.037
   16  0.000  0.000  0.008  0.008
   17  0.000  0.000  0.037  0.037
   18  0.002  0.000  0.034  0.036
   19  0.000  0.000  0.007  0.008
   20  0.002  0.000  0.066  0.068
   21  0.000  0.000  0.074  0.074
   22  0.000  0.000  0.051  0.052
   23  0.000  0.000  0.074  0.074
   24  0.000  0.000  0.024  0.025
   25  0.000  0.001  0.024  0.025
   26  0.000  0.000  0.007  0.008
   27  0.000  0.000  0.051  0.052
   28  0.000  0.000  0.001  0.001
   29  0.000  0.000  0.008  0.008
   30  0.001  0.001  0.009  0.010
   31  0.000  0.000  0.008  0.008
   32  0.001  0.001  0.009  0.010
   33  0.001  0.001  0.009  0.010
   34  0.001  0.001  0.009  0.010
   35  0.000  0.000  0.003  0.003
   36  0.000  0.000  0.036  0.037
   37  0.000  0.017  0.000  0.017
tot    0.018  0.028  0.828  0.873
 
band    20 # energy   -4.83482299 # occ.  2.00000000
 
ion      s      p      d    tot
    1  0.000  0.000  0.003  0.003
    2  0.001  0.000  0.004  0.006
    3  0.002  0.001  0.006  0.008
    4  0.001  0.000  0.004  0.006
    5  0.000  0.000  0.009  0.010
    6  0.000  0.000  0.008  0.008
    7  0.002  0.001  0.006  0.008
    8  0.000  0.000  0.008  0.008
    9  0.000  0.001  0.011  0.012
   10  0.000  0.000  0.001  0.001
   11  0.001  0.000  0.042  0.044
   12  0.000  0.001  0.021  0.022
   13  0.001  0.000  0.043  0.044
   14  0.000  0.000  0.063  0.064
   15  0.001  0.000  0.035  0.036
   16  0.000  0.001  0.021  0.022
   17  0.001  0.000  0.035  0.036
   18  0.000  0.000  0.038  0.038
   19  0.000  0.001  0.018  0.019
   20  0.000  0.000  0.076  0.076
   21  0.001  0.000  0.068  0.070
   22  0.000  0.000  0.033  0.034
   23  0.001  0.000  0.068  0.070
   24  0.000  0.000  0.060  0.060
   25  0.000  0.000  0.002  0.002
   26  0.000  0.001  0.018  0.019
   27  0.000  0.000  0.033  0.034
   28  0.000  0.000  0.001  0.001
   29  0.001  0.001  0.009  0.011
   30  0.000  0.000  0.008  0.009
   31  0.001  0.001  0.009  0.011
   32  0.000  0.000  0.008  0.009
   33  0.000  0.000  0.008  0.009
   34  0.000  0.000  0.008  0.009
   35  0.000  0.000  0.003  0.003
   36  0.000  0.000  0.036  0.037
   37  0.000  0.017  0.000  0.017
tot    0.018  0.028  0.828  0.873
 
band    21 # energy   -4.80085427 # occ.  2.00000000
 
ion      s      p      d    tot
    1  0.000  0.000  0.008  0.008
    2  0.000  0.000  0.010  0.011
    3  0.000  0.000  0.010  0.011
    4  0.000  0.000  0.010  0.011
    5  0.004  0.001  0.001  0.006
    6  0.000  0.000  0.010  0.011
    7  0.000  0.000  0.010  0.011
    8  0.000  0.000  0.010  0.011
    9  0.001  0.000  0.003  0.004
   10  0.002  0.001  0.054  0.056
   11  0.000  0.000  0.029  0.029
   12  0.002  0.001  0.054  0.056
   13  0.000  0.000  0.029  0.029
   14  0.000  0.000  0.028  0.029
   15  0.002  0.000  0.026  0.028
   16  0.002  0.001  0.054  0.056
   17  0.002  0.000  0.026  0.028
   18  0.002  0.000  0.026  0.028
   19  0.002  0.001  0.050  0.052
   20  0.001  0.000  0.016  0.017
   21  0.001  0.000  0.015  0.017
   22  0.000  0.001  0.047  0.048
   23  0.001  0.000  0.015  0.017
   24  0.000  0.001  0.047  0.048
   25  0.002  0.001  0.051  0.053
   26  0.002  0.001  0.050  0.052
   27  0.000  0.001  0.047  0.048
   28  0.000  0.000  0.010  0.010
   29  0.000  0.000  0.010  0.010
   30  0.000  0.000  0.010  0.010
   31  0.000  0.000  0.010  0.010
   32  0.000  0.000  0.010  0.010
   33  0.000  0.000  0.010  0.010
   34  0.000  0.000  0.010  0.010
   35  0.004  0.001  0.004  0.009
   36  0.003  0.001  0.000  0.004