 vasp.6.2.0 18Jan21 (build Jun 12 2021 23:27:24) complex                        
  
 executed on             LinuxIFC date 2022.05.26  20:18:47
 running on   28 total cores
 distrk:  each k-point on   28 cores,    1 groups
 distr:  one band on NCORE=   1 cores,   28 groups


--------------------------------------------------------------------------------------------------------


 INCAR:
   ISMEAR = -5
   SIGMA = 0.1
   ISPIN = 1
   EDIFF = 1.d-5
   EDIFFG = -0.01
   NSW = 0
   NELM = 150
   ENCUT = 500
   ISIF = 2
   IBRION = 2
   LREAL = Auto
   ALGO = Fast
   ICHARG = 11
   LORBIT = 10
   LCHARG = .F.
   LWAVE = .F.

 POTCAR:    PAW_PBE Ag 02Apr2005                  
 POTCAR:    PAW_PBE Mn 06Sep2000                  
 -----------------------------------------------------------------------------
|                                                                             |
|           W    W    AA    RRRRR   N    N  II  N    N   GGGG   !!!           |
|           W    W   A  A   R    R  NN   N  II  NN   N  G    G  !!!           |
|           W    W  A    A  R    R  N N  N  II  N N  N  G       !!!           |
|           W WW W  AAAAAA  RRRRR   N  N N  II  N  N N  G  GGG   !            |
|           WW  WW  A    A  R   R   N   NN  II  N   NN  G    G                |
|           W    W  A    A  R    R  N    N  II  N    N   GGGG   !!!           |
|                                                                             |
|     For optimal performance we recommend to set                             |
|       NCORE = 2 up to number-of-cores-per-socket                            |
|     NCORE specifies how many cores store one orbital (NPAR=cpu/NCORE).      |
|     This setting can greatly improve the performance of VASP for DFT.       |
|     The default, NCORE=1 might be grossly inefficient on modern             |
|     multi-core architectures or massively parallel machines. Do your        |
|     own testing! More info at https://www.vasp.at/wiki/index.php/NCORE      |
|     Unfortunately you need to use the default for GW and RPA                |
|     calculations (for HF NCORE is supported but not extensively tested      |
|     yet).                                                                   |
|                                                                             |
 -----------------------------------------------------------------------------

 POTCAR:    PAW_PBE Ag 02Apr2005                  
   VRHFIN =Ag : s1 d10                                                                              
   LEXCH  = PE                                                                                      
   EATOM  =  1037.2675 eV,   76.2370 Ry                                                             
                                                                                                    
   TITEL  = PAW_PBE Ag 02Apr2005                                                                    
   LULTRA =        F    use ultrasoft PP ?                                                          
   IUNSCR =        1    unscreen: 0-lin 1-nonlin 2-no                                               
   RPACOR =    2.000    partial core radius                                                         
   POMASS =  107.868; ZVAL   =   11.000    mass and valenz                                          
   RCORE  =    2.500    outmost cutoff radius                                                       
   RWIGS  =    2.840; RWIGS  =    1.503    wigner-seitz radius (au A)                               
   ENMAX  =  249.844; ENMIN  =  187.383 eV                                                          
   ICORE  =        3    local potential                                                             
   LCOR   =        T    correct aug charges                                                         
   LPAW   =        T    paw PP                                                                      
   EAUG   =  412.496                                                                                
   DEXC   =    0.000                                                                                
   RMAX   =    2.560    core radius for proj-oper                                                   
   RAUG   =    1.300    factor for augmentation sphere                                              
   RDEP   =    2.576    radius for radial grids                                                     
   RDEPT  =    2.072    core radius for aug-charge                                                  
                                                                                                    
   Atomic configuration                                                                             
   12 entries                                                                                       
     n  l   j            E        occ.                                                              
     1  0  0.50    -25324.9161   2.0000                                                             
     2  0  0.50     -3728.5341   2.0000                                                             
     2  1  1.50     -3344.0404   6.0000                                                             
     3  0  0.50      -683.5581   2.0000                                                             
     3  1  1.50      -557.3225   6.0000                                                             
     3  2  2.50      -358.3853  10.0000                                                             
     4  0  0.50       -95.0341   2.0000                                                             
     4  1  1.50       -58.5511   6.0000                                                             
     4  2  2.50        -7.4440  10.0000                                                             
     5  0  0.50        -4.4045   1.0000                                                             
     5  1  0.50        -1.3606   0.0000                                                             
     4  3  2.50        -1.3606   0.0000                                                             
   Description                                                                                      
     l       E           TYP  RCUT    TYP  RCUT                                                     
     2     -7.4439781     23  2.400                                                                 
     2     -8.8045607     23  2.400                                                                 
     0     -4.4044681     23  2.400                                                                 
     0      1.9520038     23  2.400                                                                 
     1     -1.3605826     23  2.500                                                                 
     1     27.2116520     23  2.500                                                                 
     3     -4.0817478     23  2.400                                                                 
  local pseudopotential read in
  partial core-charges read in
  partial kinetic energy density read in
  atomic valenz-charges read in
  non local Contribution for L=           2  read in
    real space projection operators read in
  non local Contribution for L=           2  read in
    real space projection operators read in
  non local Contribution for L=           0  read in
    real space projection operators read in
  non local Contribution for L=           0  read in
    real space projection operators read in
  non local Contribution for L=           1  read in
    real space projection operators read in
  non local Contribution for L=           1  read in
    real space projection operators read in
    PAW grid and wavefunctions read in
 
   number of l-projection  operators is LMAX  =           6
   number of lm-projection operators is LMMAX =          18
 
 POTCAR:    PAW_PBE Mn 06Sep2000                  
   VRHFIN =Mn: d6 s1                                                                                
   LEXCH  = PE                                                                                      
   EATOM  =   416.7541 eV,   30.6306 Ry                                                             
                                                                                                    
   TITEL  = PAW_PBE Mn 06Sep2000                                                                    
   LULTRA =        F    use ultrasoft PP ?                                                          
   IUNSCR =        1    unscreen: 0-lin 1-nonlin 2-no                                               
   RPACOR =    2.000    partial core radius                                                         
   POMASS =   54.938; ZVAL   =    7.000    mass and valenz                                          
   RCORE  =    2.300    outmost cutoff radius                                                       
   RWIGS  =    2.500; RWIGS  =    1.323    wigner-seitz radius (au A)                               
   ENMAX  =  269.864; ENMIN  =  202.398 eV                                                          
   RCLOC  =    1.725    cutoff for local pot                                                        
   LCOR   =        T    correct aug charges                                                         
   LPAW   =        T    paw PP                                                                      
   EAUG   =  500.711                                                                                
   DEXC   =    0.000                                                                                
   RMAX   =    2.343    core radius for proj-oper                                                   
   RAUG   =    1.300    factor for augmentation sphere                                              
   RDEP   =    2.338    radius for radial grids                                                     
   RDEPT  =    1.911    core radius for aug-charge                                                  
                                                                                                    
   Atomic configuration                                                                             
    9 entries                                                                                       
     n  l   j            E        occ.                                                              
     1  0  0.50     -6424.8288   2.0000                                                             
     2  0  0.50      -739.1154   2.0000                                                             
     2  1  1.50      -625.3949   6.0000                                                             
     3  0  0.50       -81.6100   2.0000                                                             
     3  1  1.50       -50.4667   6.0000                                                             
     3  2  2.50        -3.3745   6.0000                                                             
     4  0  0.50        -4.1331   1.0000                                                             
     4  1  0.50        -4.0817   0.0000                                                             
     4  3  2.50        -1.3606   0.0000                                                             
   Description                                                                                      
     l       E           TYP  RCUT    TYP  RCUT                                                     
     2     -3.3744664     23  2.300                                                                 
     2     -4.7350490     23  2.300                                                                 
     0     -4.1331408     23  2.300                                                                 
     0      7.6656614     23  2.300                                                                 
     1     -2.7211652     23  2.300                                                                 
     1     20.4087390     23  2.300                                                                 
  local pseudopotential read in
  partial core-charges read in
  partial kinetic energy density read in
  atomic valenz-charges read in
  non local Contribution for L=           2  read in
    real space projection operators read in
  non local Contribution for L=           2  read in
    real space projection operators read in
  non local Contribution for L=           0  read in
    real space projection operators read in
  non local Contribution for L=           0  read in
    real space projection operators read in
  non local Contribution for L=           1  read in
    real space projection operators read in
  non local Contribution for L=           1  read in
    real space projection operators read in
    PAW grid and wavefunctions read in
 
   number of l-projection  operators is LMAX  =           6
   number of lm-projection operators is LMMAX =          18
 
 Optimization of the real space projectors (new method)

 maximal supplied QI-value         = 15.12
 optimisation between [QCUT,QGAM] = [ 11.34, 22.83] = [ 36.00,145.93] Ry 
 Optimized for a Real-space Cutoff    1.43 Angstroem

   l    n(q)    QCUT    max X(q) W(low)/X(q) W(high)/X(q)  e(spline) 
   2      9    11.338    53.897    0.16E-03    0.20E-03    0.28E-06
   2      9    11.338    52.416    0.16E-03    0.20E-03    0.29E-06
   0     10    11.338   122.045    0.31E-04    0.76E-04    0.15E-06
   0     10    11.338    73.629    0.30E-04    0.72E-04    0.15E-06
   1      9    11.338    15.255    0.20E-03    0.19E-04    0.17E-06
   1      9    11.338     9.562    0.16E-03    0.15E-04    0.14E-06
 Optimization of the real space projectors (new method)

 maximal supplied QI-value         = 16.25
 optimisation between [QCUT,QGAM] = [ 11.38, 22.75] = [ 36.24,144.96] Ry 
 Optimized for a Real-space Cutoff    1.39 Angstroem

   l    n(q)    QCUT    max X(q) W(low)/X(q) W(high)/X(q)  e(spline) 
   2      8    11.376   110.144    0.49E-03    0.27E-04    0.26E-06
   2      8    11.376   103.200    0.49E-03    0.28E-04    0.27E-06
   0      9    11.376    68.437    0.57E-04    0.92E-04    0.15E-06
   0      9    11.376    33.971    0.51E-04    0.83E-04    0.14E-06
   1      9    11.376    17.065    0.34E-03    0.68E-04    0.14E-06
   1      9    11.376    12.540    0.27E-03    0.59E-04    0.11E-06
  PAW_PBE Ag 02Apr2005                  :
 energy of atom  1       EATOM=-1037.2675
 kinetic energy error for atom=    0.0052 (will be added to EATOM!!)
  PAW_PBE Mn 06Sep2000                  :
 energy of atom  2       EATOM= -416.7541
 kinetic energy error for atom=    0.0024 (will be added to EATOM!!)
 
 
 POSCAR: Ag-Mn
  positions in direct lattice
  velocities in cartesian coordinates
 exchange correlation table for  LEXCH =        8
   RHO(1)=    0.500       N(1)  =     2000
   RHO(2)=  100.500       N(2)  =     4000

 VTST: version 3.2, (02/03/18)

 CHAIN: initializing optimizer
 
 OPT: Using VASP Conjugate-Gradient optimizer
 CHAIN: Read ICHAIN            0
 
 POSCAR: Ag-Mn
  positions in direct lattice
  velocities in cartesian coordinates
 


--------------------------------------------------------------------------------------------------------


 ion  position               nearest neighbor table
   1  0.000  0.000  0.238-   2 2.93   8 2.93   7 2.93   6 2.93   4 2.93  12 2.93  16 2.93  10 2.93
                             3 2.93
   2  0.333  0.000  0.238-   1 2.93   8 2.93   9 2.93   3 2.93   4 2.93   5 2.93  10 2.93  17 2.93
                            11 2.93
   3  0.667  0.000  0.238-   9 2.93   2 2.93   5 2.93  11 2.93   7 2.93  18 2.93   1 2.93   6 2.93
                            12 2.93
   4  0.000  0.333  0.238-   5 2.93   6 2.93   2 2.93   1 2.93   7 2.93  13 2.93  15 2.93   9 2.93
                            10 2.93
   5  0.333  0.333  0.238-   4 2.93   3 2.93   7 2.93   2 2.93   8 2.93  14 2.93  13 2.93  11 2.93
                             6 2.93
   6  0.667  0.333  0.238-   4 2.93   9 2.93   1 2.93  15 2.93   8 2.93  12 2.93   3 2.93   5 2.93
                            14 2.93
   7  0.000  0.667  0.238-   8 2.93   1 2.93   5 2.93   3 2.93   4 2.93  16 2.93  18 2.93  13 2.93
                             9 2.93
   8  0.333  0.667  0.238-   7 2.93   1 2.93   2 2.93   9 2.93   5 2.93  16 2.93   6 2.93  17 2.93
                            14 2.93
   9  0.667  0.667  0.238-   3 2.93   2 2.93   8 2.93   6 2.93  17 2.93   4 2.93  15 2.93   7 2.93
                            18 2.93
  10  0.111  0.111  0.346-  20 2.92  19 2.93  26 2.93  12 2.93  16 2.93  15 2.93  17 2.93  13 2.93
                            11 2.93   2 2.93   1 2.93   4 2.93
  11  0.444  0.111  0.346-  21 2.90  20 2.90  27 2.92  14 2.93  17 2.93  18 2.93   3 2.93  12 2.93
                            13 2.93  10 2.93   5 2.93   2 2.93
  12  0.778  0.111  0.346-  21 2.92  25 2.93  19 2.93  10 2.93  16 2.93  18 2.93  15 2.93  11 2.93
                             1 2.93  14 2.93   6 2.93   3 2.93
  13  0.111  0.444  0.346-  20 2.90  23 2.90  22 2.92  15 2.93  14 2.93  18 2.93  10 2.93  11 2.93
                            16 2.93   4 2.93   5 2.93   7 2.93
  14  0.444  0.444  0.346-  23 2.90  21 2.90  24 2.92  13 2.93  11 2.93  16 2.93   5 2.93  12 2.93
                            17 2.93   8 2.93  15 2.93   6 2.93
  15  0.778  0.444  0.346-  24 2.92  22 2.92  19 2.92  13 2.93  10 2.93  12 2.93  17 2.93  18 2.93
                             4 2.93   6 2.93   9 2.93  14 2.93
  16  0.111  0.778  0.346-  23 2.92  26 2.93  25 2.93  18 2.93  12 2.93  10 2.93  14 2.93  17 2.93
                            13 2.93   7 2.93   8 2.93   1 2.93
  17  0.444  0.778  0.346-  27 2.92  24 2.92  26 2.92  11 2.93  10 2.93   9 2.93  18 2.93  15 2.93
                            16 2.93   2 2.93  14 2.93   8 2.93
  18  0.778  0.778  0.346-  22 2.92  27 2.92  25 2.92  16 2.93  12 2.93  13 2.93  11 2.93  17 2.93
                            15 2.93   7 2.93   3 2.93   9 2.93
  19  0.889  0.223  0.454-  28 2.91  15 2.92  10 2.93  12 2.93  24 2.93  22 2.93  26 2.94  25 2.94
                            20 2.94  21 2.94  32 2.95  31 2.95
  20  0.223  0.223  0.453-  36 2.71  31 2.90  29 2.90  13 2.90  11 2.90  21 2.91  23 2.91  10 2.92
                            27 2.93  22 2.93  19 2.94  26 2.94
  21  0.554  0.223  0.453-  36 2.71  30 2.90  32 2.90  11 2.90  14 2.90  20 2.91  23 2.91  12 2.92
                            27 2.93  24 2.93  25 2.94  19 2.94
  22  0.888  0.556  0.453-  35 2.91  18 2.92  15 2.92  13 2.92  24 2.93  27 2.93  33 2.93  31 2.93
                            25 2.93  19 2.93  23 2.93  20 2.93
  23  0.223  0.554  0.453-  36 2.71  34 2.90  33 2.90  14 2.90  13 2.90  21 2.91  20 2.91  16 2.92
                            22 2.93  24 2.93  26 2.94  25 2.94
  24  0.556  0.556  0.453-  35 2.91  15 2.92  17 2.92  14 2.92  27 2.93  22 2.93  32 2.93  34 2.93
                            19 2.93  26 2.93  23 2.93  21 2.93
  25  0.889  0.889  0.454-  28 2.91  18 2.92  16 2.93  12 2.93  22 2.93  27 2.93  26 2.94  19 2.94
                            23 2.94  21 2.94  33 2.95  30 2.95
  26  0.223  0.889  0.454-  28 2.91  17 2.92  16 2.93  10 2.93  27 2.93  24 2.93  25 2.94  19 2.94
                            23 2.94  20 2.94  34 2.95  29 2.95
  27  0.556  0.888  0.453-  35 2.91  17 2.92  18 2.92  11 2.92  24 2.93  22 2.93  29 2.93  30 2.93
                            26 2.93  25 2.93  20 2.93  21 2.93
  28  0.000  0.000  0.560-  26 2.91  25 2.91  19 2.91  29 2.97  34 2.97  33 2.97  32 2.97  31 2.97
                            30 2.97
  29  0.333  0.008  0.561-  31 2.86  30 2.86  36 2.87  20 2.90  27 2.93  26 2.95  28 2.97  35 2.97
                            34 3.07
  30  0.659  0.008  0.561-  32 2.86  29 2.86  36 2.87  21 2.90  27 2.93  25 2.95  28 2.97  35 2.97
                            33 3.07
  31  0.008  0.333  0.561-  29 2.86  33 2.86  36 2.87  20 2.90  22 2.93  19 2.95  28 2.97  35 2.97
                            32 3.07
  32  0.659  0.333  0.561-  30 2.86  34 2.86  36 2.87  21 2.90  24 2.93  19 2.95  28 2.97  35 2.97
                            31 3.07
  33  0.008  0.659  0.561-  34 2.86  31 2.86  36 2.87  23 2.90  22 2.93  25 2.95  28 2.97  35 2.97
                            30 3.07
  34  0.333  0.659  0.561-  33 2.86  32 2.86  36 2.87  23 2.90  24 2.93  26 2.95  28 2.97  35 2.97
                            29 3.07
  35  0.667  0.667  0.560-  24 2.91  27 2.91  22 2.91  32 2.97  30 2.97  29 2.97  34 2.97  31 2.97
                            33 2.97
  36  0.333  0.333  0.549-  21 2.71  20 2.71  23 2.71  31 2.87  30 2.87  33 2.87  29 2.87  34 2.87
                            32 2.87
 
  LATTYP: Found a hexagonal cell.
 ALAT       =     8.7913665772
 C/A-ratio  =     2.5227160501
  
  Lattice vectors:
  
 A1 = (  -4.3956832886,  -7.6135467898,   0.0000000000)
 A2 = (   8.7913665771,   0.0000000000,   0.0000000000)
 A3 = (   0.0000000000,   0.0000000000,  22.1781215668)


Analysis of symmetry for initial positions (statically):
=====================================================================
 Subroutine PRICEL returns:
 Original cell was already a primitive cell.
 

 Routine SETGRP: Setting up the symmetry group for a 
 hexagonal supercell.


 Subroutine GETGRP returns: Found  6 space group operations
 (whereof  6 operations were pure point group operations)
 out of a pool of 24 trial point group operations.


The static configuration has the point symmetry C_3v.


Analysis of symmetry for dynamics (positions and initial velocities):
=====================================================================
 Subroutine PRICEL returns:
 Original cell was already a primitive cell.
 

 Routine SETGRP: Setting up the symmetry group for a 
 hexagonal supercell.


 Subroutine GETGRP returns: Found  6 space group operations
 (whereof  6 operations were pure point group operations)
 out of a pool of 24 trial point group operations.


The dynamic configuration has the point symmetry C_3v.


Analysis of constrained symmetry for selective dynamics:
=====================================================================
 Subroutine PRICEL returns:
 Original cell was already a primitive cell.
 

 Routine SETGRP: Setting up the symmetry group for a 
 hexagonal supercell.


 Subroutine GETGRP returns: Found  6 space group operations
 (whereof  6 operations were pure point group operations)
 out of a pool of 24 trial point group operations.


The constrained configuration has the point symmetry C_3v.


 Subroutine INISYM returns: Found  6 space group operations
 (whereof  6 operations are pure point group operations),
 and found     1 'primitive' translations


----------------------------------------------------------------------------------------

                                     Primitive cell                                     

  volume of cell :    1484.4589

  direct lattice vectors                    reciprocal lattice vectors
     8.791366577  0.000000000  0.000000000     0.113747958 -0.065672414  0.000000000
     4.395683289  7.613546790  0.000000000     0.000000000  0.131344829  0.000000000
     0.000000000  0.000000000 22.178121567     0.000000000  0.000000000  0.045089481

  length of vectors
     8.791366577  8.791366577 22.178121567     0.131344829  0.131344829  0.045089481

  position of ions in fractional coordinates (direct lattice)
     0.000000000  0.000000000  0.238171124
     0.333333313  0.000000000  0.238171124
     0.666666627  0.000000000  0.238171124
     0.000000000  0.333333343  0.238171124
     0.333333313  0.333333343  0.238171124
     0.666666687  0.333333343  0.238171124
     0.000000000  0.666666687  0.238171124
     0.333333313  0.666666687  0.238171124
     0.666666627  0.666666687  0.238171124
     0.111111104  0.111111112  0.346057051
     0.444444448  0.111111112  0.346057051
     0.777777791  0.111111112  0.346057051
     0.111111097  0.444444448  0.346057051
     0.444444418  0.444444448  0.346057051
     0.777777791  0.444444448  0.346057051
     0.111111104  0.777777791  0.346057051
     0.444444448  0.777777791  0.346057051
     0.777777791  0.777777791  0.346057051
     0.888714883  0.222570249  0.453663014
     0.223066128  0.223066143  0.452714222
     0.553867683  0.223066143  0.452714222
     0.888483964  0.555758048  0.453313683
     0.223066143  0.553867743  0.452714222
     0.555758048  0.555758048  0.453313683
     0.888714883  0.888714883  0.453663014
     0.222570219  0.888714883  0.453663014
     0.555757988  0.888483964  0.453313683
     0.000000000  0.000000000  0.560253222
     0.333276683  0.007879607  0.560847750
     0.658843650  0.007879607  0.560847750
     0.007879607  0.333276713  0.560847750
     0.658843710  0.333276713  0.560847750
     0.007879607  0.658843710  0.560847750
     0.333276683  0.658843710  0.560847750
     0.666666627  0.666666687  0.560223949
     0.333333313  0.333333343  0.548724862

  ion indices of the primitive-cell ions
   primitive index   ion index
                 1           1
                 2           2
                 3           3
                 4           4
                 5           5
                 6           6
                 7           7
                 8           8
                 9           9
                10          10
                11          11
                12          12
                13          13
                14          14
                15          15
                16          16
                17          17
                18          18
                19          19
                20          20
                21          21
                22          22
                23          23
                24          24
                25          25
                26          26
                27          27
                28          28
                29          29
                30          30
                31          31
                32          32
                33          33
                34          34
                35          35
                36          36

----------------------------------------------------------------------------------------

 
 
 KPOINTS: Automatic mesh                          

Automatic generation of k-mesh.
 Grid dimensions read from file:
 generate k-points for:    8    8    1

 Generating k-lattice:

  Cartesian coordinates                     Fractional coordinates (reciprocal lattice)
     0.014218495 -0.008209052  0.000000000     0.125000000  0.000000000  0.000000000
     0.000000000  0.016418104  0.000000000     0.000000000  0.125000000  0.000000000
     0.000000000  0.000000000  0.045089481     0.000000000  0.000000000  1.000000000

  Length of vectors
     0.016418104  0.016418104  0.045089481

  Shift w.r.t. Gamma in fractional coordinates (k-lattice)
     0.000000000  0.000000000  0.000000000

 TETIRR: Found     36 inequivalent tetrahedra from      384
 
 Subroutine IBZKPT returns following result:
 ===========================================
 
 Found     10 irreducible k-points:
 
 Following reciprocal coordinates:
            Coordinates               Weight
  0.000000  0.000000  0.000000      1.000000
  0.125000 -0.000000  0.000000      6.000000
  0.250000 -0.000000  0.000000      6.000000
  0.375000 -0.000000  0.000000      6.000000
  0.500000 -0.000000  0.000000      3.000000
  0.250000  0.125000  0.000000      6.000000
  0.375000  0.125000  0.000000     12.000000
  0.500000  0.125000  0.000000     12.000000
  0.500000  0.250000  0.000000      6.000000
 -0.375000  0.250000  0.000000      6.000000
 
 Following cartesian coordinates:
            Coordinates               Weight
  0.000000  0.000000  0.000000      1.000000
  0.014218 -0.008209  0.000000      6.000000
  0.028437 -0.016418  0.000000      6.000000
  0.042655 -0.024627  0.000000      6.000000
  0.056874 -0.032836  0.000000      3.000000
  0.028437 -0.000000  0.000000      6.000000
  0.042655 -0.008209  0.000000     12.000000
  0.056874 -0.016418  0.000000     12.000000
  0.056874 -0.000000  0.000000      6.000000
 -0.042655  0.057463  0.000000      6.000000
 


--------------------------------------------------------------------------------------------------------




 Dimension of arrays:
   k-points           NKPTS =     10   k-points in BZ     NKDIM =     10   number of bands    NBANDS=    252
   number of dos      NEDOS =    301   number of ions     NIONS =     36
   non local maximal  LDIM  =      6   non local SUM 2l+1 LMDIM =     18
   total plane-waves  NPLWV = 290304
   max r-space proj   IRMAX =   2452   max aug-charges    IRDMAX=   9814
   dimension x,y,z NGX =    48 NGY =   48 NGZ =  126
   dimension x,y,z NGXF=    96 NGYF=   96 NGZF=  252
   support grid    NGXF=    96 NGYF=   96 NGZF=  252
   ions per type =              35   1
   NGX,Y,Z   is equivalent  to a cutoff of   9.08,  9.08,  9.44 a.u.
   NGXF,Y,Z  is equivalent  to a cutoff of  18.15, 18.15, 18.89 a.u.

 SYSTEM =  unknown system                          
 POSCAR =  Ag-Mn                                   

 Startparameter for this run:
   NWRITE =      2    write-flag & timer
   PREC   = normal    normal or accurate (medium, high low for compatibility)
   ISTART =      0    job   : 0-new  1-cont  2-samecut
   ICHARG =     11    charge: 1-file 2-atom 10-const
   ISPIN  =      1    spin polarized calculation?
   LNONCOLLINEAR =      F non collinear calculations
   LSORBIT =      F    spin-orbit coupling
   INIWAV =      1    electr: 0-lowe 1-rand  2-diag
   LASPH  =      F    aspherical Exc in radial PAW
   METAGGA=      F    non-selfconsistent MetaGGA calc.

 Electronic Relaxation 1
   ENCUT  =  500.0 eV  36.75 Ry    6.06 a.u.  16.03 16.03 40.44*2*pi/ulx,y,z
   ENINI  =  500.0     initial cutoff
   ENAUG  =  500.7 eV  augmentation charge cutoff
   NELM   =    150;   NELMIN=  2; NELMDL= -5     # of ELM steps 
   EDIFF  = 0.1E-04   stopping-criterion for ELM
   LREAL  =      T    real-space projection
   NLSPLINE    = F    spline interpolate recip. space projectors
   LCOMPAT=      F    compatible to vasp.4.4
   GGA_COMPAT  = T    GGA compatible to vasp.4.4-vasp.4.6
   LMAXPAW     = -100 max onsite density
   LMAXMIX     =    2 max onsite mixed and CHGCAR
   VOSKOWN=      0    Vosko Wilk Nusair interpolation
   ROPT   =   -0.00050  -0.00050
 Ionic relaxation
   EDIFFG = -.1E-01   stopping-criterion for IOM
   NSW    =      0    number of steps for IOM
   NBLOCK =      1;   KBLOCK =      1    inner block; outer block 
   IBRION =     -1    ionic relax: 0-MD 1-quasi-New 2-CG
   NFREE  =      1    steps in history (QN), initial steepest desc. (CG)
   ISIF   =      2    stress and relaxation
   IWAVPR =     10    prediction:  0-non 1-charg 2-wave 3-comb
   ISYM   =      2    0-nonsym 1-usesym 2-fastsym
   LCORR  =      T    Harris-Foulkes like correction to forces

   POTIM  = 0.5000    time-step for ionic-motion
   TEIN   =    0.0    initial temperature
   TEBEG  =    0.0;   TEEND  =   0.0 temperature during run
   SMASS  =  -3.00    Nose mass-parameter (am)
   estimated Nose-frequenzy (Omega)   =  0.10E-29 period in steps = 0.13E+47 mass=  -0.177E-26a.u.
   SCALEE = 1.0000    scale energy and forces
   NPACO  =    256;   APACO  = 16.0  distance and # of slots for P.C.
   PSTRESS=    0.0 pullay stress

  Mass of Ions in am
   POMASS = 107.87 54.94
  Ionic Valenz
   ZVAL   =  11.00  7.00
  Atomic Wigner-Seitz radii
   RWIGS  =  -1.00 -1.00
  virtual crystal weights 
   VCA    =   1.00  1.00
   NELECT =     392.0000    total number of electrons
   NUPDOWN=      -1.0000    fix difference up-down

 DOS related values:
   EMIN   =  10.00;   EMAX   =-10.00  energy-range for DOS
   EFERMI =   0.00
   ISMEAR =    -5;   SIGMA  =   0.10  broadening in eV -4-tet -1-fermi 0-gaus

 Electronic relaxation 2 (details)
   IALGO  =     68    algorithm
   LDIAG  =      T    sub-space diagonalisation (order eigenvalues)
   LSUBROT=      F    optimize rotation matrix (better conditioning)
   TURBO    =      0    0=normal 1=particle mesh
   IRESTART =      0    0=no restart 2=restart with 2 vectors
   NREBOOT  =      0    no. of reboots
   NMIN     =      0    reboot dimension
   EREF     =   0.00    reference energy to select bands
   IMIX   =      4    mixing-type and parameters
     AMIX     =   0.40;   BMIX     =  1.00
     AMIX_MAG =   1.60;   BMIX_MAG =  1.00
     AMIN     =   0.10
     WC   =   100.;   INIMIX=   1;  MIXPRE=   1;  MAXMIX= -45

 Intra band minimization:
   WEIMIN = 0.0000     energy-eigenvalue tresh-hold
   EBREAK =  0.99E-08  absolut break condition
   DEPER  =   0.30     relativ break condition  

   TIME   =   0.40     timestep for ELM

  volume/ion in A,a.u.               =      41.23       278.27
  Fermi-wavevector in a.u.,A,eV,Ry     =   1.050302  1.984783 15.009049  1.103134
  Thomas-Fermi vector in A             =   2.185299
 
 Write flags
   LWAVE        =      F    write WAVECAR
   LDOWNSAMPLE  =      F    k-point downsampling of WAVECAR
   LCHARG       =      F    write CHGCAR
   LVTOT        =      F    write LOCPOT, total local potential
   LVHAR        =      F    write LOCPOT, Hartree potential only
   LELF         =      F    write electronic localiz. function (ELF)
   LORBIT       =     10    0 simple, 1 ext, 2 COOP (PROOUT), +10 PAW based schemes


 Dipole corrections
   LMONO  =      F    monopole corrections only (constant potential shift)
   LDIPOL =      F    correct potential (dipole corrections)
   IDIPOL =      0    1-x, 2-y, 3-z, 4-all directions 
   EPSILON=  1.0000000 bulk dielectric constant

 Exchange correlation treatment:
   GGA     =    --    GGA type
   LEXCH   =     8    internal setting for exchange type
   VOSKOWN=      0    Vosko Wilk Nusair interpolation
   LHFCALC =     F    Hartree Fock is set to
   LHFONE  =     F    Hartree Fock one center treatment
   AEXX    =    0.0000 exact exchange contribution

 Linear response parameters
   LEPSILON=     F    determine dielectric tensor
   LRPA    =     F    only Hartree local field effects (RPA)
   LNABLA  =     F    use nabla operator in PAW spheres
   LVEL    =     F    velocity operator in full k-point grid
   LINTERFAST=   F  fast interpolation
   KINTER  =     0    interpolate to denser k-point grid
   CSHIFT  =0.1000    complex shift for real part using Kramers Kronig
   OMEGAMAX=  -1.0    maximum frequency
   DEG_THRESHOLD= 0.2000000E-02 threshold for treating states as degnerate
   RTIME   =   -0.100 relaxation time in fs
  (WPLASMAI=    0.000 imaginary part of plasma frequency in eV, 0.658/RTIME)
   DFIELD  = 0.0000000 0.0000000 0.0000000 field for delta impulse in time
 
 Orbital magnetization related:
   ORBITALMAG=     F  switch on orbital magnetization
   LCHIMAG   =     F  perturbation theory with respect to B field
   DQ        =  0.001000  dq finite difference perturbation B field
   LLRAUG    =     F  two centre corrections for induced B field



--------------------------------------------------------------------------------------------------------


 Static calculation
 charge density and potential remain constant during run
 non-spin polarized calculation
 RMM-DIIS sequential band-by-band and
  variant of blocked Davidson during initial phase
 perform sub-space diagonalisation
    before iterative eigenvector-optimisation
 no mixing
 using additional bands           56
 real space projection scheme for non local part
 use partial core corrections
 calculate Harris-corrections to forces 
   (improved forces if not selfconsistent)
 use gradient corrections 
 WARNING: stress and forces are not correct
  (second derivative of E(xc) not defined)
 use of overlap-Matrix (Vanderbilt PP)
 Fermi weights with tetrahedron method with Bloechl corrections


--------------------------------------------------------------------------------------------------------


  energy-cutoff  :      500.00
  volume of cell :     1484.46
      direct lattice vectors                 reciprocal lattice vectors
     8.791366577  0.000000000  0.000000000     0.113747958 -0.065672414  0.000000000
     4.395683289  7.613546790  0.000000000     0.000000000  0.131344829  0.000000000
     0.000000000  0.000000000 22.178121567     0.000000000  0.000000000  0.045089481

  length of vectors
     8.791366577  8.791366577 22.178121567     0.131344829  0.131344829  0.045089481


 
 k-points in units of 2pi/SCALE and weight: Automatic mesh                          
   0.00000000  0.00000000  0.00000000       0.016
   0.01421849 -0.00820905  0.00000000       0.094
   0.02843699 -0.01641810  0.00000000       0.094
   0.04265548 -0.02462716  0.00000000       0.094
   0.05687398 -0.03283621  0.00000000       0.047
   0.02843699 -0.00000000  0.00000000       0.094
   0.04265548 -0.00820905  0.00000000       0.188
   0.05687398 -0.01641810  0.00000000       0.188
   0.05687398 -0.00000000  0.00000000       0.094
  -0.04265548  0.05746336  0.00000000       0.094
 
 k-points in reciprocal lattice and weights: Automatic mesh                          
   0.00000000  0.00000000  0.00000000       0.016
   0.12500000 -0.00000000  0.00000000       0.094
   0.25000000 -0.00000000  0.00000000       0.094
   0.37500000 -0.00000000  0.00000000       0.094
   0.50000000 -0.00000000  0.00000000       0.047
   0.25000000  0.12500000  0.00000000       0.094
   0.37500000  0.12500000  0.00000000       0.188
   0.50000000  0.12500000  0.00000000       0.188
   0.50000000  0.25000000  0.00000000       0.094
  -0.37500000  0.25000000  0.00000000       0.094
 
 position of ions in fractional coordinates (direct lattice) 
   0.00000000  0.00000000  0.23817112
   0.33333331  0.00000000  0.23817112
   0.66666663  0.00000000  0.23817112
   0.00000000  0.33333334  0.23817112
   0.33333331  0.33333334  0.23817112
   0.66666669  0.33333334  0.23817112
   0.00000000  0.66666669  0.23817112
   0.33333331  0.66666669  0.23817112
   0.66666663  0.66666669  0.23817112
   0.11111110  0.11111111  0.34605705
   0.44444445  0.11111111  0.34605705
   0.77777779  0.11111111  0.34605705
   0.11111110  0.44444445  0.34605705
   0.44444442  0.44444445  0.34605705
   0.77777779  0.44444445  0.34605705
   0.11111110  0.77777779  0.34605705
   0.44444445  0.77777779  0.34605705
   0.77777779  0.77777779  0.34605705
   0.88871488  0.22257025  0.45366301
   0.22306613  0.22306614  0.45271422
   0.55386768  0.22306614  0.45271422
   0.88848396  0.55575805  0.45331368
   0.22306614  0.55386774  0.45271422
   0.55575805  0.55575805  0.45331368
   0.88871488  0.88871488  0.45366301
   0.22257022  0.88871488  0.45366301
   0.55575799  0.88848396  0.45331368
   0.00000000  0.00000000  0.56025322
   0.33327668  0.00787961  0.56084775
   0.65884365  0.00787961  0.56084775
   0.00787961  0.33327671  0.56084775
   0.65884371  0.33327671  0.56084775
   0.00787961  0.65884371  0.56084775
   0.33327668  0.65884371  0.56084775
   0.66666663  0.66666669  0.56022395
   0.33333331  0.33333334  0.54872486
 
 position of ions in cartesian coordinates  (Angst):
   0.00000000  0.00000000  5.28218814
   2.93045535  0.00000000  5.28218814
   5.86091070  0.00000000  5.28218814
   1.46522781  2.53784900  5.28218814
   4.39568315  2.53784900  5.28218814
   7.32613904  2.53784900  5.28218814
   2.93045562  5.07569801  5.28218814
   5.86091096  5.07569801  5.28218814
   8.79136632  5.07569801  5.28218814
   1.46522770  0.84594965  7.67489535
   4.39568332  0.84594965  7.67489535
   7.32613893  0.84594965  7.67489535
   2.93045542  3.38379860  7.67489535
   5.86091083  3.38379860  7.67489535
   8.79136671  3.38379860  7.67489535
   4.39568328  5.92164760  7.67489535
   7.32613890  5.92164760  7.67489535
  10.25659451  5.92164760  7.67489535
   8.79136665  1.69454901 10.06139347
   2.94158422  1.69832452 10.04035105
   5.84978196  1.69832452 10.04035105
  10.25392459  4.23128990 10.05364597
   4.39568342  4.21689798 10.04035105
   7.32880909  4.23128990 10.05364597
  11.71952748  6.76627235 10.06139347
   5.86320555  6.76627235 10.06139347
   8.79136631  6.76451423 10.05364597
   0.00000000  0.00000000 12.42536406
   2.96459375  0.05999176 12.43854957
   5.82677230  0.05999176 12.43854957
   1.53425139  2.53741785 12.43854957
   7.25711545  2.53741785 12.43854957
   2.96534080  5.01613741 12.43854957
   5.82602577  5.01613741 12.43854957
   8.79136632  5.07569801 12.42471485
   4.39568315  2.53784900 12.16968670
 


--------------------------------------------------------------------------------------------------------


 k-point   1 :   0.0000 0.0000 0.0000  plane waves:   37683
 k-point   2 :   0.1250-0.0000 0.0000  plane waves:   37658
 k-point   3 :   0.2500-0.0000 0.0000  plane waves:   37682
 k-point   4 :   0.3750-0.0000 0.0000  plane waves:   37686
 k-point   5 :   0.5000-0.0000 0.0000  plane waves:   37668
 k-point   6 :   0.2500 0.1250 0.0000  plane waves:   37666
 k-point   7 :   0.3750 0.1250 0.0000  plane waves:   37708
 k-point   8 :   0.5000 0.1250 0.0000  plane waves:   37726
 k-point   9 :   0.5000 0.2500 0.0000  plane waves:   37706
 k-point  10 :  -0.3750 0.2500 0.0000  plane waves:   37686

 maximum and minimum number of plane-waves per node :     37726    37658

 maximum number of plane-waves:     37726
 maximum index in each direction: 
   IXMAX=   16   IYMAX=   16   IZMAX=   40
   IXMIN=  -16   IYMIN=  -16   IZMIN=  -40


 serial   3D FFT for wavefunctions
 parallel 3D FFT for charge:
    minimum data exchange during FFTs selected (reduces bandwidth)


 total amount of memory used by VASP MPI-rank0   122005. kBytes
=======================================================================

   base      :      30000. kBytes
   nonlr-proj:      14699. kBytes
   fftplans  :       4330. kBytes
   grid      :      17098. kBytes
   one-center:        559. kBytes
   wavefun   :      55319. kBytes
 
     INWAV:  cpu time    0.0001: real time    0.0001
 initial charge density was supplied:
 number of electron     391.9999980 magnetization 
 keeping initial charge density in first step


--------------------------------------------------------------------------------------------------------


 Maximum index for non-local projection operator         2350
 Maximum index for augmentation-charges          703 (set IRDMAX)


--------------------------------------------------------------------------------------------------------


 First call to EWALD:  gamma=   0.155
 Maximum number of real-space cells 4x 4x 2
 Maximum number of reciprocal cells 2x 2x 5

    FEWALD:  cpu time    0.0014: real time    0.0014


--------------------------------------- Iteration      1(   1)  ---------------------------------------


    POTLOK:  cpu time    0.0583: real time    0.0588
    SETDIJ:  cpu time    0.0049: real time    0.0050
     EDDAV:  cpu time    9.5091: real time    9.5540
 BZINTS: Fermi energy:    9.477001;  392.000000 electrons
         Band energy: 0.122811E+04;  BLOECHL correction:   -0.009376
       DOS:  cpu time    0.0105: real time    0.0105
    --------------------------------------------
      LOOP:  cpu time    9.5828: real time    9.6284

 eigenvalue-minimisations  :  5040
 total energy-change (2. order) : 0.2402332E+04  (-0.1797959E+05)
 number of electron     391.9999980 magnetization 
 augmentation part      391.9999980 magnetization 

 Free energy of the ion-electron system (eV)
  ---------------------------------------------------
  alpha Z        PSCENC =       735.49963043
  Ewald energy   TEWEN  =     97753.75175466
  -Hartree energ DENC   =   -135184.39284250
  -exchange      EXHF   =         0.00000000
  -V(xc)+E(xc)   XCENC  =      -402.44012500
  PAW double counting   =     38732.54415356   -37181.67203115
  entropy T*S    EENTRO =         0.00000000
  eigenvalues    EBANDS =      1228.10849755
  atomic energy  EATOM  =     36720.93253507
  Solvation  Ediel_sol  =         0.00000000
  ---------------------------------------------------
  free energy    TOTEN  =      2402.33157260 eV

  energy without entropy =     2402.33157260  energy(sigma->0) =     2402.33157260


--------------------------------------------------------------------------------------------------------




--------------------------------------- Iteration      1(   2)  ---------------------------------------


     EDDAV:  cpu time    8.3367: real time    8.3492
 BZINTS: Fermi energy:    1.390354;  392.000000 electrons
         Band energy:-0.118432E+04;  BLOECHL correction:   -0.016667
       DOS:  cpu time    0.0116: real time    0.0116
    --------------------------------------------
      LOOP:  cpu time    8.3483: real time    8.3608

 eigenvalue-minimisations  :  5040
 total energy-change (2. order) :-0.2412432E+04  (-0.2281855E+04)
 number of electron     391.9999980 magnetization 
 augmentation part      391.9999980 magnetization 

 Free energy of the ion-electron system (eV)
  ---------------------------------------------------
  alpha Z        PSCENC =       735.49963043
  Ewald energy   TEWEN  =     97753.75175466
  -Hartree energ DENC   =   -135184.39284250
  -exchange      EXHF   =         0.00000000
  -V(xc)+E(xc)   XCENC  =      -402.44012500
  PAW double counting   =     38732.54415356   -37181.67203115
  entropy T*S    EENTRO =         0.00000000
  eigenvalues    EBANDS =     -1184.32358825
  atomic energy  EATOM  =     36720.93253507
  Solvation  Ediel_sol  =         0.00000000
  ---------------------------------------------------
  free energy    TOTEN  =       -10.10051320 eV

  energy without entropy =      -10.10051320  energy(sigma->0) =      -10.10051320


--------------------------------------------------------------------------------------------------------




--------------------------------------- Iteration      1(   3)  ---------------------------------------


     EDDAV:  cpu time   12.4090: real time   12.4096
 BZINTS: Fermi energy:    0.797997;  392.000000 electrons
         Band energy:-0.126743E+04;  BLOECHL correction:   -0.019230
       DOS:  cpu time    0.0126: real time    0.0126
    --------------------------------------------
      LOOP:  cpu time   12.4217: real time   12.4222

 eigenvalue-minimisations  :  5768
 total energy-change (2. order) :-0.8311027E+02  (-0.8039946E+02)
 number of electron     391.9999980 magnetization 
 augmentation part      391.9999980 magnetization 

 Free energy of the ion-electron system (eV)
  ---------------------------------------------------
  alpha Z        PSCENC =       735.49963043
  Ewald energy   TEWEN  =     97753.75175466
  -Hartree energ DENC   =   -135184.39284250
  -exchange      EXHF   =         0.00000000
  -V(xc)+E(xc)   XCENC  =      -402.44012500
  PAW double counting   =     38732.54415356   -37181.67203115
  entropy T*S    EENTRO =         0.00000000
  eigenvalues    EBANDS =     -1267.43386096
  atomic energy  EATOM  =     36720.93253507
  Solvation  Ediel_sol  =         0.00000000
  ---------------------------------------------------
  free energy    TOTEN  =       -93.21078591 eV

  energy without entropy =      -93.21078591  energy(sigma->0) =      -93.21078591


--------------------------------------------------------------------------------------------------------




--------------------------------------- Iteration      1(   4)  ---------------------------------------


     EDDAV:  cpu time   12.5077: real time   12.5142
 BZINTS: Fermi energy:    0.787090;  392.000000 electrons
         Band energy:-0.126883E+04;  BLOECHL correction:   -0.018345
       DOS:  cpu time    0.0108: real time    0.0108
    --------------------------------------------
      LOOP:  cpu time   12.5185: real time   12.5250

 eigenvalue-minimisations  :  5936
 total energy-change (2. order) :-0.1391364E+01  (-0.1388755E+01)
 number of electron     391.9999980 magnetization 
 augmentation part      391.9999980 magnetization 

 Free energy of the ion-electron system (eV)
  ---------------------------------------------------
  alpha Z        PSCENC =       735.49963043
  Ewald energy   TEWEN  =     97753.75175466
  -Hartree energ DENC   =   -135184.39284250
  -exchange      EXHF   =         0.00000000
  -V(xc)+E(xc)   XCENC  =      -402.44012500
  PAW double counting   =     38732.54415356   -37181.67203115
  entropy T*S    EENTRO =         0.00000000
  eigenvalues    EBANDS =     -1268.82522448
  atomic energy  EATOM  =     36720.93253507
  Solvation  Ediel_sol  =         0.00000000
  ---------------------------------------------------
  free energy    TOTEN  =       -94.60214943 eV

  energy without entropy =      -94.60214943  energy(sigma->0) =      -94.60214943


--------------------------------------------------------------------------------------------------------




--------------------------------------- Iteration      1(   5)  ---------------------------------------


     EDDAV:  cpu time   13.5836: real time   13.5895
 BZINTS: Fermi energy:    0.786802;  392.000000 electrons
         Band energy:-0.126886E+04;  BLOECHL correction:   -0.018315
       DOS:  cpu time    0.0119: real time    0.0119
    --------------------------------------------
      LOOP:  cpu time   13.5956: real time   13.6041

 eigenvalue-minimisations  :  6524
 total energy-change (2. order) :-0.3498412E-01  (-0.3499159E-01)
 number of electron     391.9999980 magnetization 
 augmentation part      391.9999980 magnetization 

 Free energy of the ion-electron system (eV)
  ---------------------------------------------------
  alpha Z        PSCENC =       735.49963043
  Ewald energy   TEWEN  =     97753.75175466
  -Hartree energ DENC   =   -135184.39284250
  -exchange      EXHF   =         0.00000000
  -V(xc)+E(xc)   XCENC  =      -402.44012500
  PAW double counting   =     38732.54415356   -37181.67203115
  entropy T*S    EENTRO =         0.00000000
  eigenvalues    EBANDS =     -1268.86020860
  atomic energy  EATOM  =     36720.93253507
  Solvation  Ediel_sol  =         0.00000000
  ---------------------------------------------------
  free energy    TOTEN  =       -94.63713355 eV

  energy without entropy =      -94.63713355  energy(sigma->0) =      -94.63713355


--------------------------------------------------------------------------------------------------------




--------------------------------------- Iteration      1(   6)  ---------------------------------------


    EDDIAG:  cpu time    2.0841: real time    2.0870
  RMM-DIIS:  cpu time    6.5922: real time    6.5923
    ORTHCH:  cpu time    0.3424: real time    0.3424
 BZINTS: Fermi energy:    0.786798;  392.000000 electrons
         Band energy:-0.126886E+04;  BLOECHL correction:   -0.018314
       DOS:  cpu time    0.0116: real time    0.0116
    --------------------------------------------
      LOOP:  cpu time    9.0302: real time    9.0306

 eigenvalue-minimisations  :  5136
 total energy-change (2. order) :-0.8639059E-03  (-0.8642178E-03)
 number of electron     391.9999980 magnetization 
 augmentation part      391.9999980 magnetization 

 Free energy of the ion-electron system (eV)
  ---------------------------------------------------
  alpha Z        PSCENC =       735.49963043
  Ewald energy   TEWEN  =     97753.75175466
  -Hartree energ DENC   =   -135184.39284250
  -exchange      EXHF   =         0.00000000
  -V(xc)+E(xc)   XCENC  =      -402.44012500
  PAW double counting   =     38732.54415356   -37181.67203115
  entropy T*S    EENTRO =         0.00000000
  eigenvalues    EBANDS =     -1268.86107250
  atomic energy  EATOM  =     36720.93253507
  Solvation  Ediel_sol  =         0.00000000
  ---------------------------------------------------
  free energy    TOTEN  =       -94.63799745 eV

  energy without entropy =      -94.63799745  energy(sigma->0) =      -94.63799745


--------------------------------------------------------------------------------------------------------




--------------------------------------- Iteration      1(   7)  ---------------------------------------


    EDDIAG:  cpu time    2.0736: real time    2.0741
  RMM-DIIS:  cpu time    9.4484: real time    9.4710
    ORTHCH:  cpu time    0.3827: real time    0.3838
 BZINTS: Fermi energy:    0.786797;  392.000000 electrons
         Band energy:-0.126886E+04;  BLOECHL correction:   -0.018314
       DOS:  cpu time    0.0111: real time    0.0111
    --------------------------------------------
      LOOP:  cpu time   11.9157: real time   11.9400

 eigenvalue-minimisations  :  7403
 total energy-change (2. order) :-0.4658687E-03  (-0.4513599E-03)
 number of electron     391.9999980 magnetization 
 augmentation part      391.9999980 magnetization 

 Free energy of the ion-electron system (eV)
  ---------------------------------------------------
  alpha Z        PSCENC =       735.49963043
  Ewald energy   TEWEN  =     97753.75175466
  -Hartree energ DENC   =   -135184.39284250
  -exchange      EXHF   =         0.00000000
  -V(xc)+E(xc)   XCENC  =      -402.44012500
  PAW double counting   =     38732.54415356   -37181.67203115
  entropy T*S    EENTRO =         0.00000000
  eigenvalues    EBANDS =     -1268.86153837
  atomic energy  EATOM  =     36720.93253507
  Solvation  Ediel_sol  =         0.00000000
  ---------------------------------------------------
  free energy    TOTEN  =       -94.63846332 eV

  energy without entropy =      -94.63846332  energy(sigma->0) =      -94.63846332


--------------------------------------------------------------------------------------------------------




--------------------------------------- Iteration      1(   8)  ---------------------------------------


    EDDIAG:  cpu time    1.9799: real time    1.9801
  RMM-DIIS:  cpu time    8.5782: real time    8.5784
    ORTHCH:  cpu time    0.4057: real time    0.4058
 BZINTS: Fermi energy:    0.786797;  392.000000 electrons
         Band energy:-0.126886E+04;  BLOECHL correction:   -0.018314
       DOS:  cpu time    0.0113: real time    0.0113
    --------------------------------------------
      LOOP:  cpu time   10.9751: real time   10.9755

 eigenvalue-minimisations  :  6136
 total energy-change (2. order) :-0.5699883E-04  (-0.5672941E-04)
 number of electron     391.9999980 magnetization 
 augmentation part      391.9999980 magnetization 

 Free energy of the ion-electron system (eV)
  ---------------------------------------------------
  alpha Z        PSCENC =       735.49963043
  Ewald energy   TEWEN  =     97753.75175466
  -Hartree energ DENC   =   -135184.39284250
  -exchange      EXHF   =         0.00000000
  -V(xc)+E(xc)   XCENC  =      -402.44012500
  PAW double counting   =     38732.54415356   -37181.67203115
  entropy T*S    EENTRO =         0.00000000
  eigenvalues    EBANDS =     -1268.86159537
  atomic energy  EATOM  =     36720.93253507
  Solvation  Ediel_sol  =         0.00000000
  ---------------------------------------------------
  free energy    TOTEN  =       -94.63852032 eV

  energy without entropy =      -94.63852032  energy(sigma->0) =      -94.63852032


--------------------------------------------------------------------------------------------------------




--------------------------------------- Iteration      1(   9)  ---------------------------------------


    EDDIAG:  cpu time    2.3714: real time    2.3716
  RMM-DIIS:  cpu time    7.3960: real time    7.3966
    ORTHCH:  cpu time    0.4071: real time    0.4071
 BZINTS: Fermi energy:    0.786797;  392.000000 electrons
         Band energy:-0.126886E+04;  BLOECHL correction:   -0.018314
       DOS:  cpu time    0.0108: real time    0.0108
    --------------------------------------------
      LOOP:  cpu time   10.1854: real time   10.1861

 eigenvalue-minimisations  :  4589
 total energy-change (2. order) :-0.8536386E-05  (-0.8481940E-05)
 number of electron     391.9999980 magnetization 
 augmentation part      391.9999980 magnetization 

 Free energy of the ion-electron system (eV)
  ---------------------------------------------------
  alpha Z        PSCENC =       735.49963043
  Ewald energy   TEWEN  =     97753.75175466
  -Hartree energ DENC   =   -135184.39284250
  -exchange      EXHF   =         0.00000000
  -V(xc)+E(xc)   XCENC  =      -402.44012500
  PAW double counting   =     38732.54415356   -37181.67203115
  entropy T*S    EENTRO =         0.00000000
  eigenvalues    EBANDS =     -1268.86160391
  atomic energy  EATOM  =     36720.93253507
  Solvation  Ediel_sol  =         0.00000000
  ---------------------------------------------------
  free energy    TOTEN  =       -94.63852886 eV

  energy without entropy =      -94.63852886  energy(sigma->0) =      -94.63852886


--------------------------------------------------------------------------------------------------------




 average (electrostatic) potential at core
  the test charge radii are     1.1249  1.0210
  (the norm of the test charge is              1.0000)
       1 -78.1074       2 -78.0911       3 -78.0910       4 -78.0911       5 -78.0930
       6 -78.0908       7 -78.0910       8 -78.0908       9 -78.1044      10 -78.3319
      11 -78.3138      12 -78.3317      13 -78.3138      14 -78.3135      15 -78.3190
      16 -78.3317      17 -78.3190      18 -78.3191      19 -78.2969      20 -78.3460
      21 -78.3458      22 -78.2984      23 -78.3458      24 -78.2983      25 -78.2970
      26 -78.2969      27 -78.2984      28 -78.0706      29 -78.0584      30 -78.0585
      31 -78.0584      32 -78.0583      33 -78.0585      34 -78.0583      35 -78.0630
      36 -48.4948
 
 
 
 E-fermi :   0.7868     XC(G=0):  -5.8602     alpha+bet : -5.5258

 Fermi energy:         0.7867967293

 k-point     1 :       0.0000    0.0000    0.0000
  band No.  band energies     occupation 
      1      -6.3197      2.00000
      2      -5.4477      2.00000
      3      -5.1649      2.00000
      4      -5.0515      2.00000
      5      -5.0404      2.00000
      6      -5.0369      2.00000
      7      -5.0369      2.00000
      8      -5.0295      2.00000
      9      -5.0295      2.00000
     10      -5.0132      2.00000
     11      -4.9977      2.00000
     12      -4.9926      2.00000
     13      -4.9926      2.00000
     14      -4.9830      2.00000
     15      -4.9830      2.00000
     16      -4.9585      2.00000
     17      -4.8320      2.00000
     18      -4.8292      2.00000
     19      -4.8237      2.00000
     20      -4.8237      2.00000
     21      -4.8179      2.00000
     22      -4.8179      2.00000
     23      -4.6487      2.00000
     24      -4.6373      2.00000
     25      -4.6373      2.00000
     26      -4.6347      2.00000
     27      -4.6046      2.00000
     28      -4.6045      2.00000
     29      -4.6042      2.00000
     30      -4.6042      2.00000
     31      -4.5823      2.00000
     32      -4.5823      2.00000
     33      -4.5709      2.00000
     34      -4.5709      2.00000
     35      -4.4916      2.00000
     36      -4.4688      2.00000
     37      -4.4688      2.00000
     38      -4.4614      2.00000
     39      -4.3350      2.00000
     40      -4.3350      2.00000
     41      -4.2570      2.00000
     42      -4.2570      2.00000
     43      -4.2452      2.00000
     44      -4.2373      2.00000
     45      -4.2373      2.00000
     46      -4.2267      2.00000
     47      -4.2153      2.00000
     48      -4.2152      2.00000
     49      -4.1771      2.00000
     50      -4.1771      2.00000
     51      -4.0923      2.00000
     52      -4.0861      2.00000
     53      -4.0604      2.00000
     54      -4.0541      2.00000
     55      -3.8665      2.00000
     56      -3.8541      2.00000
     57      -3.8508      2.00000
     58      -3.8508      2.00000
     59      -3.8431      2.00000
     60      -3.8431      2.00000
     61      -3.8302      2.00000
     62      -3.8165      2.00000
     63      -3.8165      2.00000
     64      -3.7858      2.00000
     65      -3.7858      2.00000
     66      -3.6920      2.00000
     67      -3.6920      2.00000
     68      -3.6895      2.00000
     69      -3.6766      2.00000
     70      -3.6766      2.00000
     71      -3.6685      2.00000
     72      -3.6647      2.00000
     73      -3.6647      2.00000
     74      -3.6439      2.00000
     75      -3.6439      2.00000
     76      -3.6270      2.00000
     77      -3.6051      2.00000
     78      -3.6051      2.00000
     79      -3.5961      2.00000
     80      -3.5958      2.00000
     81      -3.5881      2.00000
     82      -3.5881      2.00000
     83      -3.5434      2.00000
     84      -3.5434      2.00000
     85      -3.4716      2.00000
     86      -3.4651      2.00000
     87      -3.4650      2.00000
     88      -3.4377      2.00000
     89      -3.4377      2.00000
     90      -3.4119      2.00000
     91      -3.4118      2.00000
     92      -3.3989      2.00000
     93      -3.3989      2.00000
     94      -3.3717      2.00000
     95      -3.3717      2.00000
     96      -3.3605      2.00000
     97      -3.3105      2.00000
     98      -3.3105      2.00000
     99      -3.1464      2.00000
    100      -3.1415      2.00000
    101      -3.1415      2.00000
    102      -3.1178      2.00000
    103      -3.1178      2.00000
    104      -3.1136      2.00000
    105      -3.0849      2.00000
    106      -3.0814      2.00000
    107      -3.0814      2.00000
    108      -3.0585      2.00000
    109      -3.0585      2.00000
    110      -3.0133      2.00000
    111      -3.0109      2.00000
    112      -2.9438      2.00000
    113      -2.9438      2.00000
    114      -2.9340      2.00000
    115      -2.8777      2.00000
    116      -2.8777      2.00000
    117      -2.8558      2.00000
    118      -2.8558      2.00000
    119      -2.8108      2.00000
    120      -2.8108      2.00000
    121      -2.7865      2.00000
    122      -2.7809      2.00000
    123      -2.7808      2.00000
    124      -2.7674      2.00000
    125      -2.7673      2.00000
    126      -2.7469      2.00000
    127      -2.7469      2.00000
    128      -2.7464      2.00000
    129      -2.7449      2.00000
    130      -2.7335      2.00000
    131      -2.7335      2.00000
    132      -2.7303      2.00000
    133      -2.6141      2.00000
    134      -2.6141      2.00000
    135      -2.5619      2.00000
    136      -2.5545      2.00000
    137      -2.5545      2.00000
    138      -2.5455      2.00000
    139      -2.5454      2.00000
    140      -2.5350      2.00000
    141      -2.5309      2.00000
    142      -2.5309      2.00000
    143      -2.5216      2.00000
    144      -2.5216      2.00000
    145      -2.5029      2.00000
    146      -2.5029      2.00000
    147      -2.4636      2.00000
    148      -2.4501      2.00000
    149      -2.4445      2.00000
    150      -2.4445      2.00000
    151      -2.4386      2.00000
    152      -2.4358      2.00000
    153      -2.4358      2.00000
    154      -2.4168      2.00000
    155      -2.3962      2.00000
    156      -2.3962      2.00000
    157      -2.3728      2.00000
    158      -2.3717      2.00000
    159      -2.3717      2.00000
    160      -2.3529      2.00000
    161      -2.3478      2.00000
    162      -2.3473      2.00000
    163      -2.3473      2.00000
    164      -2.3359      2.00000
    165      -2.3031      2.00000
    166      -2.2997      2.00000
    167      -2.2997      2.00000
    168      -2.2801      2.00000
    169      -2.2801      2.00000
    170      -2.2636      2.00000
    171      -2.2371      2.00000
    172      -2.2370      2.00000
    173      -2.1807      2.00000
    174      -2.1807      2.00000
    175      -2.1526      2.00000
    176      -2.1525      2.00000
    177      -2.1421      2.00000
    178      -2.1262      2.00000
    179      -2.0819      2.00000
    180      -2.0448      2.00000
    181      -2.0447      2.00000
    182      -2.0403      2.00000
    183      -2.0402      2.00000
    184      -2.0368      2.00000
    185      -1.3039      2.00000
    186      -1.3039      2.00000
    187      -1.2746      2.00000
    188      -1.2745      2.00000
    189      -1.2696      2.00000
    190      -1.2012      2.00000
    191      -0.0698      2.00000
    192       0.2640      2.00000
    193       0.3134      2.00000
    194       0.3134      2.00000
    195       0.4004      2.00000
    196       0.4005      2.00000
    197       0.4682      2.00000
    198       0.7616      2.00000
    199       0.7616      1.35154
    200       0.8449      0.00000
    201       0.8449      0.00000
    202       1.0429      0.00000
    203       1.1991      0.00000
    204       2.6792      0.00000
    205       2.7214      0.00000
    206       2.7214      0.00000
    207       2.7720      0.00000
    208       2.8271      0.00000
    209       2.8271      0.00000
    210       4.0643      0.00000
    211       4.0846      0.00000
    212       4.2271      0.00000
    213       4.2271      0.00000
    214       4.2474      0.00000
    215       4.2474      0.00000
    216       4.9248      0.00000
    217       5.0023      0.00000
    218       5.0024      0.00000
    219       5.0373      0.00000
    220       5.0464      0.00000
    221       5.0484      0.00000
    222       5.0484      0.00000
    223       5.0713      0.00000
    224       5.0713      0.00000
    225       5.1046      0.00000
    226       5.1046      0.00000
    227       5.1436      0.00000
    228       5.3438      0.00000
    229       5.4066      0.00000
    230       6.4622      0.00000
    231       6.6292      0.00000
    232       6.6292      0.00000
    233       6.6449      0.00000
    234       6.6802      0.00000
    235       6.6802      0.00000
    236       6.8380      0.00000
    237       6.8565      0.00000
    238       6.9867      0.00000
    239       6.9868      0.00000
    240       7.0114      0.00000
    241       7.0114      0.00000
    242       7.0202      0.00000
    243       7.0942      0.00000
    244       7.2991      0.00000
    245       7.3009      0.00000
    246       7.3169      0.00000
    247       7.3576      0.00000
    248       7.3598      0.00000
    249       7.3675      0.00000
    250       7.7133      0.00000
    251       7.7156      0.00000
    252       7.7246      0.00000

 k-point     2 :       0.1250   -0.0000    0.0000
  band No.  band energies     occupation 
      1      -6.2737      2.00000
      2      -5.4072      2.00000
      3      -5.1327      2.00000
      4      -5.0963      2.00000
      5      -5.0653      2.00000
      6      -5.0419      2.00000
      7      -5.0338      2.00000
      8      -5.0331      2.00000
      9      -5.0149      2.00000
     10      -5.0061      2.00000
     11      -5.0027      2.00000
     12      -4.9928      2.00000
     13      -4.9439      2.00000
     14      -4.9294      2.00000
     15      -4.9186      2.00000
     16      -4.9183      2.00000
     17      -4.9019      2.00000
     18      -4.8716      2.00000
     19      -4.8686      2.00000
     20      -4.7661      2.00000
     21      -4.7576      2.00000
     22      -4.7147      2.00000
     23      -4.7068      2.00000
     24      -4.6938      2.00000
     25      -4.6928      2.00000
     26      -4.6474      2.00000
     27      -4.6386      2.00000
     28      -4.5981      2.00000
     29      -4.5932      2.00000
     30      -4.5716      2.00000
     31      -4.5583      2.00000
     32      -4.5520      2.00000
     33      -4.5197      2.00000
     34      -4.4892      2.00000
     35      -4.4875      2.00000
     36      -4.4648      2.00000
     37      -4.4488      2.00000
     38      -4.3975      2.00000
     39      -4.3263      2.00000
     40      -4.3252      2.00000
     41      -4.3128      2.00000
     42      -4.3095      2.00000
     43      -4.2934      2.00000
     44      -4.2569      2.00000
     45      -4.2561      2.00000
     46      -4.2548      2.00000
     47      -4.2381      2.00000
     48      -4.1929      2.00000
     49      -4.1676      2.00000
     50      -4.1462      2.00000
     51      -4.0743      2.00000
     52      -4.0693      2.00000
     53      -4.0465      2.00000
     54      -4.0399      2.00000
     55      -3.8848      2.00000
     56      -3.8809      2.00000
     57      -3.8714      2.00000
     58      -3.8563      2.00000
     59      -3.8481      2.00000
     60      -3.8460      2.00000
     61      -3.8375      2.00000
     62      -3.8226      2.00000
     63      -3.8147      2.00000
     64      -3.8029      2.00000
     65      -3.7685      2.00000
     66      -3.7361      2.00000
     67      -3.7064      2.00000
     68      -3.7047      2.00000
     69      -3.7012      2.00000
     70      -3.6990      2.00000
     71      -3.6687      2.00000
     72      -3.6639      2.00000
     73      -3.6594      2.00000
     74      -3.6531      2.00000
     75      -3.6424      2.00000
     76      -3.6343      2.00000
     77      -3.6192      2.00000
     78      -3.6138      2.00000
     79      -3.6027      2.00000
     80      -3.5904      2.00000
     81      -3.5770      2.00000
     82      -3.5716      2.00000
     83      -3.5632      2.00000
     84      -3.5426      2.00000
     85      -3.5332      2.00000
     86      -3.5311      2.00000
     87      -3.5187      2.00000
     88      -3.4779      2.00000
     89      -3.4763      2.00000
     90      -3.4243      2.00000
     91      -3.4210      2.00000
     92      -3.3869      2.00000
     93      -3.3734      2.00000
     94      -3.3104      2.00000
     95      -3.2874      2.00000
     96      -3.2839      2.00000
     97      -3.2622      2.00000
     98      -3.2574      2.00000
     99      -3.2067      2.00000
    100      -3.1943      2.00000
    101      -3.1731      2.00000
    102      -3.1712      2.00000
    103      -3.1380      2.00000
    104      -3.1268      2.00000
    105      -3.1204      2.00000
    106      -3.0987      2.00000
    107      -3.0788      2.00000
    108      -3.0517      2.00000
    109      -3.0424      2.00000
    110      -3.0249      2.00000
    111      -3.0082      2.00000
    112      -2.9631      2.00000
    113      -2.9610      2.00000
    114      -2.9397      2.00000
    115      -2.9308      2.00000
    116      -2.9118      2.00000
    117      -2.8992      2.00000
    118      -2.8843      2.00000
    119      -2.8693      2.00000
    120      -2.8677      2.00000
    121      -2.8398      2.00000
    122      -2.8382      2.00000
    123      -2.8231      2.00000
    124      -2.8165      2.00000
    125      -2.8056      2.00000
    126      -2.7804      2.00000
    127      -2.7687      2.00000
    128      -2.7512      2.00000
    129      -2.7490      2.00000
    130      -2.7267      2.00000
    131      -2.7228      2.00000
    132      -2.7084      2.00000
    133      -2.6974      2.00000
    134      -2.6784      2.00000
    135      -2.6688      2.00000
    136      -2.6407      2.00000
    137      -2.6298      2.00000
    138      -2.6154      2.00000
    139      -2.5996      2.00000
    140      -2.5737      2.00000
    141      -2.5546      2.00000
    142      -2.5450      2.00000
    143      -2.5310      2.00000
    144      -2.5281      2.00000
    145      -2.5040      2.00000
    146      -2.4903      2.00000
    147      -2.4809      2.00000
    148      -2.4719      2.00000
    149      -2.4717      2.00000
    150      -2.4603      2.00000
    151      -2.4587      2.00000
    152      -2.4526      2.00000
    153      -2.4271      2.00000
    154      -2.4250      2.00000
    155      -2.4143      2.00000
    156      -2.4110      2.00000
    157      -2.3943      2.00000
    158      -2.3899      2.00000
    159      -2.3844      2.00000
    160      -2.3666      2.00000
    161      -2.3582      2.00000
    162      -2.3541      2.00000
    163      -2.3345      2.00000
    164      -2.3156      2.00000
    165      -2.3045      2.00000
    166      -2.2936      2.00000
    167      -2.2703      2.00000
    168      -2.2641      2.00000
    169      -2.2477      2.00000
    170      -2.2458      2.00000
    171      -2.2115      2.00000
    172      -2.1988      2.00000
    173      -2.1964      2.00000
    174      -2.1770      2.00000
    175      -2.1761      2.00000
    176      -2.1645      2.00000
    177      -2.1495      2.00000
    178      -2.1342      2.00000
    179      -2.1272      2.00000
    180      -2.1095      2.00000
    181      -2.1037      2.00000
    182      -1.8325      2.00000
    183      -1.5965      2.00000
    184      -1.5962      2.00000
    185      -1.5001      2.00000
    186      -1.4949      2.00000
    187      -1.3304      2.00000
    188      -0.8820      2.00000
    189      -0.8157      2.00000
    190      -0.5536      2.00000
    191      -0.1406      2.00000
    192      -0.0127      2.00000
    193       0.1364      2.00000
    194       0.1623      2.00000
    195       0.5304      2.00000
    196       0.5559      2.00000
    197       0.6954      2.00000
    198       0.7697      2.01525
    199       0.8169     -0.01770
    200       0.9854      0.00000
    201       1.0081      0.00000
    202       1.2343      0.00000
    203       1.2980      0.00000
    204       2.2193      0.00000
    205       2.5036      0.00000
    206       2.5479      0.00000
    207       3.0610      0.00000
    208       3.0859      0.00000
    209       3.1807      0.00000
    210       3.1812      0.00000
    211       3.3083      0.00000
    212       4.0401      0.00000
    213       4.0461      0.00000
    214       4.2894      0.00000
    215       4.3056      0.00000
    216       4.3927      0.00000
    217       4.7680      0.00000
    218       4.7781      0.00000
    219       4.9655      0.00000
    220       5.0494      0.00000
    221       5.0736      0.00000
    222       5.0929      0.00000
    223       5.2446      0.00000
    224       5.2579      0.00000
    225       5.4111      0.00000
    226       5.4279      0.00000
    227       5.5653      0.00000
    228       5.7043      0.00000
    229       5.7299      0.00000
    230       6.1544      0.00000
    231       6.3641      0.00000
    232       6.3836      0.00000
    233       6.5023      0.00000
    234       6.5731      0.00000
    235       6.6539      0.00000
    236       6.6659      0.00000
    237       6.6835      0.00000
    238       6.7575      0.00000
    239       6.7695      0.00000
    240       6.8277      0.00000
    241       6.8712      0.00000
    242       7.0077      0.00000
    243       7.0637      0.00000
    244       7.2888      0.00000
    245       7.2896      0.00000
    246       7.3212      0.00000
    247       7.3616      0.00000
    248       7.3769      0.00000
    249       7.3886      0.00000
    250       7.7622      0.00000
    251       7.7883      0.00000
    252       7.8226      0.00000

 k-point     3 :       0.2500   -0.0000    0.0000
  band No.  band energies     occupation 
      1      -6.1384      2.00000
      2      -5.2912      2.00000
      3      -5.1652      2.00000
      4      -5.1369      2.00000
      5      -5.1103      2.00000
      6      -5.0382      2.00000
      7      -5.0157      2.00000
      8      -4.9995      2.00000
      9      -4.9978      2.00000
     10      -4.9824      2.00000
     11      -4.9722      2.00000
     12      -4.9354      2.00000
     13      -4.9237      2.00000
     14      -4.9004      2.00000
     15      -4.8916      2.00000
     16      -4.8423      2.00000
     17      -4.8325      2.00000
     18      -4.8038      2.00000
     19      -4.7969      2.00000
     20      -4.7892      2.00000
     21      -4.7829      2.00000
     22      -4.7542      2.00000
     23      -4.6987      2.00000
     24      -4.6886      2.00000
     25      -4.6495      2.00000
     26      -4.6440      2.00000
     27      -4.6339      2.00000
     28      -4.6170      2.00000
     29      -4.6071      2.00000
     30      -4.5705      2.00000
     31      -4.5104      2.00000
     32      -4.5059      2.00000
     33      -4.4780      2.00000
     34      -4.4687      2.00000
     35      -4.4544      2.00000
     36      -4.4201      2.00000
     37      -4.3983      2.00000
     38      -4.3640      2.00000
     39      -4.3520      2.00000
     40      -4.3512      2.00000
     41      -4.3098      2.00000
     42      -4.3036      2.00000
     43      -4.2957      2.00000
     44      -4.2778      2.00000
     45      -4.2756      2.00000
     46      -4.2524      2.00000
     47      -4.2398      2.00000
     48      -4.1832      2.00000
     49      -4.1536      2.00000
     50      -4.1242      2.00000
     51      -4.1130      2.00000
     52      -4.0898      2.00000
     53      -4.0314      2.00000
     54      -4.0228      2.00000
     55      -3.9491      2.00000
     56      -3.9361      2.00000
     57      -3.9237      2.00000
     58      -3.9233      2.00000
     59      -3.9028      2.00000
     60      -3.8930      2.00000
     61      -3.8674      2.00000
     62      -3.8656      2.00000
     63      -3.8338      2.00000
     64      -3.7925      2.00000
     65      -3.7823      2.00000
     66      -3.7725      2.00000
     67      -3.7450      2.00000
     68      -3.7341      2.00000
     69      -3.7340      2.00000
     70      -3.7281      2.00000
     71      -3.7200      2.00000
     72      -3.7046      2.00000
     73      -3.6913      2.00000
     74      -3.6895      2.00000
     75      -3.6416      2.00000
     76      -3.6283      2.00000
     77      -3.6259      2.00000
     78      -3.6187      2.00000
     79      -3.6065      2.00000
     80      -3.6006      2.00000
     81      -3.5957      2.00000
     82      -3.5707      2.00000
     83      -3.5531      2.00000
     84      -3.5522      2.00000
     85      -3.5376      2.00000
     86      -3.5324      2.00000
     87      -3.5020      2.00000
     88      -3.4996      2.00000
[...]
  0.000   0.000   0.000   2.000   0.000   0.000   0.000   0.000   0.000   0.000   0.000   0.000   0.000   0.000   0.000   0.000
  0.000   0.000   0.000   0.000   2.000   0.000   0.000   0.000   0.000   0.000   0.000   0.000   0.000   0.000   0.000   0.000
  0.000   0.000   0.000   0.000   0.000   0.000   0.000   0.000   0.000   0.000   0.000   0.000   0.000   0.000   0.000   0.000
  0.000   0.000   0.000   0.000   0.000   0.000   0.000   0.000   0.000   0.000   0.000   0.000   0.000   0.000   0.000   0.000
  0.000   0.000   0.000   0.000   0.000   0.000   0.000   0.000   0.000   0.000   0.000   0.000   0.000   0.000   0.000   0.000
  0.000   0.000   0.000   0.000   0.000   0.000   0.000   0.000   0.000   0.000   0.000   0.000   0.000   0.000   0.000   0.000
  0.000   0.000   0.000   0.000   0.000   0.000   0.000   0.000   0.000   0.000   0.000   0.000   0.000   0.000   0.000   0.000
  0.000   0.000   0.000   0.000   0.000   0.000   0.000   0.000   0.000   0.000   1.000   0.000   0.000   0.000   0.000   0.000
  0.000   0.000   0.000   0.000   0.000   0.000   0.000   0.000   0.000   0.000   0.000   0.000   0.000   0.000   0.000   0.000
  0.000   0.000   0.000   0.000   0.000   0.000   0.000   0.000   0.000   0.000   0.000   0.000   0.000   0.000   0.000   0.000
  0.000   0.000   0.000   0.000   0.000   0.000   0.000   0.000   0.000   0.000   0.000   0.000   0.000   0.000   0.000   0.000
  0.000   0.000   0.000   0.000   0.000   0.000   0.000   0.000   0.000   0.000   0.000   0.000   0.000   0.000   0.000   0.000
  0.000   0.000   0.000   0.000   0.000   0.000   0.000   0.000   0.000   0.000   0.000   0.000   0.000   0.000   0.000   0.000
  0.000   0.000   0.000   0.000   0.000   0.000   0.000   0.000   0.000   0.000   0.000   0.000   0.000   0.000   0.000   0.000
  0.000   0.000   0.000   0.000   0.000   0.000   0.000   0.000   0.000   0.000   0.000   0.000   0.000   0.000   0.000   0.000


------------------------ aborting loop because EDIFF is reached ----------------------------------------





 total charge

# of ion       s       p       d       tot
------------------------------------------
    1        0.419   0.201   9.177   9.797
    2        0.416   0.203   9.177   9.797
    3        0.416   0.203   9.177   9.797
    4        0.416   0.203   9.177   9.797
    5        0.417   0.203   9.175   9.796
    6        0.416   0.203   9.177   9.797
    7        0.416   0.203   9.177   9.797
    8        0.416   0.203   9.177   9.797
    9        0.416   0.201   9.178   9.795
   10        0.408   0.268   9.162   9.838
   11        0.407   0.268   9.168   9.842
   12        0.408   0.268   9.162   9.838
   13        0.407   0.268   9.168   9.842
   14        0.407   0.268   9.168   9.842
   15        0.405   0.268   9.166   9.838
   16        0.408   0.268   9.162   9.838
   17        0.405   0.268   9.166   9.838
   18        0.405   0.268   9.166   9.838
   19        0.401   0.265   9.166   9.833
   20        0.425   0.298   9.144   9.867
   21        0.425   0.298   9.144   9.867
   22        0.398   0.273   9.167   9.837
   23        0.425   0.298   9.144   9.867
   24        0.398   0.273   9.167   9.837
   25        0.401   0.265   9.166   9.833
   26        0.401   0.265   9.166   9.833
   27        0.398   0.273   9.167   9.837
   28        0.412   0.197   9.178   9.786
   29        0.427   0.209   9.165   9.801
   30        0.427   0.209   9.165   9.801
   31        0.427   0.209   9.165   9.801
   32        0.427   0.209   9.165   9.801
   33        0.427   0.209   9.165   9.801
   34        0.427   0.209   9.165   9.801
   35        0.404   0.198   9.179   9.782
   36        0.279   0.158   5.091   5.528
--------------------------------------------------
tot         14.734   8.550 325.950 349.234
 
    CHARGE:  cpu time    0.7188: real time    0.7190
    FORLOC:  cpu time    0.0199: real time    0.0199
    FORNL :  cpu time    2.8874: real time    2.8878
    STRESS:  cpu time    7.7782: real time    7.7864
    FORCOR:  cpu time    0.0787: real time    0.0788
    FORHAR:  cpu time    0.0231: real time    0.0232
    OFIELD:  cpu time    0.0004: real time    0.0004

  FORCE on cell =-STRESS in cart. coord.  units (eV):
  Direction    XX          YY          ZZ          XY          YZ          ZX
  --------------------------------------------------------------------------------------
  Alpha Z   735.49963   735.49963   735.49963
  Ewald  120317.97582120317.97576************     0.00000    -0.00000    -0.00002
  Hartree130412.33066130412.33063************    -0.00000    -0.00000    -0.00001
  E(xc)   -2060.54289 -2060.54288 -2066.31174    -0.00001     0.00000     0.00000
  Local  ************************262083.66668     0.00022    -0.00003    -0.00004
  n-local  -353.77500  -335.90630  -348.76210     9.92720    -0.37120     0.17012
  augment  3248.09796  3248.09806  3259.23475    -0.00009     0.00004     0.00007
  Kinetic  4826.70587  4835.47833  4862.68381     6.12693     0.69434     0.35985
  Fock        0.00000     0.00000     0.00000     0.00000     0.00000     0.00000
  -------------------------------------------------------------------------------------
  Total     -10.15418   -10.15418    -0.07363    -0.00000    -0.00000     0.00000
  in kB     -10.95941   -10.95941    -0.07947    -0.00000    -0.00000     0.00000
  external pressure =       -7.33 kB  Pullay stress =        0.00 kB


 VOLUME and BASIS-vectors are now :
 -----------------------------------------------------------------------------
  energy-cutoff  :      500.00
  volume of cell :     1484.46
      direct lattice vectors                 reciprocal lattice vectors
     8.791366577  0.000000000  0.000000000     0.113747958 -0.065672414  0.000000000
     4.395683289  7.613546790  0.000000000     0.000000000  0.131344829  0.000000000
     0.000000000  0.000000000 22.178121567     0.000000000  0.000000000  0.045089481

  length of vectors
     8.791366577  8.791366577 22.178121567     0.131344829  0.131344829  0.045089481


 FORCES acting on ions
    electron-ion (+dipol)            ewald-force                    non-local-force                 convergence-correction
 -----------------------------------------------------------------------------------------------
   0.460E-04 -.282E-04 0.249E+04   -.954E-04 0.593E-04 -.249E+04   -.657E-17 0.324E-17 -.195E+01   -.105E-03 -.167E-03 0.148E+00
   0.206E+00 0.263E+00 0.249E+04   -.310E+00 -.203E+00 -.249E+04   0.692E-01 0.508E-01 -.156E+01   0.302E-01 -.104E+00 0.167E+00
   -.206E+00 0.263E+00 0.249E+04   0.310E+00 -.203E+00 -.249E+04   -.692E-01 0.508E-01 -.156E+01   -.308E-01 -.102E+00 0.168E+00
   0.330E+00 0.468E-01 0.249E+04   -.331E+00 -.167E+00 -.249E+04   0.786E-01 0.346E-01 -.156E+01   -.745E-01 0.782E-01 0.167E+00
   -.772E-05 -.199E-04 0.249E+04   0.981E-04 -.200E-05 -.249E+04   0.222E-17 -.217E-17 -.141E+01   0.624E-02 0.381E-02 0.217E+00
   -.330E+00 0.468E-01 0.249E+04   0.330E+00 -.167E+00 -.249E+04   -.786E-01 0.346E-01 -.156E+01   0.731E-01 0.791E-01 0.168E+00
   0.125E+00 -.310E+00 0.249E+04   -.211E-01 0.370E+00 -.249E+04   0.936E-02 -.854E-01 -.156E+01   -.103E+00 0.248E-01 0.168E+00
   -.125E+00 -.310E+00 0.249E+04   0.210E-01 0.369E+00 -.249E+04   -.936E-02 -.854E-01 -.156E+01   0.105E+00 0.238E-01 0.168E+00
   0.365E-04 -.131E-04 0.249E+04   0.792E-04 -.642E-04 -.249E+04   0.493E-18 -.603E-18 -.173E+01   -.666E-02 -.343E-02 0.775E-01
   0.278E+01 0.161E+01 0.809E+03   -.238E+01 -.137E+01 -.808E+03   -.300E+00 -.173E+00 -.780E+00   -.812E-01 -.469E-01 -.495E-01
   -.289E-04 0.272E+01 0.813E+03   0.413E-04 -.277E+01 -.813E+03   0.696E-12 0.106E+00 -.358E+00   0.628E-02 -.809E-01 -.854E-01
   -.278E+01 0.161E+01 0.809E+03   0.238E+01 -.137E+01 -.808E+03   0.300E+00 -.173E+00 -.780E+00   0.797E-01 -.458E-01 -.497E-01
   0.235E+01 -.136E+01 0.813E+03   -.240E+01 0.139E+01 -.813E+03   0.918E-01 -.530E-01 -.358E+00   -.670E-01 0.459E-01 -.854E-01
   -.235E+01 -.136E+01 0.813E+03   0.240E+01 0.139E+01 -.813E+03   -.918E-01 -.530E-01 -.358E+00   0.777E-01 0.451E-01 -.862E-01
   0.159E-04 0.129E+01 0.811E+03   -.108E-03 -.145E+01 -.810E+03   0.535E-12 0.814E-01 -.693E+00   -.163E-02 0.607E-01 -.552E-01
   -.818E-05 -.321E+01 0.809E+03   0.207E-04 0.275E+01 -.808E+03   0.228E-11 0.347E+00 -.780E+00   0.123E-03 0.918E-01 -.497E-01
   0.111E+01 -.643E+00 0.811E+03   -.125E+01 0.724E+00 -.810E+03   0.705E-01 -.407E-01 -.693E+00   0.517E-01 -.318E-01 -.552E-01
   -.111E+01 -.643E+00 0.811E+03   0.125E+01 0.724E+00 -.810E+03   -.705E-01 -.407E-01 -.693E+00   -.517E-01 -.299E-01 -.546E-01
   0.404E-04 -.112E+01 -.889E+03   -.126E-03 0.103E+01 0.888E+03   0.473E-12 0.720E-01 0.623E+00   -.131E-03 0.194E-01 -.104E-01
   0.248E+01 0.143E+01 -.882E+03   -.116E+01 -.670E+00 0.883E+03   -.108E+01 -.624E+00 -.862E+00   -.228E+00 -.132E+00 -.144E+00
   -.248E+01 0.143E+01 -.882E+03   0.116E+01 -.670E+00 0.883E+03   0.108E+01 -.624E+00 -.862E+00   0.228E+00 -.131E+00 -.144E+00
   -.255E+01 0.147E+01 -.881E+03   0.233E+01 -.135E+01 0.881E+03   0.243E+00 -.141E+00 0.381E+00   -.358E-01 0.211E-01 -.590E-01
   -.563E-04 -.287E+01 -.882E+03   0.408E-04 0.134E+01 0.883E+03   0.819E-11 0.125E+01 -.862E+00   0.762E-03 0.264E+00 -.144E+00
   0.255E+01 0.147E+01 -.881E+03   -.233E+01 -.135E+01 0.881E+03   -.243E+00 -.141E+00 0.381E+00   0.358E-01 0.208E-01 -.595E-01
   0.972E+00 0.561E+00 -.889E+03   -.893E+00 -.515E+00 0.888E+03   -.624E-01 -.360E-01 0.623E+00   -.165E-01 -.967E-02 -.112E-01
   -.972E+00 0.561E+00 -.889E+03   0.893E+00 -.515E+00 0.888E+03   0.624E-01 -.360E-01 0.623E+00   0.164E-01 -.992E-02 -.104E-01
   0.205E-04 -.294E+01 -.881E+03   0.110E-03 0.270E+01 0.881E+03   0.185E-11 0.281E+00 0.381E+00   -.246E-03 -.416E-01 -.590E-01
   0.540E-04 -.367E-04 -.251E+04   -.113E-03 0.767E-04 0.251E+04   -.565E-17 -.161E-18 0.189E+01   0.131E-02 0.624E-03 -.164E+00
   -.531E+01 -.102E+02 -.252E+04   0.611E+01 0.117E+02 0.252E+04   -.800E+00 -.124E+01 0.149E+01   -.136E-01 -.185E+00 -.876E-01
   0.531E+01 -.102E+02 -.252E+04   -.611E+01 0.117E+02 0.252E+04   0.800E+00 -.124E+01 0.149E+01   0.271E-02 -.183E+00 -.877E-01
   -.115E+02 0.529E+00 -.252E+04   0.132E+02 -.544E+00 0.252E+04   -.147E+01 -.751E-01 0.149E+01   -.167E+00 0.808E-01 -.876E-01
   0.115E+02 0.529E+00 -.252E+04   -.132E+02 -.544E+00 0.252E+04   0.147E+01 -.751E-01 0.149E+01   0.156E+00 0.816E-01 -.877E-01
   -.622E+01 0.972E+01 -.252E+04   0.705E+01 -.111E+02 0.252E+04   -.670E+00 0.131E+01 0.149E+01   -.157E+00 0.946E-01 -.877E-01
   0.622E+01 0.972E+01 -.252E+04   -.705E+01 -.111E+02 0.252E+04   0.670E+00 0.131E+01 0.149E+01   0.148E+00 0.941E-01 -.878E-01
   0.257E-04 -.146E-04 -.251E+04   0.104E-03 -.648E-04 0.251E+04   -.524E-17 0.525E-18 0.210E+01   -.531E-02 -.263E-02 0.326E-01
   -.333E-04 -.492E-05 -.155E+04   0.674E-04 0.931E-05 0.155E+04   -.961E-17 -.430E-18 0.314E+01   0.342E-02 0.206E-02 0.809E-01
 -----------------------------------------------------------------------------------------------
   0.299E-03 -.710E-03 0.383E+01   -.453E-13 0.306E-12 -.111E-10   -.792E-15 0.666E-15 -.344E+01   -.181E-01 -.722E-02 -.338E+00
 
 
 POSITION                                       TOTAL-FORCE (eV/Angst)
 -----------------------------------------------------------------------------------
      0.00000      0.00000      5.28219        -0.000000     -0.000000     -0.019926
      2.93046      0.00000      5.28219        -0.003666      0.007902      0.020913
      5.86091      0.00000      5.28219         0.003666      0.007902      0.020913
      1.46523      2.53785      5.28219         0.005010     -0.007126      0.020913
      4.39568      2.53785      5.28219        -0.000000     -0.000000      0.001375
      7.32614      2.53785      5.28219        -0.005010     -0.007126      0.020913
      2.93046      5.07570      5.28219         0.008676     -0.000776      0.020913
      5.86091      5.07570      5.28219        -0.008676     -0.000776      0.020913
      8.79137      5.07570      5.28219        -0.000000     -0.000000      0.005731
      1.46523      0.84595      7.67490         0.019213      0.011093      0.003344
      4.39568      0.84595      7.67490        -0.000000     -0.033900     -0.052484
      7.32614      0.84595      7.67490        -0.019213      0.011093      0.003344
      2.93046      3.38380      7.67490        -0.029358      0.016950     -0.052484
      5.86091      3.38380      7.67490         0.029358      0.016950     -0.052484
      8.79137      3.38380      7.67490        -0.000000     -0.020705      0.007959
      4.39568      5.92165      7.67490        -0.000000     -0.022186      0.003344
      7.32614      5.92165      7.67490        -0.017931      0.010353      0.007959
     10.25659      5.92165      7.67490         0.017931      0.010353      0.007959
      8.79137      1.69455     10.06139        -0.000000     -0.000654     -0.006301
      2.94158      1.69832     10.04035         0.014300      0.008256      0.008391
      5.84978      1.69832     10.04035        -0.014300      0.008256      0.008391
     10.25392      4.23129     10.05365        -0.006032      0.003483     -0.012608
      4.39568      4.21690     10.04035        -0.000000     -0.016513      0.008391
      7.32881      4.23129     10.05365         0.006032      0.003483     -0.012608
     11.71953      6.76627     10.06139         0.000566      0.000327     -0.006301
      5.86321      6.76627     10.06139        -0.000566      0.000327     -0.006301
      8.79137      6.76451     10.05365        -0.000000     -0.006965     -0.012608
      0.00000      0.00000     12.42536        -0.000000     -0.000000      0.022917
      2.96459      0.05999     12.43855        -0.005941      0.001569      0.006037
      5.82677      0.05999     12.43855         0.005941      0.001569      0.006037
      1.53425      2.53742     12.43855        -0.001612     -0.005929      0.006037
      7.25712      2.53742     12.43855         0.001612     -0.005929      0.006037
      2.96534      5.01614     12.43855         0.004329      0.004361      0.006037
      5.82603      5.01614     12.43855        -0.004329      0.004361      0.006037
      8.79137      5.07570     12.42471        -0.000000     -0.000000      0.003371
      4.39568      2.53785     12.16969        -0.000000      0.000000     -0.020068
 -----------------------------------------------------------------------------------
    total drift:                               -0.017841     -0.007927      0.046243


--------------------------------------------------------------------------------------------------------



  FREE ENERGIE OF THE ION-ELECTRON SYSTEM (eV)
  ---------------------------------------------------
  free  energy   TOTEN  =       -94.63852886 eV

  energy  without entropy=      -94.63852886  energy(sigma->0) =      -94.63852886
 


--------------------------------------------------------------------------------------------------------


    POTLOK:  cpu time    0.0630: real time    0.0630


--------------------------------------------------------------------------------------------------------


 stress matrix after NEB project (eV)
    -10.15418     -0.00000      0.00000
     -0.00000    -10.15418     -0.00000
      0.00000     -0.00000     -0.07363
  FORCES: max atom, RMS     0.022917    0.009364
  FORCE total and by dimension    0.056183    0.022917
  Stress total and by dimension   14.360369   10.154181
     LOOP+:  cpu time  110.1960: real time  110.3118
 -----------------------------------------------------------------------------
|                                                                             |
|           W    W    AA    RRRRR   N    N  II  N    N   GGGG   !!!           |
|           W    W   A  A   R    R  NN   N  II  NN   N  G    G  !!!           |
|           W    W  A    A  R    R  N N  N  II  N N  N  G       !!!           |
|           W WW W  AAAAAA  RRRRR   N  N N  II  N  N N  G  GGG   !            |
|           WW  WW  A    A  R   R   N   NN  II  N   NN  G    G                |
|           W    W  A    A  R    R  N    N  II  N    N   GGGG   !!!           |
|                                                                             |
|     Tetrahedron method does not include variations of the Fermi             |
|     occupations, so forces and stress will be inaccurate. We suggest        |
|     using a different smearing scheme ISMEAR = 1 or 2 for metals in         |
|     relaxations.                                                            |
|                                                                             |
 -----------------------------------------------------------------------------

    4ORBIT:  cpu time    0.0000: real time    0.0000



 total charge

# of ion       s       p       d       tot
------------------------------------------
    1        0.419   0.201   9.177   9.797
    2        0.416   0.203   9.177   9.797
    3        0.416   0.203   9.177   9.797
    4        0.416   0.203   9.177   9.797
    5        0.417   0.203   9.175   9.796
    6        0.416   0.203   9.177   9.797
    7        0.416   0.203   9.177   9.797
    8        0.416   0.203   9.177   9.797
    9        0.416   0.201   9.178   9.795
   10        0.408   0.268   9.162   9.838
   11        0.407   0.268   9.168   9.842
   12        0.408   0.268   9.162   9.838
   13        0.407   0.268   9.168   9.842
   14        0.407   0.268   9.168   9.842
   15        0.405   0.268   9.166   9.838
   16        0.408   0.268   9.162   9.838
   17        0.405   0.268   9.166   9.838
   18        0.405   0.268   9.166   9.838
   19        0.401   0.265   9.166   9.833
   20        0.425   0.298   9.144   9.867
   21        0.425   0.298   9.144   9.867
   22        0.398   0.273   9.167   9.837
   23        0.425   0.298   9.144   9.867
   24        0.398   0.273   9.167   9.837
   25        0.401   0.265   9.166   9.833
   26        0.401   0.265   9.166   9.833
   27        0.398   0.273   9.167   9.837
   28        0.412   0.197   9.178   9.786
   29        0.427   0.209   9.165   9.801
   30        0.427   0.209   9.165   9.801
   31        0.427   0.209   9.165   9.801
   32        0.427   0.209   9.165   9.801
   33        0.427   0.209   9.165   9.801
   34        0.427   0.209   9.165   9.801
   35        0.404   0.198   9.179   9.782
   36        0.279   0.158   5.091   5.528
--------------------------------------------------
tot         14.734   8.550 325.950 349.234
 
 BZINTS: Fermi energy:    0.786797;  392.000000 electrons
         Band energy:-0.126886E+04;  BLOECHL correction:   -0.018314

 total amount of memory used by VASP MPI-rank0   122005. kBytes
=======================================================================

   base      :      30000. kBytes
   nonlr-proj:      14699. kBytes
   fftplans  :       4330. kBytes
   grid      :      17098. kBytes
   one-center:        559. kBytes
   wavefun   :      55319. kBytes
 
  
  
 General timing and accounting informations for this job:
 ========================================================
  
                  Total CPU time used (sec):      118.523
                            User time (sec):      114.979
                          System time (sec):        3.544
                         Elapsed time (sec):      119.162
  
                   Maximum memory used (kb):      378520.
                   Average memory used (kb):          N/A
  
                          Minor page faults:        77001
                          Major page faults:            0
                 Voluntary context switches:         6319
