PROCAR new format
# of k-points:   10         # of bands:  252         # of ions:   36

 k-point     1 :    0.00000000 0.00000000 0.00000000     weight = 0.01562500

band     1 # energy   -6.31965513 # occ.  2.00000000
 
ion      s      p      d    tot
    1  0.006  0.001  0.000  0.007
    2  0.006  0.001  0.000  0.007
    3  0.006  0.001  0.000  0.007
    4  0.006  0.001  0.000  0.007
    5  0.006  0.001  0.000  0.007
    6  0.006  0.001  0.000  0.007
    7  0.006  0.001  0.000  0.007
    8  0.006  0.001  0.000  0.007
    9  0.006  0.001  0.000  0.007
   10  0.024  0.000  0.000  0.024
   11  0.024  0.000  0.000  0.025
   12  0.024  0.000  0.000  0.024
   13  0.024  0.000  0.000  0.025
   14  0.024  0.000  0.000  0.025
   15  0.024  0.000  0.000  0.024
   16  0.024  0.000  0.000  0.024
   17  0.024  0.000  0.000  0.024
   18  0.024  0.000  0.000  0.024
   19  0.022  0.000  0.000  0.023
   20  0.024  0.000  0.000  0.024
   21  0.024  0.000  0.000  0.024
   22  0.023  0.000  0.000  0.023
   23  0.024  0.000  0.000  0.024
   24  0.023  0.000  0.000  0.023
   25  0.022  0.000  0.000  0.023
   26  0.022  0.000  0.000  0.023
   27  0.023  0.000  0.000  0.023
   28  0.005  0.001  0.000  0.006
   29  0.005  0.001  0.000  0.006
   30  0.005  0.001  0.000  0.006
   31  0.005  0.001  0.000  0.006
   32  0.005  0.001  0.000  0.006
   33  0.005  0.001  0.000  0.006
   34  0.005  0.001  0.000  0.006
   35  0.005  0.001  0.000  0.006
   36  0.005  0.000  0.000  0.005
tot    0.523  0.013  0.006  0.541
 
band     2 # energy   -5.44771275 # occ.  2.00000000
 
ion      s      p      d    tot
    1  0.008  0.000  0.000  0.009
    2  0.008  0.000  0.000  0.009
    3  0.008  0.000  0.000  0.009
    4  0.008  0.000  0.000  0.009
    5  0.008  0.000  0.000  0.009
    6  0.008  0.000  0.000  0.009
    7  0.008  0.000  0.000  0.009
    8  0.008  0.000  0.000  0.009
    9  0.008  0.000  0.000  0.009
   10  0.011  0.001  0.015  0.027
   11  0.011  0.001  0.015  0.027
   12  0.011  0.001  0.015  0.027
   13  0.011  0.001  0.015  0.027
   14  0.011  0.001  0.015  0.027
   15  0.010  0.001  0.014  0.026
   16  0.011  0.001  0.015  0.027
   17  0.010  0.001  0.014  0.026
   18  0.010  0.001  0.014  0.026
   19  0.012  0.001  0.016  0.029
   20  0.013  0.001  0.018  0.032
   21  0.013  0.001  0.018  0.032
   22  0.012  0.001  0.016  0.029
   23  0.013  0.001  0.018  0.032
   24  0.012  0.001  0.016  0.029
   25  0.012  0.001  0.016  0.029
   26  0.012  0.001  0.016  0.029
   27  0.012  0.001  0.016  0.029
   28  0.007  0.000  0.000  0.008
   29  0.007  0.000  0.000  0.007
   30  0.007  0.000  0.000  0.007
   31  0.007  0.000  0.000  0.007
   32  0.007  0.000  0.000  0.007
   33  0.007  0.000  0.000  0.007
   34  0.007  0.000  0.000  0.007
   35  0.007  0.000  0.000  0.007
   36  0.005  0.000  0.000  0.006
tot    0.340  0.025  0.285  0.651
 
band     3 # energy   -5.16485742 # occ.  2.00000000
 
ion      s      p      d    tot
    1  0.014  0.000  0.027  0.042
    2  0.016  0.000  0.025  0.041
    3  0.016  0.000  0.025  0.041
    4  0.016  0.000  0.025  0.041
    5  0.016  0.000  0.025  0.041
    6  0.016  0.000  0.025  0.041
    7  0.016  0.000  0.025  0.041
    8  0.016  0.000  0.025  0.041
    9  0.017  0.000  0.024  0.041
   10  0.001  0.001  0.021  0.022
   11  0.001  0.001  0.024  0.025
   12  0.001  0.001  0.021  0.022
   13  0.001  0.001  0.024  0.025
   14  0.001  0.001  0.024  0.025
   15  0.000  0.000  0.023  0.024
   16  0.001  0.001  0.021  0.022
   17  0.000  0.000  0.023  0.024
   18  0.000  0.000  0.023  0.024
   19  0.000  0.000  0.008  0.008
   20  0.000  0.000  0.011  0.011
   21  0.000  0.000  0.011  0.011
   22  0.000  0.000  0.010  0.010
   23  0.000  0.000  0.011  0.011
   24  0.000  0.000  0.010  0.010
   25  0.000  0.000  0.008  0.008
   26  0.000  0.000  0.008  0.008
   27  0.000  0.000  0.010  0.010
   28  0.005  0.000  0.007  0.011
   29  0.005  0.000  0.006  0.011
   30  0.005  0.000  0.006  0.011
   31  0.005  0.000  0.006  0.011
   32  0.005  0.000  0.006  0.011
   33  0.005  0.000  0.006  0.011
   34  0.005  0.000  0.006  0.011
   35  0.005  0.000  0.007  0.012
   36  0.004  0.000  0.000  0.004
tot    0.190  0.006  0.568  0.764
 
band     4 # energy   -5.05151747 # occ.  2.00000000
 
ion      s      p      d    tot
    1  0.006  0.001  0.003  0.010
    2  0.000  0.000  0.005  0.006
    3  0.000  0.000  0.005  0.006
    4  0.000  0.000  0.005  0.006
    5  0.000  0.000  0.003  0.003
    6  0.000  0.000  0.005  0.006
    7  0.000  0.000  0.005  0.006
    8  0.000  0.000  0.005  0.006
    9  0.001  0.001  0.005  0.007
   10  0.005  0.000  0.063  0.069
   11  0.000  0.001  0.029  0.030
   12  0.005  0.000  0.063  0.068
   13  0.000  0.001  0.029  0.030
   14  0.000  0.001  0.029  0.030
   15  0.014  0.001  0.010  0.025
   16  0.005  0.000  0.063  0.068
   17  0.014  0.001  0.010  0.025
   18  0.014  0.001  0.010  0.025
   19  0.000  0.001  0.024  0.025
   20  0.006  0.000  0.055  0.061
   21  0.006  0.000  0.055  0.061
   22  0.012  0.001  0.009  0.023
   23  0.006  0.000  0.055  0.061
   24  0.012  0.001  0.009  0.023
   25  0.000  0.001  0.024  0.025
   26  0.000  0.001  0.024  0.025
   27  0.012  0.001  0.009  0.023
   28  0.000  0.000  0.002  0.002
   29  0.000  0.000  0.006  0.006
   30  0.000  0.000  0.006  0.006
   31  0.000  0.000  0.006  0.006
   32  0.000  0.000  0.006  0.006
   33  0.000  0.000  0.006  0.006
   34  0.000  0.000  0.006  0.006
   35  0.001  0.001  0.003  0.005
   36  0.005  0.001  0.000  0.007
tot    0.132  0.016  0.653  0.801
 
band     5 # energy   -5.04040195 # occ.  2.00000000
 
ion      s      p      d    tot
    1  0.001  0.000  0.000  0.001
    2  0.000  0.000  0.006  0.006
    3  0.000  0.000  0.006  0.006
    4  0.000  0.000  0.006  0.006
    5  0.005  0.001  0.005  0.010
    6  0.000  0.000  0.005  0.006
    7  0.000  0.000  0.006  0.006
    8  0.000  0.000  0.005  0.006
    9  0.001  0.000  0.005  0.006
   10  0.008  0.001  0.005  0.015
   11  0.014  0.001  0.042  0.056
   12  0.008  0.001  0.005  0.014
   13  0.014  0.001  0.042  0.056
   14  0.013  0.001  0.042  0.056
   15  0.001  0.000  0.058  0.059
   16  0.008  0.001  0.005  0.014
   17  0.001  0.000  0.058  0.059
   18  0.001  0.000  0.058  0.060
   19  0.011  0.001  0.028  0.040
   20  0.006  0.001  0.013  0.020
   21  0.006  0.001  0.013  0.020
   22  0.001  0.000  0.046  0.047
   23  0.006  0.001  0.013  0.020
   24  0.001  0.000  0.046  0.047
   25  0.011  0.001  0.028  0.039
   26  0.011  0.001  0.028  0.040
   27  0.001  0.000  0.046  0.047
   28  0.004  0.001  0.004  0.008
   29  0.000  0.000  0.004  0.004
   30  0.000  0.000  0.004  0.004
   31  0.000  0.000  0.004  0.004
   32  0.000  0.000  0.004  0.004
   33  0.000  0.000  0.004  0.004
   34  0.000  0.000  0.004  0.004
   35  0.002  0.000  0.004  0.006
   36  0.000  0.000  0.000  0.000
tot    0.132  0.017  0.651  0.800
 
band     6 # energy   -5.03691222 # occ.  2.00000000
 
ion      s      p      d    tot
    1  0.000  0.000  0.001  0.001
    2  0.000  0.000  0.004  0.004
    3  0.002  0.001  0.007  0.009
    4  0.000  0.000  0.004  0.004
    5  0.000  0.000  0.010  0.010
    6  0.001  0.000  0.004  0.005
    7  0.002  0.001  0.007  0.009
    8  0.001  0.000  0.004  0.005
    9  0.000  0.000  0.005  0.005
   10  0.001  0.000  0.025  0.026
   11  0.007  0.000  0.081  0.088
   12  0.000  0.001  0.048  0.049
   13  0.007  0.000  0.082  0.089
   14  0.028  0.001  0.004  0.032
   15  0.005  0.001  0.021  0.027
   16  0.000  0.001  0.048  0.048
   17  0.005  0.001  0.021  0.027
   18  0.019  0.000  0.035  0.055
   19  0.001  0.000  0.033  0.034
   20  0.006  0.000  0.030  0.037
   21  0.002  0.001  0.019  0.022
   22  0.005  0.001  0.034  0.040
   23  0.002  0.001  0.019  0.022
   24  0.020  0.001  0.010  0.031
   25  0.004  0.001  0.011  0.015
   26  0.001  0.000  0.033  0.034
   27  0.005  0.001  0.034  0.040
   28  0.000  0.000  0.002  0.002
   29  0.001  0.000  0.003  0.005
   30  0.000  0.000  0.002  0.002
   31  0.001  0.000  0.003  0.005
   32  0.001  0.000  0.002  0.004
   33  0.000  0.000  0.002  0.002
   34  0.001  0.000  0.003  0.004
   35  0.000  0.000  0.008  0.008
   36  0.000  0.000  0.000  0.000
tot    0.127  0.017  0.658  0.802
 
band     7 # energy   -5.03690170 # occ.  2.00000000
 
ion      s      p      d    tot
    1  0.000  0.000  0.001  0.001
    2  0.002  0.001  0.006  0.008
    3  0.000  0.000  0.003  0.003
    4  0.002  0.001  0.006  0.008
    5  0.000  0.000  0.010  0.010
    6  0.001  0.000  0.006  0.007
    7  0.000  0.000  0.003  0.003
    8  0.001  0.000  0.006  0.007
    9  0.000  0.000  0.005  0.005
   10  0.000  0.001  0.055  0.056
   11  0.021  0.001  0.030  0.051
   12  0.001  0.000  0.033  0.034
   13  0.021  0.001  0.029  0.051
   14  0.000  0.000  0.107  0.107
   15  0.014  0.001  0.031  0.046
   16  0.000  0.000  0.033  0.034
   17  0.014  0.001  0.031  0.046
   18  0.000  0.002  0.015  0.017
   19  0.003  0.000  0.018  0.022
   20  0.000  0.001  0.016  0.017
   21  0.005  0.001  0.027  0.032
   22  0.015  0.001  0.018  0.034
   23  0.005  0.001  0.026  0.032
   24  0.000  0.001  0.042  0.043
   25  0.000  0.000  0.041  0.041
   26  0.003  0.000  0.018  0.021
   27  0.015  0.001  0.018  0.034
   28  0.000  0.000  0.002  0.002
   29  0.000  0.000  0.002  0.002
   30  0.002  0.000  0.003  0.005
   31  0.000  0.000  0.002  0.002
   32  0.001  0.000  0.003  0.004
   33  0.002  0.000  0.003  0.005
   34  0.001  0.000  0.003  0.004
   35  0.000  0.000  0.008  0.008
   36  0.000  0.000  0.000  0.000
tot    0.127  0.017  0.658  0.802
 
band     8 # energy   -5.02953849 # occ.  2.00000000
 
ion      s      p      d    tot
    1  0.000  0.000  0.009  0.009
    2  0.001  0.001  0.005  0.006
    3  0.000  0.000  0.003  0.003
    4  0.002  0.001  0.006  0.008
    5  0.000  0.000  0.001  0.001
    6  0.001  0.000  0.005  0.007
    7  0.000  0.000  0.003  0.003
    8  0.001  0.000  0.004  0.005
    9  0.000  0.000  0.005  0.005
   10  0.026  0.001  0.021  0.047
   11  0.000  0.001  0.019  0.021
   12  0.012  0.001  0.036  0.049
   13  0.002  0.001  0.027  0.029
   14  0.004  0.000  0.038  0.042
   15  0.001  0.000  0.087  0.088
   16  0.003  0.001  0.047  0.050
   17  0.005  0.000  0.057  0.062
   18  0.010  0.001  0.012  0.023
   19  0.001  0.001  0.019  0.022
   20  0.015  0.001  0.009  0.025
   21  0.007  0.000  0.039  0.047
   22  0.000  0.001  0.033  0.033
   23  0.002  0.000  0.060  0.062
   24  0.000  0.000  0.026  0.026
   25  0.014  0.001  0.025  0.039
   26  0.006  0.001  0.022  0.029
   27  0.000  0.001  0.037  0.037
   28  0.000  0.000  0.005  0.005
   29  0.000  0.000  0.003  0.003
   30  0.001  0.000  0.004  0.005
   31  0.000  0.000  0.002  0.002
   32  0.000  0.000  0.002  0.002
   33  0.001  0.000  0.004  0.005
   34  0.001  0.000  0.002  0.003
   35  0.000  0.000  0.001  0.001
   36  0.000  0.000  0.001  0.001
tot    0.116  0.016  0.675  0.807
 
band     9 # energy   -5.02953757 # occ.  2.00000000
 
ion      s      p      d    tot
    1  0.000  0.000  0.009  0.009
    2  0.000  0.000  0.004  0.004
    3  0.001  0.000  0.006  0.007
    4  0.000  0.000  0.003  0.003
    5  0.000  0.000  0.001  0.001
    6  0.000  0.000  0.003  0.004
    7  0.002  0.001  0.006  0.008
    8  0.001  0.000  0.004  0.006
    9  0.000  0.000  0.005  0.005
   10  0.001  0.001  0.048  0.050
   11  0.004  0.000  0.037  0.041
   12  0.015  0.001  0.033  0.049
   13  0.002  0.001  0.029  0.032
   14  0.000  0.001  0.018  0.019
   15  0.010  0.001  0.016  0.027
   16  0.024  0.001  0.023  0.048
   17  0.006  0.000  0.047  0.053
   18  0.000  0.000  0.092  0.093
   19  0.013  0.001  0.024  0.038
   20  0.001  0.000  0.063  0.064
   21  0.009  0.001  0.033  0.042
   22  0.000  0.000  0.031  0.031
   23  0.014  0.001  0.012  0.027
   24  0.000  0.001  0.037  0.038
   25  0.001  0.001  0.019  0.021
   26  0.008  0.001  0.022  0.031
   27  0.000  0.000  0.027  0.027
   28  0.000  0.000  0.005  0.005
   29  0.001  0.000  0.003  0.004
   30  0.000  0.000  0.002  0.002
   31  0.001  0.000  0.004  0.005
   32  0.001  0.000  0.004  0.005
   33  0.000  0.000  0.002  0.002
   34  0.000  0.000  0.003  0.004
   35  0.000  0.000  0.001  0.001
   36  0.000  0.000  0.001  0.001
tot    0.116  0.016  0.675  0.807
 
band    10 # energy   -5.01322376 # occ.  2.00000000
 
ion      s      p      d    tot
    1  0.000  0.000  0.011  0.012
    2  0.000  0.000  0.010  0.010
    3  0.000  0.000  0.010  0.010
    4  0.000  0.000  0.010  0.010
    5  0.001  0.000  0.002  0.003
    6  0.000  0.000  0.010  0.010
    7  0.000  0.000  0.010  0.010
    8  0.000  0.000  0.010  0.010
    9  0.007  0.001  0.001  0.009
   10  0.003  0.000  0.029  0.033
   11  0.000  0.000  0.052  0.053
   12  0.003  0.000  0.029  0.033
   13  0.000  0.000  0.052  0.053
   14  0.000  0.000  0.053  0.053
   15  0.002  0.000  0.016  0.018
   16  0.003  0.000  0.029  0.033
   17  0.002  0.000  0.016  0.018
   18  0.002  0.000  0.016  0.018
   19  0.003  0.000  0.005  0.009
   20  0.001  0.000  0.050  0.051
   21  0.001  0.000  0.050  0.051
   22  0.003  0.000  0.054  0.057
   23  0.001  0.000  0.050  0.051
   24  0.003  0.000  0.054  0.058
   25  0.003  0.000  0.005  0.009
   26  0.003  0.000  0.005  0.009
   27  0.003  0.000  0.054  0.057
   28  0.008  0.001  0.000  0.008
   29  0.001  0.000  0.010  0.011
   30  0.001  0.000  0.010  0.011
   31  0.001  0.000  0.010  0.011
   32  0.001  0.000  0.010  0.011
   33  0.001  0.000  0.010  0.011
   34  0.001  0.000  0.010  0.011
   35  0.000  0.000  0.018  0.018
   36  0.001  0.000  0.000  0.001
tot    0.061  0.007  0.772  0.840
 
band    11 # energy   -4.99772101 # occ.  2.00000000
 
ion      s      p      d    tot
    1  0.007  0.000  0.007  0.014
    2  0.000  0.000  0.011  0.011
    3  0.000  0.000  0.011  0.011
    4  0.000  0.000  0.011  0.011
    5  0.001  0.001  0.004  0.006
    6  0.000  0.000  0.011  0.011
    7  0.000  0.000  0.011  0.011
    8  0.000  0.000  0.011  0.011
    9  0.000  0.000  0.003  0.003
   10  0.000  0.000  0.046  0.046
   11  0.004  0.000  0.009  0.013
   12  0.000  0.000  0.046  0.047
   13  0.004  0.000  0.009  0.013
   14  0.004  0.000  0.009  0.013
   15  0.001  0.000  0.045  0.046
   16  0.000  0.000  0.046  0.047
   17  0.001  0.000  0.045  0.046
   18  0.001  0.000  0.045  0.046
   19  0.002  0.000  0.067  0.069
   20  0.003  0.001  0.013  0.016
   21  0.003  0.001  0.013  0.016
   22  0.002  0.000  0.030  0.032
   23  0.003  0.001  0.013  0.016
   24  0.002  0.000  0.030  0.032
   25  0.002  0.000  0.067  0.068
   26  0.002  0.000  0.067  0.069
   27  0.002  0.000  0.030  0.032
   28  0.002  0.000  0.020  0.021
   29  0.001  0.000  0.008  0.010
   30  0.001  0.000  0.008  0.010
   31  0.001  0.000  0.008  0.010
   32  0.001  0.000  0.008  0.009
   33  0.001  0.000  0.008  0.010
   34  0.001  0.000  0.008  0.009
   35  0.001  0.000  0.000  0.001
   36  0.004  0.001  0.000  0.005
tot    0.056  0.007  0.780  0.843
 
band    12 # energy   -4.99261627 # occ.  2.00000000
 
ion      s      p      d    tot
    1  0.000  0.000  0.020  0.020
    2  0.003  0.000  0.006  0.010
    3  0.000  0.000  0.009  0.010
    4  0.003  0.000  0.006  0.010
    5  0.000  0.000  0.010  0.010
    6  0.001  0.000  0.007  0.008
    7  0.000  0.000  0.009  0.010
    8  0.001  0.000  0.007  0.008
    9  0.000  0.000  0.005  0.005
   10  0.000  0.000  0.051  0.051
   11  0.000  0.000  0.034  0.034
   12  0.002  0.000  0.034  0.037
   13  0.000  0.000  0.033  0.034
   14  0.000  0.000  0.013  0.013
   15  0.004  0.000  0.020  0.024
   16  0.002  0.000  0.034  0.037
   17  0.004  0.000  0.020  0.024
   18  0.000  0.000  0.058  0.058
   19  0.006  0.000  0.036  0.042
   20  0.000  0.000  0.098  0.098
   21  0.007  0.000  0.029  0.037
   22  0.000  0.000  0.031  0.032
   23  0.007  0.000  0.029  0.036
   24  0.000  0.000  0.019  0.020
   25  0.000  0.000  0.045  0.045
   26  0.006  0.000  0.036  0.042
   27  0.000  0.000  0.031  0.032
   28  0.000  0.000  0.012  0.012
   29  0.000  0.000  0.008  0.008
   30  0.002  0.000  0.004  0.006
   31  0.000  0.000  0.008  0.008
   32  0.002  0.001  0.005  0.008
   33  0.002  0.000  0.004  0.006
   34  0.002  0.001  0.005  0.008
   35  0.000  0.000  0.004  0.004
   36  0.000  0.000  0.001  0.001
tot    0.056  0.007  0.781  0.844
 
band    13 # energy   -4.99257779 # occ.  2.00000000
 
ion      s      p      d    tot
    1  0.000  0.000  0.020  0.020
    2  0.000  0.000  0.009  0.009
    3  0.003  0.000  0.006  0.009
    4  0.000  0.000  0.009  0.009
    5  0.000  0.000  0.010  0.010
    6  0.002  0.000  0.008  0.010
    7  0.003  0.000  0.006  0.009
    8  0.002  0.000  0.008  0.010
    9  0.000  0.000  0.005  0.005
   10  0.003  0.000  0.028  0.032
   11  0.000  0.000  0.019  0.020
   12  0.001  0.000  0.045  0.046
   13  0.000  0.000  0.020  0.020
   14  0.000  0.000  0.041  0.041
   15  0.001  0.000  0.046  0.047
   16  0.001  0.000  0.045  0.046
   17  0.001  0.000  0.045  0.047
   18  0.005  0.000  0.008  0.013
   19  0.002  0.000  0.042  0.044
   20  0.010  0.000  0.006  0.016
   21  0.002  0.000  0.074  0.077
   22  0.000  0.000  0.023  0.024
   23  0.002  0.000  0.075  0.078
   24  0.000  0.000  0.036  0.036
   25  0.008  0.000  0.033  0.041
   26  0.002  0.000  0.042  0.044
   27  0.000  0.000  0.023  0.023
   28  0.000  0.000  0.012  0.012
   29  0.002  0.001  0.004  0.007
   30  0.000  0.000  0.007  0.008
   31  0.002  0.001  0.004  0.007
   32  0.001  0.000  0.006  0.007
   33  0.000  0.000  0.007  0.008
   34  0.001  0.000  0.006  0.007
   35  0.000  0.000  0.004  0.004
   36  0.000  0.000  0.001  0.001
tot    0.056  0.007  0.781  0.844
 
band    14 # energy   -4.98298912 # occ.  2.00000000
 
ion      s      p      d    tot
    1  0.000  0.000  0.005  0.005
    2  0.004  0.000  0.007  0.011
    3  0.001  0.000  0.010  0.011
    4  0.004  0.000  0.007  0.011
    5  0.000  0.000  0.013  0.014
    6  0.001  0.000  0.008  0.010
    7  0.001  0.000  0.010  0.011
    8  0.001  0.000  0.008  0.010
    9  0.000  0.000  0.020  0.020
   10  0.005  0.000  0.018  0.023
   11  0.001  0.000  0.045  0.047
   12  0.001  0.000  0.033  0.034
   13  0.001  0.000  0.044  0.046
   14  0.005  0.000  0.014  0.020
   15  0.000  0.000  0.027  0.027
   16  0.001  0.000  0.033  0.034
   17  0.000  0.000  0.027  0.027
   18  0.000  0.000  0.043  0.043
   19  0.002  0.000  0.059  0.060
   20  0.001  0.000  0.045  0.047
   21  0.000  0.000  0.019  0.020
   22  0.004  0.000  0.064  0.067
   23  0.000  0.000  0.018  0.019
   24  0.014  0.000  0.015  0.030
   25  0.007  0.000  0.012  0.018
   26  0.002  0.000  0.057  0.059
   27  0.003  0.000  0.065  0.069
   28  0.000  0.000  0.004  0.004
   29  0.000  0.000  0.007  0.007
   30  0.001  0.000  0.002  0.004
   31  0.000  0.000  0.007  0.007
   32  0.001  0.001  0.006  0.008
   33  0.001  0.000  0.002  0.004
   34  0.001  0.001  0.006  0.008
   35  0.000  0.000  0.009  0.009
   36  0.000  0.000  0.001  0.001
tot    0.065  0.008  0.768  0.841
 
band    15 # energy   -4.98296132 # occ.  2.00000000
 
ion      s      p      d    tot
    1  0.000  0.000  0.005  0.005
    2  0.000  0.000  0.010  0.010
    3  0.003  0.001  0.006  0.010
    4  0.000  0.000  0.010  0.010
    5  0.000  0.000  0.013  0.014
    6  0.002  0.000  0.008  0.011
    7  0.003  0.001  0.006  0.010
    8  0.003  0.000  0.008  0.011
    9  0.000  0.000  0.020  0.020
   10  0.000  0.000  0.038  0.038
   11  0.004  0.000  0.024  0.028
   12  0.004  0.000  0.023  0.027
   13  0.004  0.000  0.025  0.029
   14  0.000  0.000  0.055  0.055
   15  0.000  0.000  0.038  0.038
   16  0.004  0.000  0.022  0.026
   17  0.000  0.000  0.038  0.038
   18  0.000  0.000  0.021  0.021
   19  0.005  0.000  0.026  0.031
   20  0.000  0.000  0.010  0.010
   21  0.001  0.000  0.036  0.037
   22  0.010  0.000  0.032  0.043
   23  0.001  0.000  0.037  0.038
   24  0.000  0.000  0.081  0.081
   25  0.000  0.000  0.074  0.074
   26  0.005  0.000  0.028  0.033
   27  0.011  0.000  0.031  0.042
   28  0.000  0.000  0.004  0.004
   29  0.002  0.001  0.003  0.006
   30  0.000  0.000  0.008  0.009
   31  0.002  0.001  0.003  0.005
   32  0.000  0.000  0.004  0.004
   33  0.000  0.000  0.008  0.009
   34  0.000  0.000  0.004  0.004
   35  0.000  0.000  0.009  0.009
   36  0.000  0.000  0.001  0.001
tot    0.065  0.008  0.768  0.841
 
band    16 # energy   -4.95853599 # occ.  2.00000000
 
ion      s      p      d    tot
    1  0.001  0.000  0.004  0.005
    2  0.002  0.000  0.010  0.013
    3  0.002  0.000  0.010  0.013
    4  0.002  0.000  0.010  0.013
    5  0.006  0.000  0.008  0.014
    6  0.002  0.000  0.010  0.013
    7  0.002  0.000  0.010  0.013
    8  0.002  0.000  0.010  0.013
    9  0.001  0.000  0.015  0.017
   10  0.001  0.000  0.004  0.006
   11  0.001  0.000  0.011  0.013
   12  0.001  0.000  0.004  0.006
   13  0.001  0.000  0.011  0.013
   14  0.001  0.000  0.011  0.013
   15  0.001  0.000  0.014  0.015
   16  0.001  0.000  0.004  0.006
   17  0.001  0.000  0.014  0.015
   18  0.002  0.000  0.014  0.015
   19  0.002  0.000  0.017  0.019
   20  0.003  0.001  0.032  0.036
   21  0.003  0.001  0.032  0.036
   22  0.000  0.001  0.019  0.020
   23  0.003  0.001  0.032  0.036
   24  0.000  0.001  0.019  0.020
   25  0.002  0.000  0.017  0.019
   26  0.002  0.000  0.017  0.019
   27  0.000  0.001  0.019  0.020
   28  0.009  0.000  0.021  0.030
   29  0.013  0.000  0.029  0.041
   30  0.013  0.000  0.029  0.041
   31  0.013  0.000  0.029  0.041
   32  0.013  0.000  0.029  0.041
   33  0.013  0.000  0.029  0.041
   34  0.013  0.000  0.029  0.041
   35  0.024  0.000  0.025  0.049
   36  0.006  0.000  0.003  0.009
tot    0.164  0.009  0.604  0.777
 
band    17 # energy   -4.83200937 # occ.  2.00000000
 
ion      s      p      d    tot
    1  0.002  0.000  0.000  0.003
    2  0.000  0.000  0.009  0.010
    3  0.000  0.000  0.009  0.010
    4  0.000  0.000  0.009  0.010
    5  0.000  0.000  0.016  0.016
    6  0.000  0.000  0.009  0.010
    7  0.000  0.000  0.009  0.010
    8  0.000  0.000  0.009  0.010
    9  0.002  0.001  0.005  0.009
   10  0.001  0.000  0.018  0.018
   11  0.001  0.000  0.061  0.062
   12  0.001  0.000  0.017  0.018
   13  0.001  0.000  0.061  0.062
   14  0.001  0.000  0.061  0.062
   15  0.000  0.001  0.041  0.042
   16  0.001  0.000  0.017  0.018
   17  0.000  0.001  0.041  0.042
   18  0.000  0.001  0.041  0.042
   19  0.000  0.000  0.029  0.029
   20  0.001  0.000  0.065  0.066
   21  0.001  0.000  0.065  0.066
   22  0.001  0.000  0.018  0.019
   23  0.001  0.000  0.065  0.066
   24  0.001  0.000  0.017  0.019
   25  0.000  0.000  0.029  0.029
   26  0.000  0.000  0.029  0.029
   27  0.001  0.000  0.018  0.019
   28  0.007  0.001  0.000  0.008
   29  0.001  0.000  0.009  0.010
   30  0.001  0.000  0.009  0.010
   31  0.001  0.000  0.009  0.010
   32  0.001  0.000  0.009  0.010
   33  0.001  0.000  0.009  0.010
   34  0.001  0.000  0.009  0.010
   35  0.000  0.000  0.000  0.000
   36  0.000  0.001  0.002  0.003
tot    0.026  0.014  0.827  0.866
 
band    18 # energy   -4.82920241 # occ.  2.00000000
 
ion      s      p      d    tot
    1  0.001  0.000  0.009  0.010
    2  0.000  0.000  0.011  0.012
    3  0.000  0.000  0.011  0.011
    4  0.000  0.000  0.011  0.012
    5  0.004  0.001  0.001  0.006
    6  0.000  0.000  0.011  0.011
    7  0.000  0.000  0.011  0.011
    8  0.000  0.000  0.011  0.011
    9  0.001  0.000  0.004  0.006
   10  0.001  0.001  0.059  0.061
   11  0.000  0.000  0.023  0.023
   12  0.001  0.001  0.058  0.060
   13  0.000  0.000  0.023  0.023
   14  0.000  0.000  0.022  0.023
   15  0.002  0.000  0.031  0.033
   16  0.001  0.001  0.058  0.060
   17  0.002  0.000  0.031  0.033
   18  0.002  0.000  0.031  0.033
   19  0.002  0.000  0.048  0.050
   20  0.001  0.000  0.015  0.016
   21  0.001  0.000  0.015  0.016
   22  0.000  0.001  0.047  0.048
   23  0.001  0.000  0.015  0.016
   24  0.000  0.001  0.046  0.047
   25  0.002  0.000  0.048  0.050
   26  0.002  0.000  0.048  0.050
   27  0.000  0.001  0.047  0.048
   28  0.000  0.000  0.010  0.010
   29  0.000  0.000  0.009  0.010
   30  0.000  0.000  0.009  0.010
   31  0.000  0.000  0.009  0.010
   32  0.000  0.000  0.009  0.009
   33  0.000  0.000  0.009  0.010
   34  0.000  0.000  0.009  0.009
   35  0.003  0.001  0.005  0.008
   36  0.002  0.000  0.000  0.003
tot    0.029  0.016  0.813  0.857
 
band    19 # energy   -4.82372779 # occ.  2.00000000
 
ion      s      p      d    tot
    1  0.000  0.000  0.002  0.002
    2  0.000  0.000  0.008  0.009
    3  0.001  0.000  0.005  0.007
    4  0.000  0.000  0.011  0.011
    5  0.000  0.001  0.018  0.019
    6  0.001  0.001  0.010  0.012
    7  0.002  0.001  0.005  0.008
    8  0.001  0.001  0.008  0.010
    9  0.000  0.000  0.009  0.010
   10  0.000  0.000  0.050  0.050
   11  0.002  0.000  0.048  0.050
   12  0.000  0.001  0.037  0.037
   13  0.001  0.000  0.066  0.068
   14  0.000  0.000  0.085  0.085
   15  0.002  0.001  0.039  0.042
   16  0.000  0.001  0.024  0.025
   17  0.001  0.001  0.023  0.024
   18  0.000  0.000  0.006  0.007
   19  0.003  0.001  0.038  0.042
   20  0.000  0.000  0.079  0.080
   21  0.001  0.000  0.058  0.059
   22  0.000  0.001  0.021  0.022
   23  0.002  0.000  0.037  0.040
   24  0.000  0.000  0.022  0.023
   25  0.000  0.000  0.017  0.018
   26  0.002  0.000  0.028  0.030
   27  0.000  0.001  0.020  0.021
   28  0.000  0.001  0.012  0.013
   29  0.001  0.001  0.006  0.008
   30  0.002  0.001  0.005  0.007
   31  0.000  0.000  0.007  0.008
   32  0.000  0.000  0.006  0.006
   33  0.002  0.001  0.004  0.006
   34  0.001  0.000  0.005  0.006
   35  0.000  0.000  0.000  0.000
   36  0.000  0.001  0.001  0.002
tot    0.025  0.015  0.823  0.863
 
band    20 # energy   -4.82372630 # occ.  2.00000000
 
ion      s      p      d    tot
    1  0.000  0.000  0.002  0.002
    2  0.001  0.001  0.008  0.010
    3  0.001  0.001  0.011  0.012
    4  0.002  0.001  0.005  0.008
    5  0.000  0.001  0.018  0.019
    6  0.001  0.000  0.005  0.007
    7  0.000  0.000  0.011  0.011
    8  0.000  0.000  0.008  0.009
    9  0.000  0.000  0.010  0.010
   10  0.000  0.001  0.024  0.025
   11  0.000  0.000  0.085  0.086
   12  0.000  0.001  0.037  0.037
   13  0.001  0.000  0.066  0.068
   14  0.002  0.000  0.048  0.050
   15  0.000  0.000  0.007  0.007
   16  0.000  0.000  0.049  0.049
   17  0.001  0.001  0.023  0.024
   18  0.002  0.001  0.039  0.042
   19  0.000  0.000  0.017  0.017
   20  0.002  0.000  0.037  0.039
   21  0.001  0.000  0.059  0.060
   22  0.000  0.001  0.021  0.022
   23  0.000  0.000  0.079  0.080
   24  0.000  0.001  0.020  0.021
   25  0.003  0.001  0.038  0.042
   26  0.002  0.000  0.027  0.029
   27  0.000  0.000  0.023  0.023
   28  0.000  0.000  0.012  0.013
   29  0.001  0.000  0.005  0.006
   30  0.000  0.000  0.006  0.006
   31  0.002  0.001  0.004  0.006
   32  0.002  0.001  0.005  0.007
   33  0.000  0.000  0.007  0.008
   34  0.001  0.001  0.006  0.008
   35  0.000  0.000  0.000  0.000
   36  0.000  0.001  0.001  0.002
tot    0.025  0.015  0.823  0.863
 
band    21 # energy   -4.81788619 # occ.  2.00000000
 
ion      s      p      d    tot
    1  0.000  0.001  0.018  0.018
    2  0.002  0.001  0.006  0.009
    3  0.000  0.000  0.011  0.012
    4  0.002  0.001  0.007  0.010
    5  0.000  0.000  0.001  0.001
    6  0.001  0.000  0.007  0.007
    7  0.000  0.000  0.011  0.012
    8  0.001  0.000  0.006  0.007
    9  0.000  0.001  0.012  0.012
   10  0.000  0.000  0.039  0.039
   11  0.000  0.001  0.023  0.024
   12  0.002  0.000  0.049  0.052
   13  0.000  0.001  0.025  0.027
   14  0.000  0.000  0.009  0.009
   15  0.001  0.000  0.048  0.049
   16  0.002  0.000  0.048  0.049
   17  0.001  0.000  0.040  0.041
   18  0.000  0.000  0.089  0.090
   19  0.000  0.000  0.034  0.034
   20  0.000  0.000  0.001  0.001
   21  0.001  0.001  0.024  0.026
   22  0.003  0.000  0.048  0.051
   23  0.001  0.001  0.020  0.022
   24  0.000  0.000  0.058  0.058
   25  0.000  0.000  0.060  0.061
   26  0.000  0.000  0.028  0.029
   27  0.002  0.000  0.049  0.052
   28  0.000  0.000  0.004  0.004
   29  0.001  0.000  0.004  0.005
   30  0.000  0.000  0.008  0.008
   31  0.001  0.000  0.004  0.005
   32  0.001  0.001  0.006  0.007
   33  0.000  0.000  0.008  0.008
   34  0.001  0.001  0.005  0.007
   35  0.000  0.001  0.017  0.018
   36  0.000  0.000  0.001  0.001
tot    0.022  0.015  0.828  0.865
 
band    22 # energy   -4.81787825 # occ.  2.00000000
 
ion      s      p      d    tot
    1  0.000  0.001  0.018  0.018
    2  0.000  0.000  0.010  0.010
    3  0.002  0.001  0.005  0.007
    4  0.000  0.000  0.009  0.009
    5  0.000  0.000  0.001  0.001
    6  0.001  0.001  0.010  0.012
    7  0.001  0.001  0.005  0.007
    8  0.001  0.001  0.010  0.012
    9  0.000  0.001  0.011  0.012
   10  0.002  0.000  0.051  0.054
   11  0.000  0.000  0.015  0.015
   12  0.000  0.000  0.042  0.042
   13  0.000  0.000  0.012  0.013
   14  0.000  0.001  0.029  0.031
   15  0.000  0.000  0.070  0.071
   16  0.001  0.000  0.043  0.044