 vasp.6.2.0 18Jan21 (build Jun 12 2021 23:27:24) complex                        
  
 executed on             LinuxIFC date 2022.05.27  05:31:59
 running on   28 total cores
 distrk:  each k-point on   28 cores,    1 groups
 distr:  one band on NCORE=   1 cores,   28 groups


--------------------------------------------------------------------------------------------------------


 INCAR:
   ISMEAR = -5
   SIGMA = 0.1
   ISPIN = 1
   EDIFF = 1.d-5
   EDIFFG = -0.01
   NSW = 0
   NELM = 150
   ENCUT = 500
   ISIF = 2
   IBRION = 2
   LREAL = Auto
   ALGO = Fast
   ICHARG = 11
   LORBIT = 10
   LCHARG = .F.
   LWAVE = .F.

 POTCAR:    PAW_PBE Ag 02Apr2005                  
 POTCAR:    PAW_PBE Co 02Aug2007                  
 POTCAR:    PAW_PBE N 08Apr2002                   
 -----------------------------------------------------------------------------
|                                                                             |
|           W    W    AA    RRRRR   N    N  II  N    N   GGGG   !!!           |
|           W    W   A  A   R    R  NN   N  II  NN   N  G    G  !!!           |
|           W    W  A    A  R    R  N N  N  II  N N  N  G       !!!           |
|           W WW W  AAAAAA  RRRRR   N  N N  II  N  N N  G  GGG   !            |
|           WW  WW  A    A  R   R   N   NN  II  N   NN  G    G                |
|           W    W  A    A  R    R  N    N  II  N    N   GGGG   !!!           |
|                                                                             |
|     For optimal performance we recommend to set                             |
|       NCORE = 2 up to number-of-cores-per-socket                            |
|     NCORE specifies how many cores store one orbital (NPAR=cpu/NCORE).      |
|     This setting can greatly improve the performance of VASP for DFT.       |
|     The default, NCORE=1 might be grossly inefficient on modern             |
|     multi-core architectures or massively parallel machines. Do your        |
|     own testing! More info at https://www.vasp.at/wiki/index.php/NCORE      |
|     Unfortunately you need to use the default for GW and RPA                |
|     calculations (for HF NCORE is supported but not extensively tested      |
|     yet).                                                                   |
|                                                                             |
 -----------------------------------------------------------------------------

 POTCAR:    PAW_PBE Ag 02Apr2005                  
   VRHFIN =Ag : s1 d10                                                                              
   LEXCH  = PE                                                                                      
   EATOM  =  1037.2675 eV,   76.2370 Ry                                                             
                                                                                                    
   TITEL  = PAW_PBE Ag 02Apr2005                                                                    
   LULTRA =        F    use ultrasoft PP ?                                                          
   IUNSCR =        1    unscreen: 0-lin 1-nonlin 2-no                                               
   RPACOR =    2.000    partial core radius                                                         
   POMASS =  107.868; ZVAL   =   11.000    mass and valenz                                          
   RCORE  =    2.500    outmost cutoff radius                                                       
   RWIGS  =    2.840; RWIGS  =    1.503    wigner-seitz radius (au A)                               
   ENMAX  =  249.844; ENMIN  =  187.383 eV                                                          
   ICORE  =        3    local potential                                                             
   LCOR   =        T    correct aug charges                                                         
   LPAW   =        T    paw PP                                                                      
   EAUG   =  412.496                                                                                
   DEXC   =    0.000                                                                                
   RMAX   =    2.560    core radius for proj-oper                                                   
   RAUG   =    1.300    factor for augmentation sphere                                              
   RDEP   =    2.576    radius for radial grids                                                     
   RDEPT  =    2.072    core radius for aug-charge                                                  
                                                                                                    
   Atomic configuration                                                                             
   12 entries                                                                                       
     n  l   j            E        occ.                                                              
     1  0  0.50    -25324.9161   2.0000                                                             
     2  0  0.50     -3728.5341   2.0000                                                             
     2  1  1.50     -3344.0404   6.0000                                                             
     3  0  0.50      -683.5581   2.0000                                                             
     3  1  1.50      -557.3225   6.0000                                                             
     3  2  2.50      -358.3853  10.0000                                                             
     4  0  0.50       -95.0341   2.0000                                                             
     4  1  1.50       -58.5511   6.0000                                                             
     4  2  2.50        -7.4440  10.0000                                                             
     5  0  0.50        -4.4045   1.0000                                                             
     5  1  0.50        -1.3606   0.0000                                                             
     4  3  2.50        -1.3606   0.0000                                                             
   Description                                                                                      
     l       E           TYP  RCUT    TYP  RCUT                                                     
     2     -7.4439781     23  2.400                                                                 
     2     -8.8045607     23  2.400                                                                 
     0     -4.4044681     23  2.400                                                                 
     0      1.9520038     23  2.400                                                                 
     1     -1.3605826     23  2.500                                                                 
     1     27.2116520     23  2.500                                                                 
     3     -4.0817478     23  2.400                                                                 
  local pseudopotential read in
  partial core-charges read in
  partial kinetic energy density read in
  atomic valenz-charges read in
  non local Contribution for L=           2  read in
    real space projection operators read in
  non local Contribution for L=           2  read in
    real space projection operators read in
  non local Contribution for L=           0  read in
    real space projection operators read in
  non local Contribution for L=           0  read in
    real space projection operators read in
  non local Contribution for L=           1  read in
    real space projection operators read in
  non local Contribution for L=           1  read in
    real space projection operators read in
    PAW grid and wavefunctions read in
 
   number of l-projection  operators is LMAX  =           6
   number of lm-projection operators is LMMAX =          18
 
 POTCAR:    PAW_PBE Co 02Aug2007                  
   VRHFIN =Co: d8 s1                                                                                
   LEXCH  = PE                                                                                      
   EATOM  =   813.3670 eV,   59.7808 Ry                                                             
                                                                                                    
   TITEL  = PAW_PBE Co 02Aug2007                                                                    
   LULTRA =        F    use ultrasoft PP ?                                                          
   IUNSCR =        1    unscreen: 0-lin 1-nonlin 2-no                                               
   RPACOR =    2.000    partial core radius                                                         
   POMASS =   58.933; ZVAL   =    9.000    mass and valenz                                          
   RCORE  =    2.300    outmost cutoff radius                                                       
   RWIGS  =    2.460; RWIGS  =    1.302    wigner-seitz radius (au A)                               
   ENMAX  =  267.968; ENMIN  =  200.976 eV                                                          
   RCLOC  =    1.203    cutoff for local pot                                                        
   LCOR   =        T    correct aug charges                                                         
   LPAW   =        T    paw PP                                                                      
   EAUG   =  477.818                                                                                
   DEXC   =    0.000                                                                                
   RMAX   =    2.360    core radius for proj-oper                                                   
   RAUG   =    1.300    factor for augmentation sphere                                              
   RDEP   =    2.393    radius for radial grids                                                     
   RDEPT  =    1.864    core radius for aug-charge                                                  
                                                                                                    
   Atomic configuration                                                                             
    9 entries                                                                                       
     n  l   j            E        occ.                                                              
     1  0  0.50     -7587.6674   2.0000                                                             
     2  0  0.50      -893.6084   2.0000                                                             
     2  1  1.50      -764.5805   6.0000                                                             
     3  0  0.50       -97.5973   2.0000                                                             
     3  1  1.50       -60.9648   6.0000                                                             
     3  2  2.50        -4.2382   8.0000                                                             
     4  0  0.50        -4.3746   1.0000                                                             
     4  1  1.50        -4.0817   0.0000                                                             
     4  3  2.50        -1.3606   0.0000                                                             
   Description                                                                                      
     l       E           TYP  RCUT    TYP  RCUT                                                     
     2     -4.2382362     23  2.300                                                                 
     2     -5.5988188     23  2.300                                                                 
     0     -4.3745797     23  2.300                                                                 
     0      5.7660125     23  2.300                                                                 
     1     -2.7211652     23  2.300                                                                 
     1     16.9860234     23  2.300                                                                 
  local pseudopotential read in
  partial core-charges read in
  partial kinetic energy density read in
  atomic valenz-charges read in
  non local Contribution for L=           2  read in
    real space projection operators read in
  non local Contribution for L=           2  read in
    real space projection operators read in
  non local Contribution for L=           0  read in
    real space projection operators read in
  non local Contribution for L=           0  read in
    real space projection operators read in
  non local Contribution for L=           1  read in
    real space projection operators read in
  non local Contribution for L=           1  read in
    real space projection operators read in
    PAW grid and wavefunctions read in
 
   number of l-projection  operators is LMAX  =           6
   number of lm-projection operators is LMMAX =          18
 
 POTCAR:    PAW_PBE N 08Apr2002                   
   VRHFIN =N: s2p3                                                                                  
   LEXCH  = PE                                                                                      
   EATOM  =   264.5486 eV,   19.4438 Ry                                                             
                                                                                                    
   TITEL  = PAW_PBE N 08Apr2002                                                                     
   LULTRA =        F    use ultrasoft PP ?                                                          
   IUNSCR =        1    unscreen: 0-lin 1-nonlin 2-no                                               
   RPACOR =    1.200    partial core radius                                                         
   POMASS =   14.001; ZVAL   =    5.000    mass and valenz                                          
   RCORE  =    1.500    outmost cutoff radius                                                       
   RWIGS  =    1.400; RWIGS  =    0.741    wigner-seitz radius (au A)                               
   ENMAX  =  400.000; ENMIN  =  300.000 eV                                                          
   ICORE  =        2    local potential                                                             
   LCOR   =        T    correct aug charges                                                         
   LPAW   =        T    paw PP                                                                      
   EAUG   =  627.112                                                                                
   DEXC   =    0.000                                                                                
   RMAX   =    1.529    core radius for proj-oper                                                   
   RAUG   =    1.300    factor for augmentation sphere                                              
   RDEP   =    1.514    radius for radial grids                                                     
   RDEPT  =    1.338    core radius for aug-charge                                                  
                                                                                                    
   Atomic configuration                                                                             
    4 entries                                                                                       
     n  l   j            E        occ.                                                              
     1  0  0.50      -384.7179   2.0000                                                             
     2  0  0.50       -18.5828   2.0000                                                             
     2  1  0.50        -7.0898   3.0000                                                             
     3  2  1.50        -6.8029   0.0000                                                             
   Description                                                                                      
     l       E           TYP  RCUT    TYP  RCUT                                                     
     0    -18.5828119     23  1.200                                                                 
     0    -13.5018863     23  1.200                                                                 
     1     -7.0897853     23  1.500                                                                 
     1      9.5240782     23  1.500                                                                 
     2     -6.8029130      7  1.500                                                                 
  local pseudopotential read in
  partial core-charges read in
  partial kinetic energy density read in
  atomic valenz-charges read in
  non local Contribution for L=           0  read in
    real space projection operators read in
  non local Contribution for L=           0  read in
    real space projection operators read in
  non local Contribution for L=           1  read in
    real space projection operators read in
  non local Contribution for L=           1  read in
    real space projection operators read in
    PAW grid and wavefunctions read in
 
   number of l-projection  operators is LMAX  =           4
   number of lm-projection operators is LMMAX =           8
 
 Optimization of the real space projectors (new method)

 maximal supplied QI-value         = 15.12
 optimisation between [QCUT,QGAM] = [ 11.34, 22.83] = [ 36.00,145.93] Ry 
 Optimized for a Real-space Cutoff    1.43 Angstroem

   l    n(q)    QCUT    max X(q) W(low)/X(q) W(high)/X(q)  e(spline) 
   2      9    11.338    53.897    0.16E-03    0.20E-03    0.28E-06
   2      9    11.338    52.416    0.16E-03    0.20E-03    0.29E-06
   0     10    11.338   122.045    0.31E-04    0.76E-04    0.15E-06
   0     10    11.338    73.629    0.30E-04    0.72E-04    0.15E-06
   1      9    11.338    15.255    0.20E-03    0.19E-04    0.17E-06
   1      9    11.338     9.562    0.16E-03    0.15E-04    0.14E-06
 Optimization of the real space projectors (new method)

 maximal supplied QI-value         = 16.25
 optimisation between [QCUT,QGAM] = [ 11.38, 22.75] = [ 36.24,144.96] Ry 
 Optimized for a Real-space Cutoff    1.39 Angstroem

   l    n(q)    QCUT    max X(q) W(low)/X(q) W(high)/X(q)  e(spline) 
   2      8    11.376    65.824    0.20E-03    0.32E-04    0.13E-06
   2      8    11.376    61.429    0.20E-03    0.33E-04    0.14E-06
   0      9    11.376    56.174    0.76E-04    0.11E-03    0.19E-06
   0      9    11.376    31.263    0.69E-04    0.99E-04    0.17E-06
   1      9    11.376    19.828    0.35E-03    0.11E-03    0.12E-06
   1      9    11.376    15.139    0.29E-03    0.94E-04    0.10E-06
 Optimization of the real space projectors (new method)

 maximal supplied QI-value         = 25.13
 optimisation between [QCUT,QGAM] = [ 11.31, 22.87] = [ 35.82,146.48] Ry 
 Optimized for a Real-space Cutoff    1.27 Angstroem

   l    n(q)    QCUT    max X(q) W(low)/X(q) W(high)/X(q)  e(spline) 
   0      9    11.310    79.467    0.75E-04    0.16E-03    0.36E-06
   0      9    11.310    66.151    0.74E-04    0.16E-03    0.36E-06
   1      8    11.310    17.416    0.35E-03    0.12E-03    0.95E-06
   1      8    11.310    12.382    0.37E-03    0.13E-03    0.98E-06
  PAW_PBE Ag 02Apr2005                  :
 energy of atom  1       EATOM=-1037.2675
 kinetic energy error for atom=    0.0052 (will be added to EATOM!!)
  PAW_PBE Co 02Aug2007                  :
 energy of atom  2       EATOM= -813.3670
 kinetic energy error for atom=    0.0028 (will be added to EATOM!!)
  PAW_PBE N 08Apr2002                   :
 energy of atom  3       EATOM= -264.5486
 kinetic energy error for atom=    0.0138 (will be added to EATOM!!)
 
 
 POSCAR: Ag-Co-N2
  positions in direct lattice
  velocities in cartesian coordinates
 exchange correlation table for  LEXCH =        8
   RHO(1)=    0.500       N(1)  =     2000
   RHO(2)=  100.500       N(2)  =     4000

 VTST: version 3.2, (02/03/18)

 CHAIN: initializing optimizer
 
 OPT: Using VASP Conjugate-Gradient optimizer
 CHAIN: Read ICHAIN            0
 
 POSCAR: Ag-Co-N2
  positions in direct lattice
  velocities in cartesian coordinates
 


--------------------------------------------------------------------------------------------------------


 ion  position               nearest neighbor table
   1  0.000  0.000  0.238-   2 2.93   8 2.93   7 2.93   6 2.93   4 2.93  12 2.93  16 2.93  10 2.93
                             3 2.93
   2  0.333  0.000  0.238-   1 2.93   8 2.93   9 2.93   3 2.93   4 2.93   5 2.93  10 2.93  17 2.93
                            11 2.93
   3  0.667  0.000  0.238-   9 2.93   2 2.93   5 2.93  11 2.93   7 2.93  18 2.93   1 2.93   6 2.93
                            12 2.93
   4  0.000  0.333  0.238-   5 2.93   6 2.93   2 2.93   1 2.93   7 2.93  13 2.93  15 2.93   9 2.93
                            10 2.93
   5  0.333  0.333  0.238-   4 2.93   3 2.93   7 2.93   2 2.93   8 2.93  14 2.93  13 2.93  11 2.93
                             6 2.93
   6  0.667  0.333  0.238-   4 2.93   9 2.93   1 2.93  15 2.93   8 2.93  12 2.93   3 2.93   5 2.93
                            14 2.93
   7  0.000  0.667  0.238-   8 2.93   1 2.93   5 2.93   3 2.93   4 2.93  16 2.93  18 2.93  13 2.93
                             9 2.93
   8  0.333  0.667  0.238-   7 2.93   1 2.93   2 2.93   9 2.93   5 2.93  16 2.93   6 2.93  17 2.93
                            14 2.93
   9  0.667  0.667  0.238-   3 2.93   2 2.93   8 2.93   6 2.93  17 2.93   4 2.93  15 2.93   7 2.93
                            18 2.93
  10  0.111  0.111  0.346-  20 2.92  19 2.93  26 2.93  12 2.93  16 2.93  15 2.93  17 2.93  13 2.93
                            11 2.93   2 2.93   1 2.93   4 2.93
  11  0.444  0.111  0.346-  21 2.90  20 2.90  27 2.92  14 2.93  17 2.93  18 2.93   3 2.93  12 2.93
                            13 2.93  10 2.93   5 2.93   2 2.93
  12  0.778  0.111  0.346-  21 2.92  25 2.93  19 2.93  10 2.93  16 2.93  18 2.93  15 2.93  11 2.93
                             1 2.93  14 2.93   6 2.93   3 2.93
  13  0.111  0.444  0.346-  20 2.90  23 2.90  22 2.92  15 2.93  14 2.93  18 2.93  10 2.93  11 2.93
                            16 2.93   4 2.93   5 2.93   7 2.93
  14  0.444  0.444  0.346-  23 2.90  21 2.90  24 2.92  13 2.93  11 2.93  16 2.93   5 2.93  12 2.93
                            17 2.93   8 2.93  15 2.93   6 2.93
  15  0.778  0.444  0.346-  24 2.91  22 2.91  19 2.92  13 2.93  10 2.93  12 2.93  17 2.93  18 2.93
                             4 2.93   6 2.93   9 2.93  14 2.93
  16  0.111  0.778  0.346-  23 2.92  26 2.93  25 2.93  18 2.93  12 2.93  10 2.93  14 2.93  17 2.93
                            13 2.93   7 2.93   8 2.93   1 2.93
  17  0.444  0.778  0.346-  27 2.91  24 2.91  26 2.92  11 2.93  10 2.93   9 2.93  18 2.93  15 2.93
                            16 2.93   2 2.93  14 2.93   8 2.93
  18  0.778  0.778  0.346-  22 2.91  27 2.91  25 2.92  16 2.93  12 2.93  13 2.93  11 2.93  17 2.93
                            15 2.93   7 2.93   3 2.93   9 2.93
  19  0.889  0.222  0.454-  28 2.91  15 2.92  10 2.93  12 2.93  24 2.93  22 2.93  26 2.93  25 2.93
                            32 2.94  31 2.94  20 2.94  21 2.94
  20  0.223  0.223  0.453-  36 2.69  31 2.89  29 2.89  13 2.90  11 2.90  21 2.91  23 2.91  10 2.92
                            27 2.93  22 2.93  19 2.94  26 2.94
  21  0.554  0.223  0.453-  36 2.69  30 2.89  32 2.89  11 2.90  14 2.90  20 2.91  23 2.91  12 2.92
                            27 2.93  24 2.93  25 2.94  19 2.94
  22  0.888  0.556  0.453-  35 2.91  33 2.91  31 2.91  18 2.91  15 2.91  13 2.92  24 2.92  27 2.92
                            25 2.93  19 2.93  23 2.93  20 2.93
  23  0.223  0.554  0.453-  36 2.69  34 2.89  33 2.89  14 2.90  13 2.90  21 2.91  20 2.91  16 2.92
                            22 2.93  24 2.93  26 2.94  25 2.94
  24  0.556  0.556  0.453-  35 2.91  32 2.91  34 2.91  15 2.91  17 2.91  14 2.92  27 2.92  22 2.92
                            19 2.93  26 2.93  23 2.93  21 2.93
  25  0.889  0.889  0.454-  28 2.91  18 2.92  16 2.93  12 2.93  22 2.93  27 2.93  26 2.93  19 2.93
                            33 2.94  30 2.94  23 2.94  21 2.94
  26  0.222  0.889  0.454-  28 2.91  17 2.92  16 2.93  10 2.93  27 2.93  24 2.93  25 2.93  19 2.93
                            34 2.94  29 2.94  23 2.94  20 2.94
  27  0.556  0.888  0.453-  35 2.91  29 2.91  30 2.91  17 2.91  18 2.91  11 2.92  24 2.92  22 2.92
                            26 2.93  25 2.93  20 2.93  21 2.93
  28  0.000  0.000  0.560-  26 2.91  25 2.91  19 2.91  29 2.97  34 2.97  33 2.97  32 2.97  31 2.97
                            30 2.97
  29  0.333  0.008  0.560-  31 2.86  30 2.86  36 2.87  20 2.89  27 2.91  26 2.94  28 2.97  35 2.97
                            34 3.07
  30  0.659  0.008  0.560-  32 2.86  29 2.86  36 2.87  21 2.89  27 2.91  25 2.94  28 2.97  35 2.97
                            33 3.07
  31  0.008  0.333  0.560-  29 2.86  33 2.86  36 2.87  20 2.89  22 2.91  19 2.94  28 2.97  35 2.97
                            32 3.07
  32  0.659  0.333  0.560-  30 2.86  34 2.86  36 2.87  21 2.89  24 2.91  19 2.94  28 2.97  35 2.97
                            31 3.07
  33  0.008  0.659  0.560-  34 2.86  31 2.86  36 2.87  23 2.89  22 2.91  25 2.94  28 2.97  35 2.97
                            30 3.07
  34  0.333  0.659  0.560-  33 2.86  32 2.86  36 2.87  23 2.89  24 2.91  26 2.94  28 2.97  35 2.97
                            29 3.07
  35  0.667  0.667  0.560-  24 2.91  27 2.91  22 2.91  32 2.97  30 2.97  29 2.97  34 2.97  31 2.97
                            33 2.97
  36  0.333  0.333  0.547-  38 2.06  37 2.06  21 2.69  20 2.69  23 2.69  31 2.87  30 2.87  33 2.87
                            29 2.87  34 2.87  32 2.87
  37  0.267  0.333  0.636-  38 1.16  36 2.06
  38  0.400  0.333  0.636-  37 1.16  36 2.06
 
  LATTYP: Found a hexagonal cell.
 ALAT       =     8.7913665772
 C/A-ratio  =     2.5227160501
  
  Lattice vectors:
  
 A1 = (  -4.3956832886,  -7.6135467898,   0.0000000000)
 A2 = (   8.7913665771,   0.0000000000,   0.0000000000)
 A3 = (   0.0000000000,   0.0000000000,  22.1781215668)


Analysis of symmetry for initial positions (statically):
=====================================================================
 Subroutine PRICEL returns:
 Original cell was already a primitive cell.
 

 Routine SETGRP: Setting up the symmetry group for a 
 hexagonal supercell.


 Subroutine GETGRP returns: Found  2 space group operations
 (whereof  2 operations were pure point group operations)
 out of a pool of 24 trial point group operations.


The static configuration has the point symmetry C_1h.


Analysis of symmetry for dynamics (positions and initial velocities):
=====================================================================
 Subroutine PRICEL returns:
 Original cell was already a primitive cell.
 

 Routine SETGRP: Setting up the symmetry group for a 
 hexagonal supercell.


 Subroutine GETGRP returns: Found  2 space group operations
 (whereof  2 operations were pure point group operations)
 out of a pool of 24 trial point group operations.


The dynamic configuration has the point symmetry C_1h.


Analysis of constrained symmetry for selective dynamics:
=====================================================================
 Subroutine PRICEL returns:
 Original cell was already a primitive cell.
 

 Routine SETGRP: Setting up the symmetry group for a 
 hexagonal supercell.


 Subroutine GETGRP returns: Found  2 space group operations
 (whereof  2 operations were pure point group operations)
 out of a pool of 24 trial point group operations.


The constrained configuration has the point symmetry C_1h.


 Subroutine INISYM returns: Found  2 space group operations
 (whereof  2 operations are pure point group operations),
 and found     1 'primitive' translations


----------------------------------------------------------------------------------------

                                     Primitive cell                                     

  volume of cell :    1484.4589

  direct lattice vectors                    reciprocal lattice vectors
     8.791366577  0.000000000  0.000000000     0.113747958 -0.065672414  0.000000000
     4.395683289  7.613546790  0.000000000     0.000000000  0.131344829  0.000000000
     0.000000000  0.000000000 22.178121567     0.000000000  0.000000000  0.045089481

  length of vectors
     8.791366577  8.791366577 22.178121567     0.131344829  0.131344829  0.045089481

  position of ions in fractional coordinates (direct lattice)
     0.000000000  0.000000000  0.238171124
     0.333333313  0.000000000  0.238171124
     0.666666627  0.000000000  0.238171124
     0.000000000  0.333333343  0.238171124
     0.333333313  0.333333343  0.238171124
     0.666666687  0.333333343  0.238171124
     0.000000000  0.666666687  0.238171124
     0.333333313  0.666666687  0.238171124
     0.666666627  0.666666687  0.238171124
     0.111111104  0.111111112  0.346057051
     0.444444448  0.111111112  0.346057051
     0.777777791  0.111111112  0.346057051
     0.111111097  0.444444448  0.346057051
     0.444444418  0.444444448  0.346057051
     0.777777791  0.444444448  0.346057051
     0.111111104  0.777777791  0.346057051
     0.444444448  0.777777791  0.346057051
     0.777777791  0.777777791  0.346057051
     0.888752503  0.222495009  0.453681489
     0.223120888  0.223120903  0.452661462
     0.553758163  0.223120903  0.452661462
     0.888275417  0.555862322  0.453145952
     0.223120903  0.553758223  0.452661462
     0.555862322  0.555862322  0.453145952
     0.888752503  0.888752503  0.453681489
     0.222494979  0.888752503  0.453681489
     0.555862262  0.888275417  0.453145952
     0.000000000  0.000000000  0.560264796
     0.333222951  0.008221705  0.559989515
     0.658555284  0.008221705  0.559989515
     0.008221705  0.333222981  0.559989515
     0.658555344  0.333222981  0.559989515
     0.008221705  0.658555344  0.559989515
     0.333222951  0.658555344  0.559989515
     0.666666627  0.666666687  0.560068399
     0.333333313  0.333333343  0.547183351
     0.267464910  0.332914509  0.636128388
     0.399620549  0.332914509  0.636128388

  ion indices of the primitive-cell ions
   primitive index   ion index
                 1           1
                 2           2
                 3           3
                 4           4
                 5           5
                 6           6
                 7           7
                 8           8
                 9           9
                10          10
                11          11
                12          12
                13          13
                14          14
                15          15
                16          16
                17          17
                18          18
                19          19
                20          20
                21          21
                22          22
                23          23
                24          24
                25          25
                26          26
                27          27
                28          28
                29          29
                30          30
                31          31
                32          32
                33          33
                34          34
                35          35
                36          36
                37          37
                38          38

----------------------------------------------------------------------------------------

 
 
 KPOINTS: Automatic mesh                          

Automatic generation of k-mesh.
 Grid dimensions read from file:
 generate k-points for:    8    8    1

 Generating k-lattice:

  Cartesian coordinates                     Fractional coordinates (reciprocal lattice)
     0.014218495 -0.008209052  0.000000000     0.125000000  0.000000000  0.000000000
     0.000000000  0.016418104  0.000000000     0.000000000  0.125000000  0.000000000
     0.000000000  0.000000000  0.045089481     0.000000000  0.000000000  1.000000000

  Length of vectors
     0.016418104  0.016418104  0.045089481

  Shift w.r.t. Gamma in fractional coordinates (k-lattice)
     0.000000000  0.000000000  0.000000000

 TETIRR: Found    100 inequivalent tetrahedra from      384
 
 Subroutine IBZKPT returns following result:
 ===========================================
 
 Found     21 irreducible k-points:
 
 Following reciprocal coordinates:
            Coordinates               Weight
  0.000000  0.000000  0.000000      1.000000
  0.125000 -0.000000  0.000000      4.000000
  0.000000  0.125000  0.000000      2.000000
  0.250000 -0.000000  0.000000      4.000000
  0.000000  0.250000  0.000000      2.000000
  0.375000 -0.000000  0.000000      4.000000
  0.000000  0.375000  0.000000      2.000000
  0.500000 -0.000000  0.000000      2.000000
  0.000000  0.500000  0.000000      1.000000
  0.250000  0.125000  0.000000      2.000000
  0.125000  0.250000  0.000000      4.000000
  0.375000  0.125000  0.000000      4.000000
  0.250000  0.375000  0.000000      4.000000
 -0.125000  0.250000  0.000000      4.000000
  0.500000  0.125000  0.000000      4.000000
  0.375000  0.500000  0.000000      4.000000
 -0.125000  0.375000  0.000000      4.000000
  0.500000  0.250000  0.000000      2.000000
  0.250000  0.500000  0.000000      4.000000
 -0.375000  0.250000  0.000000      4.000000
 -0.250000  0.375000  0.000000      2.000000
 
 Following cartesian coordinates:
            Coordinates               Weight
  0.000000  0.000000  0.000000      1.000000
  0.014218 -0.008209  0.000000      4.000000
  0.000000  0.016418  0.000000      2.000000
  0.028437 -0.016418  0.000000      4.000000
  0.000000  0.032836  0.000000      2.000000
  0.042655 -0.024627  0.000000      4.000000
  0.000000  0.049254  0.000000      2.000000
  0.056874 -0.032836  0.000000      2.000000
  0.000000  0.065672  0.000000      1.000000
  0.028437 -0.000000  0.000000      2.000000
  0.014218  0.024627  0.000000      4.000000
  0.042655 -0.008209  0.000000      4.000000
  0.028437  0.032836  0.000000      4.000000
 -0.014218  0.041045  0.000000      4.000000
  0.056874 -0.016418  0.000000      4.000000
  0.042655  0.041045  0.000000      4.000000
 -0.014218  0.057463  0.000000      4.000000
  0.056874 -0.000000  0.000000      2.000000
  0.028437  0.049254  0.000000      4.000000
 -0.042655  0.057463  0.000000      4.000000
 -0.028437  0.065672  0.000000      2.000000
 


--------------------------------------------------------------------------------------------------------




 Dimension of arrays:
   k-points           NKPTS =     21   k-points in BZ     NKDIM =     21   number of bands    NBANDS=    252
   number of dos      NEDOS =    301   number of ions     NIONS =     38
   non local maximal  LDIM  =      6   non local SUM 2l+1 LMDIM =     18
   total plane-waves  NPLWV = 290304
   max r-space proj   IRMAX =   2452   max aug-charges    IRDMAX=   9814
   dimension x,y,z NGX =    48 NGY =   48 NGZ =  126
   dimension x,y,z NGXF=    96 NGYF=   96 NGZF=  252
   support grid    NGXF=    96 NGYF=   96 NGZF=  252
   ions per type =              35   1   2
   NGX,Y,Z   is equivalent  to a cutoff of   9.08,  9.08,  9.44 a.u.
   NGXF,Y,Z  is equivalent  to a cutoff of  18.15, 18.15, 18.89 a.u.

 SYSTEM =  unknown system                          
 POSCAR =  Ag-Co-N2                                

 Startparameter for this run:
   NWRITE =      2    write-flag & timer
   PREC   = normal    normal or accurate (medium, high low for compatibility)
   ISTART =      0    job   : 0-new  1-cont  2-samecut
   ICHARG =     11    charge: 1-file 2-atom 10-const
   ISPIN  =      1    spin polarized calculation?
   LNONCOLLINEAR =      F non collinear calculations
   LSORBIT =      F    spin-orbit coupling
   INIWAV =      1    electr: 0-lowe 1-rand  2-diag
   LASPH  =      F    aspherical Exc in radial PAW
   METAGGA=      F    non-selfconsistent MetaGGA calc.

 Electronic Relaxation 1
   ENCUT  =  500.0 eV  36.75 Ry    6.06 a.u.  16.03 16.03 40.44*2*pi/ulx,y,z
   ENINI  =  500.0     initial cutoff
   ENAUG  =  627.1 eV  augmentation charge cutoff
   NELM   =    150;   NELMIN=  2; NELMDL= -5     # of ELM steps 
   EDIFF  = 0.1E-04   stopping-criterion for ELM
   LREAL  =      T    real-space projection
   NLSPLINE    = F    spline interpolate recip. space projectors
   LCOMPAT=      F    compatible to vasp.4.4
   GGA_COMPAT  = T    GGA compatible to vasp.4.4-vasp.4.6
   LMAXPAW     = -100 max onsite density
   LMAXMIX     =    2 max onsite mixed and CHGCAR
   VOSKOWN=      0    Vosko Wilk Nusair interpolation
   ROPT   =   -0.00050  -0.00050  -0.00050
 Ionic relaxation
   EDIFFG = -.1E-01   stopping-criterion for IOM
   NSW    =      0    number of steps for IOM
   NBLOCK =      1;   KBLOCK =      1    inner block; outer block 
   IBRION =     -1    ionic relax: 0-MD 1-quasi-New 2-CG
   NFREE  =      1    steps in history (QN), initial steepest desc. (CG)
   ISIF   =      2    stress and relaxation
   IWAVPR =     10    prediction:  0-non 1-charg 2-wave 3-comb
   ISYM   =      2    0-nonsym 1-usesym 2-fastsym
   LCORR  =      T    Harris-Foulkes like correction to forces

   POTIM  = 0.5000    time-step for ionic-motion
   TEIN   =    0.0    initial temperature
   TEBEG  =    0.0;   TEEND  =   0.0 temperature during run
   SMASS  =  -3.00    Nose mass-parameter (am)
   estimated Nose-frequenzy (Omega)   =  0.10E-29 period in steps = 0.13E+47 mass=  -0.177E-26a.u.
   SCALEE = 1.0000    scale energy and forces
   NPACO  =    256;   APACO  = 16.0  distance and # of slots for P.C.
   PSTRESS=    0.0 pullay stress

  Mass of Ions in am
   POMASS = 107.87 58.93 14.00
  Ionic Valenz
   ZVAL   =  11.00  9.00  5.00
  Atomic Wigner-Seitz radii
   RWIGS  =  -1.00 -1.00 -1.00
  virtual crystal weights 
   VCA    =   1.00  1.00  1.00
   NELECT =     404.0000    total number of electrons
   NUPDOWN=      -1.0000    fix difference up-down

 DOS related values:
   EMIN   =  10.00;   EMAX   =-10.00  energy-range for DOS
   EFERMI =   0.00
   ISMEAR =    -5;   SIGMA  =   0.10  broadening in eV -4-tet -1-fermi 0-gaus

 Electronic relaxation 2 (details)
   IALGO  =     68    algorithm
   LDIAG  =      T    sub-space diagonalisation (order eigenvalues)
   LSUBROT=      F    optimize rotation matrix (better conditioning)
   TURBO    =      0    0=normal 1=particle mesh
   IRESTART =      0    0=no restart 2=restart with 2 vectors
   NREBOOT  =      0    no. of reboots
   NMIN     =      0    reboot dimension
   EREF     =   0.00    reference energy to select bands
   IMIX   =      4    mixing-type and parameters
     AMIX     =   0.40;   BMIX     =  1.00
     AMIX_MAG =   1.60;   BMIX_MAG =  1.00
     AMIN     =   0.10
     WC   =   100.;   INIMIX=   1;  MIXPRE=   1;  MAXMIX= -45

 Intra band minimization:
   WEIMIN = 0.0000     energy-eigenvalue tresh-hold
   EBREAK =  0.99E-08  absolut break condition
   DEPER  =   0.30     relativ break condition  

   TIME   =   0.40     timestep for ELM

  volume/ion in A,a.u.               =      39.06       263.62
  Fermi-wavevector in a.u.,A,eV,Ry     =   1.060912  2.004832 15.313814  1.125534
  Thomas-Fermi vector in A             =   2.196309
 
 Write flags
   LWAVE        =      F    write WAVECAR
   LDOWNSAMPLE  =      F    k-point downsampling of WAVECAR
   LCHARG       =      F    write CHGCAR
   LVTOT        =      F    write LOCPOT, total local potential
   LVHAR        =      F    write LOCPOT, Hartree potential only
   LELF         =      F    write electronic localiz. function (ELF)
   LORBIT       =     10    0 simple, 1 ext, 2 COOP (PROOUT), +10 PAW based schemes


 Dipole corrections
   LMONO  =      F    monopole corrections only (constant potential shift)
   LDIPOL =      F    correct potential (dipole corrections)
   IDIPOL =      0    1-x, 2-y, 3-z, 4-all directions 
   EPSILON=  1.0000000 bulk dielectric constant

 Exchange correlation treatment:
   GGA     =    --    GGA type
   LEXCH   =     8    internal setting for exchange type
   VOSKOWN=      0    Vosko Wilk Nusair interpolation
   LHFCALC =     F    Hartree Fock is set to
   LHFONE  =     F    Hartree Fock one center treatment
   AEXX    =    0.0000 exact exchange contribution

 Linear response parameters
   LEPSILON=     F    determine dielectric tensor
   LRPA    =     F    only Hartree local field effects (RPA)
   LNABLA  =     F    use nabla operator in PAW spheres
   LVEL    =     F    velocity operator in full k-point grid
   LINTERFAST=   F  fast interpolation
   KINTER  =     0    interpolate to denser k-point grid
   CSHIFT  =0.1000    complex shift for real part using Kramers Kronig
   OMEGAMAX=  -1.0    maximum frequency
   DEG_THRESHOLD= 0.2000000E-02 threshold for treating states as degnerate
   RTIME   =   -0.100 relaxation time in fs
  (WPLASMAI=    0.000 imaginary part of plasma frequency in eV, 0.658/RTIME)
   DFIELD  = 0.0000000 0.0000000 0.0000000 field for delta impulse in time
 
 Orbital magnetization related:
   ORBITALMAG=     F  switch on orbital magnetization
   LCHIMAG   =     F  perturbation theory with respect to B field
   DQ        =  0.001000  dq finite difference perturbation B field
   LLRAUG    =     F  two centre corrections for induced B field



--------------------------------------------------------------------------------------------------------


 Static calculation
 charge density and potential remain constant during run
 non-spin polarized calculation
 RMM-DIIS sequential band-by-band and
  variant of blocked Davidson during initial phase
 perform sub-space diagonalisation
    before iterative eigenvector-optimisation
 no mixing
 using additional bands           50
 real space projection scheme for non local part
 use partial core corrections
 calculate Harris-corrections to forces 
   (improved forces if not selfconsistent)
 use gradient corrections 
 WARNING: stress and forces are not correct
  (second derivative of E(xc) not defined)
 use of overlap-Matrix (Vanderbilt PP)
 Fermi weights with tetrahedron method with Bloechl corrections


--------------------------------------------------------------------------------------------------------


  energy-cutoff  :      500.00
  volume of cell :     1484.46
      direct lattice vectors                 reciprocal lattice vectors
     8.791366577  0.000000000  0.000000000     0.113747958 -0.065672414  0.000000000
     4.395683289  7.613546790  0.000000000     0.000000000  0.131344829  0.000000000
     0.000000000  0.000000000 22.178121567     0.000000000  0.000000000  0.045089481

  length of vectors
     8.791366577  8.791366577 22.178121567     0.131344829  0.131344829  0.045089481


 
 k-points in units of 2pi/SCALE and weight: Automatic mesh                          
   0.00000000  0.00000000  0.00000000       0.016
   0.01421849 -0.00820905  0.00000000       0.062
   0.00000000  0.01641810  0.00000000       0.031
   0.02843699 -0.01641810  0.00000000       0.062
   0.00000000  0.03283621  0.00000000       0.031
   0.04265548 -0.02462716  0.00000000       0.062
   0.00000000  0.04925431  0.00000000       0.031
   0.05687398 -0.03283621  0.00000000       0.031
   0.00000000  0.06567241  0.00000000       0.016
   0.02843699 -0.00000000  0.00000000       0.031
   0.01421849  0.02462716  0.00000000       0.062
   0.04265548 -0.00820905  0.00000000       0.062
   0.02843699  0.03283621  0.00000000       0.062
  -0.01421849  0.04104526  0.00000000       0.062
   0.05687398 -0.01641810  0.00000000       0.062
   0.04265548  0.04104526  0.00000000       0.062
  -0.01421849  0.05746336  0.00000000       0.062
   0.05687398 -0.00000000  0.00000000       0.031
   0.02843699  0.04925431  0.00000000       0.062
  -0.04265548  0.05746336  0.00000000       0.062
  -0.02843699  0.06567241  0.00000000       0.031
 
 k-points in reciprocal lattice and weights: Automatic mesh                          
   0.00000000  0.00000000  0.00000000       0.016
   0.12500000 -0.00000000  0.00000000       0.062
   0.00000000  0.12500000  0.00000000       0.031
   0.25000000 -0.00000000  0.00000000       0.062
   0.00000000  0.25000000  0.00000000       0.031
   0.37500000 -0.00000000  0.00000000       0.062
   0.00000000  0.37500000  0.00000000       0.031
   0.50000000 -0.00000000  0.00000000       0.031
   0.00000000  0.50000000  0.00000000       0.016
   0.25000000  0.12500000  0.00000000       0.031
   0.12500000  0.25000000  0.00000000       0.062
   0.37500000  0.12500000  0.00000000       0.062
   0.25000000  0.37500000  0.00000000       0.062
  -0.12500000  0.25000000  0.00000000       0.062
   0.50000000  0.12500000  0.00000000       0.062
   0.37500000  0.50000000  0.00000000       0.062
  -0.12500000  0.37500000  0.00000000       0.062
   0.50000000  0.25000000  0.00000000       0.031
   0.25000000  0.50000000  0.00000000       0.062
  -0.37500000  0.25000000  0.00000000       0.062
  -0.25000000  0.37500000  0.00000000       0.031
 
 position of ions in fractional coordinates (direct lattice) 
   0.00000000  0.00000000  0.23817112
   0.33333331  0.00000000  0.23817112
   0.66666663  0.00000000  0.23817112
   0.00000000  0.33333334  0.23817112
   0.33333331  0.33333334  0.23817112
   0.66666669  0.33333334  0.23817112
   0.00000000  0.66666669  0.23817112
   0.33333331  0.66666669  0.23817112
   0.66666663  0.66666669  0.23817112
   0.11111110  0.11111111  0.34605705
   0.44444445  0.11111111  0.34605705
   0.77777779  0.11111111  0.34605705
   0.11111110  0.44444445  0.34605705
   0.44444442  0.44444445  0.34605705
   0.77777779  0.44444445  0.34605705
   0.11111110  0.77777779  0.34605705
   0.44444445  0.77777779  0.34605705
   0.77777779  0.77777779  0.34605705
   0.88875250  0.22249501  0.45368149
   0.22312089  0.22312090  0.45266146
   0.55375816  0.22312090  0.45266146
   0.88827542  0.55586232  0.45314595
   0.22312090  0.55375822  0.45266146
   0.55586232  0.55586232  0.45314595
   0.88875250  0.88875250  0.45368149
   0.22249498  0.88875250  0.45368149
   0.55586226  0.88827542  0.45314595
   0.00000000  0.00000000  0.56026480
   0.33322295  0.00822170  0.55998951
   0.65855528  0.00822170  0.55998951
   0.00822170  0.33322298  0.55998951
   0.65855534  0.33322298  0.55998951
   0.00822170  0.65855534  0.55998951
   0.33322295  0.65855534  0.55998951
   0.66666663  0.66666669  0.56006840
   0.33333331  0.33333334  0.54718335
   0.26746491  0.33291451  0.63612839
   0.39962055  0.33291451  0.63612839
 
 position of ions in cartesian coordinates  (Angst):
   0.00000000  0.00000000  5.28218814
   2.93045535  0.00000000  5.28218814
   5.86091070  0.00000000  5.28218814
   1.46522781  2.53784900  5.28218814
   4.39568315  2.53784900  5.28218814
   7.32613904  2.53784900  5.28218814
   2.93045562  5.07569801  5.28218814
   5.86091096  5.07569801  5.28218814
   8.79136632  5.07569801  5.28218814
   1.46522770  0.84594965  7.67489535
   4.39568332  0.84594965  7.67489535
   7.32613893  0.84594965  7.67489535
   2.93045542  3.38379860  7.67489535
   5.86091083  3.38379860  7.67489535
   8.79136671  3.38379860  7.67489535
   4.39568328  5.92164760  7.67489535
   7.32613890  5.92164760  7.67489535
  10.25659451  5.92164760  7.67489535
   8.79136665  1.69397616 10.06180321
   2.94230635  1.69874144 10.03918093
   5.84905984  1.69874144 10.03918093
  10.25254953  4.23208379 10.04992602
   4.39568342  4.21606414 10.03918093
   7.33018415  4.23208379 10.04992602
  11.72002358  6.76655877 10.06180321
   5.86270945  6.76655877 10.06180321
   8.79136631  6.76292645 10.04992602
   0.00000000  0.00000000 12.42562075
   2.96562513  0.06259633 12.41951554
   5.82574092  0.06259633 12.41951554
   1.53702271  2.53700876 12.41951554
   7.25434413  2.53700876 12.41951554
   2.96708074  5.01394193 12.41951554
   5.82428584  5.01394193 12.41951554
   8.79136632  5.07569801 12.42126504
   4.39568315  2.53784900 12.13549887
   3.81476882  2.53466019 14.10813271
   4.97659749  2.53466019 14.10813271
 


--------------------------------------------------------------------------------------------------------


 k-point   1 :   0.0000 0.0000 0.0000  plane waves:   37683
 k-point   2 :   0.1250-0.0000 0.0000  plane waves:   37658
 k-point   3 :   0.0000 0.1250 0.0000  plane waves:   37658
 k-point   4 :   0.2500-0.0000 0.0000  plane waves:   37682
 k-point   5 :   0.0000 0.2500 0.0000  plane waves:   37682
 k-point   6 :   0.3750-0.0000 0.0000  plane waves:   37686
 k-point   7 :   0.0000 0.3750 0.0000  plane waves:   37686
 k-point   8 :   0.5000-0.0000 0.0000  plane waves:   37668
 k-point   9 :   0.0000 0.5000 0.0000  plane waves:   37668
 k-point  10 :   0.2500 0.1250 0.0000  plane waves:   37666
 k-point  11 :   0.1250 0.2500 0.0000  plane waves:   37666
 k-point  12 :   0.3750 0.1250 0.0000  plane waves:   37708
 k-point  13 :   0.2500 0.3750 0.0000  plane waves:   37708
 k-point  14 :  -0.1250 0.2500 0.0000  plane waves:   37708
 k-point  15 :   0.5000 0.1250 0.0000  plane waves:   37726
 k-point  16 :   0.3750 0.5000 0.0000  plane waves:   37726
 k-point  17 :  -0.1250 0.3750 0.0000  plane waves:   37726
 k-point  18 :   0.5000 0.2500 0.0000  plane waves:   37706
 k-point  19 :   0.2500 0.5000 0.0000  plane waves:   37706
 k-point  20 :  -0.3750 0.2500 0.0000  plane waves:   37686
 k-point  21 :  -0.2500 0.3750 0.0000  plane waves:   37686

 maximum and minimum number of plane-waves per node :     37726    37658

 maximum number of plane-waves:     37726
 maximum index in each direction: 
   IXMAX=   16   IYMAX=   16   IZMAX=   40
   IXMIN=  -16   IYMIN=  -16   IZMIN=  -40


 serial   3D FFT for wavefunctions
 parallel 3D FFT for charge:
    minimum data exchange during FFTs selected (reduces bandwidth)


 total amount of memory used by VASP MPI-rank0   183985. kBytes
=======================================================================

   base      :      30000. kBytes
   nonlr-proj:      15017. kBytes
   fftplans  :       4330. kBytes
   grid      :      17879. kBytes
   one-center:        590. kBytes
   wavefun   :     116169. kBytes
 
     INWAV:  cpu time    0.0000: real time    0.0000
 initial charge density was supplied:
 number of electron     403.9999933 magnetization 
 keeping initial charge density in first step


--------------------------------------------------------------------------------------------------------


 Maximum index for non-local projection operator         2351
 Maximum index for augmentation-charges          703 (set IRDMAX)


--------------------------------------------------------------------------------------------------------


 First call to EWALD:  gamma=   0.155
 Maximum number of real-space cells 4x 4x 2
 Maximum number of reciprocal cells 2x 2x 5

    FEWALD:  cpu time    0.0013: real time    0.0013


--------------------------------------- Iteration      1(   1)  ---------------------------------------


    POTLOK:  cpu time    0.0537: real time    0.0540
    SETDIJ:  cpu time    0.0048: real time    0.0048
     EDDAV:  cpu time   15.1021: real time   15.1077
 BZINTS: Fermi energy:    9.818279;  404.000000 electrons
         Band energy: 0.131618E+04;  BLOECHL correction:   -0.014541
       DOS:  cpu time    0.0312: real time    0.0312
    --------------------------------------------
      LOOP:  cpu time   15.1918: real time   15.1978

 eigenvalue-minimisations  : 10584
 total energy-change (2. order) : 0.2513247E+04  (-0.1873464E+05)
 number of electron     403.9999933 magnetization 
 augmentation part      403.9999933 magnetization 

 Free energy of the ion-electron system (eV)
  ---------------------------------------------------
  alpha Z        PSCENC =       761.08884678
  Ewald energy   TEWEN  =     99005.45940781
  -Hartree energ DENC   =   -137364.78013225
  -exchange      EXHF   =         0.00000000
  -V(xc)+E(xc)   XCENC  =      -333.42902202
  PAW double counting   =     40093.79731301   -38611.68286351
  entropy T*S    EENTRO =         0.00000000
  eigenvalues    EBANDS =      1316.17920324
  atomic energy  EATOM  =     37646.61470486
  Solvation  Ediel_sol  =         0.00000000
  ---------------------------------------------------
  free energy    TOTEN  =      2513.24745792 eV

  energy without entropy =     2513.24745792  energy(sigma->0) =     2513.24745792


--------------------------------------------------------------------------------------------------------




--------------------------------------- Iteration      1(   2)  ---------------------------------------


     EDDAV:  cpu time   15.7502: real time   15.7547
 BZINTS: Fermi energy:    1.501723;  404.000000 electrons
         Band energy:-0.120429E+04;  BLOECHL correction:   -0.024103
       DOS:  cpu time    0.0296: real time    0.0296
    --------------------------------------------
      LOOP:  cpu time   15.7798: real time   15.7843

 eigenvalue-minimisations  : 11172
 total energy-change (2. order) :-0.2520472E+04  (-0.2401014E+04)
 number of electron     403.9999933 magnetization 
 augmentation part      403.9999933 magnetization 

 Free energy of the ion-electron system (eV)
  ---------------------------------------------------
  alpha Z        PSCENC =       761.08884678
  Ewald energy   TEWEN  =     99005.45940781
  -Hartree energ DENC   =   -137364.78013225
  -exchange      EXHF   =         0.00000000
  -V(xc)+E(xc)   XCENC  =      -333.42902202
  PAW double counting   =     40093.79731301   -38611.68286351
  entropy T*S    EENTRO =         0.00000000
  eigenvalues    EBANDS =     -1204.29239426
  atomic energy  EATOM  =     37646.61470486
  Solvation  Ediel_sol  =         0.00000000
  ---------------------------------------------------
  free energy    TOTEN  =        -7.22413959 eV

  energy without entropy =       -7.22413959  energy(sigma->0) =       -7.22413959


--------------------------------------------------------------------------------------------------------




--------------------------------------- Iteration      1(   3)  ---------------------------------------


     EDDAV:  cpu time   17.8475: real time   17.8519
 BZINTS: Fermi energy:    0.946238;  404.000000 electrons
         Band energy:-0.130601E+04;  BLOECHL correction:   -0.046053
       DOS:  cpu time    0.0301: real time    0.0301
    --------------------------------------------
      LOOP:  cpu time   17.8775: real time   17.8820

 eigenvalue-minimisations  : 12992
 total energy-change (2. order) :-0.1017152E+03  (-0.9981775E+02)
 number of electron     403.9999933 magnetization 
 augmentation part      403.9999933 magnetization 

 Free energy of the ion-electron system (eV)
  ---------------------------------------------------
  alpha Z        PSCENC =       761.08884678
  Ewald energy   TEWEN  =     99005.45940781
  -Hartree energ DENC   =   -137364.78013225
  -exchange      EXHF   =         0.00000000
  -V(xc)+E(xc)   XCENC  =      -333.42902202
  PAW double counting   =     40093.79731301   -38611.68286351
  entropy T*S    EENTRO =         0.00000000
  eigenvalues    EBANDS =     -1306.00757332
  atomic energy  EATOM  =     37646.61470486
  Solvation  Ediel_sol  =         0.00000000
  ---------------------------------------------------
  free energy    TOTEN  =      -108.93931865 eV

  energy without entropy =     -108.93931865  energy(sigma->0) =     -108.93931865


--------------------------------------------------------------------------------------------------------




--------------------------------------- Iteration      1(   4)  ---------------------------------------


     EDDAV:  cpu time   16.0758: real time   16.0806
 BZINTS: Fermi energy:    0.936265;  404.000000 electrons
         Band energy:-0.130771E+04;  BLOECHL correction:   -0.046282
       DOS:  cpu time    0.0295: real time    0.0295
    --------------------------------------------
      LOOP:  cpu time   16.1053: real time   16.1100

 eigenvalue-minimisations  : 11452
 total energy-change (2. order) :-0.1700909E+01  (-0.1693770E+01)
 number of electron     403.9999933 magnetization 
 augmentation part      403.9999933 magnetization 

 Free energy of the ion-electron system (eV)
  ---------------------------------------------------
  alpha Z        PSCENC =       761.08884678
  Ewald energy   TEWEN  =     99005.45940781
  -Hartree energ DENC   =   -137364.78013225
  -exchange      EXHF   =         0.00000000
  -V(xc)+E(xc)   XCENC  =      -333.42902202
  PAW double counting   =     40093.79731301   -38611.68286351
  entropy T*S    EENTRO =         0.00000000
  eigenvalues    EBANDS =     -1307.70848222
  atomic energy  EATOM  =     37646.61470486
  Solvation  Ediel_sol  =         0.00000000
  ---------------------------------------------------
  free energy    TOTEN  =      -110.64022754 eV

  energy without entropy =     -110.64022754  energy(sigma->0) =     -110.64022754


--------------------------------------------------------------------------------------------------------




--------------------------------------- Iteration      1(   5)  ---------------------------------------


     EDDAV:  cpu time   17.7615: real time   17.7664
 BZINTS: Fermi energy:    0.936145;  404.000000 electrons
         Band energy:-0.130774E+04;  BLOECHL correction:   -0.046289
       DOS:  cpu time    0.0275: real time    0.0275
    --------------------------------------------
      LOOP:  cpu time   17.7890: real time   17.7939

 eigenvalue-minimisations  : 12908
 total energy-change (2. order) :-0.3577427E-01  (-0.3576792E-01)
 number of electron     403.9999933 magnetization 
 augmentation part      403.9999933 magnetization 

 Free energy of the ion-electron system (eV)
  ---------------------------------------------------
  alpha Z        PSCENC =       761.08884678
  Ewald energy   TEWEN  =     99005.45940781
  -Hartree energ DENC   =   -137364.78013225
  -exchange      EXHF   =         0.00000000
  -V(xc)+E(xc)   XCENC  =      -333.42902202
  PAW double counting   =     40093.79731301   -38611.68286351
  entropy T*S    EENTRO =         0.00000000
  eigenvalues    EBANDS =     -1307.74425649
  atomic energy  EATOM  =     37646.61470486
  Solvation  Ediel_sol  =         0.00000000
  ---------------------------------------------------
  free energy    TOTEN  =      -110.67600181 eV

  energy without entropy =     -110.67600181  energy(sigma->0) =     -110.67600181


--------------------------------------------------------------------------------------------------------




--------------------------------------- Iteration      1(   6)  ---------------------------------------


    EDDIAG:  cpu time    2.9627: real time    2.9635
  RMM-DIIS:  cpu time    8.2416: real time    8.2440
    ORTHCH:  cpu time    0.5532: real time    0.5532
 BZINTS: Fermi energy:    0.936142;  404.000000 electrons
         Band energy:-0.130775E+04;  BLOECHL correction:   -0.046289
       DOS:  cpu time    0.0294: real time    0.0294
    --------------------------------------------
      LOOP:  cpu time   11.7869: real time   11.7902

 eigenvalue-minimisations  : 10662
 total energy-change (2. order) :-0.8402183E-03  (-0.8401553E-03)
 number of electron     403.9999933 magnetization 
 augmentation part      403.9999933 magnetization 

 Free energy of the ion-electron system (eV)
  ---------------------------------------------------
  alpha Z        PSCENC =       761.08884678
  Ewald energy   TEWEN  =     99005.45940781
  -Hartree energ DENC   =   -137364.78013225
  -exchange      EXHF   =         0.00000000
  -V(xc)+E(xc)   XCENC  =      -333.42902202
  PAW double counting   =     40093.79731301   -38611.68286351
  entropy T*S    EENTRO =         0.00000000
  eigenvalues    EBANDS =     -1307.74509671
  atomic energy  EATOM  =     37646.61470486
  Solvation  Ediel_sol  =         0.00000000
  ---------------------------------------------------
  free energy    TOTEN  =      -110.67684203 eV

  energy without entropy =     -110.67684203  energy(sigma->0) =     -110.67684203


--------------------------------------------------------------------------------------------------------




--------------------------------------- Iteration      1(   7)  ---------------------------------------


    EDDIAG:  cpu time    2.9626: real time    2.9634
  RMM-DIIS:  cpu time   11.8305: real time   11.8339
    ORTHCH:  cpu time    0.5517: real time    0.5517
 BZINTS: Fermi energy:    0.936140;  404.000000 electrons
         Band energy:-0.130775E+04;  BLOECHL correction:   -0.046289
       DOS:  cpu time    0.0294: real time    0.0297
    --------------------------------------------
      LOOP:  cpu time   15.3742: real time   15.3787

 eigenvalue-minimisations  : 15433
 total energy-change (2. order) :-0.3294609E-03  (-0.3254651E-03)
 number of electron     403.9999933 magnetization 
 augmentation part      403.9999933 magnetization 

 Free energy of the ion-electron system (eV)
  ---------------------------------------------------
  alpha Z        PSCENC =       761.08884678
  Ewald energy   TEWEN  =     99005.45940781
  -Hartree energ DENC   =   -137364.78013225
  -exchange      EXHF   =         0.00000000
  -V(xc)+E(xc)   XCENC  =      -333.42902202
  PAW double counting   =     40093.79731301   -38611.68286351
  entropy T*S    EENTRO =         0.00000000
  eigenvalues    EBANDS =     -1307.74542617
  atomic energy  EATOM  =     37646.61470486
  Solvation  Ediel_sol  =         0.00000000
  ---------------------------------------------------
  free energy    TOTEN  =      -110.67717149 eV

  energy without entropy =     -110.67717149  energy(sigma->0) =     -110.67717149


--------------------------------------------------------------------------------------------------------




--------------------------------------- Iteration      1(   8)  ---------------------------------------


    EDDIAG:  cpu time    2.9645: real time    2.9653
  RMM-DIIS:  cpu time    9.2182: real time    9.2209
    ORTHCH:  cpu time    0.5523: real time    0.5523
 BZINTS: Fermi energy:    0.936140;  404.000000 electrons
         Band energy:-0.130775E+04;  BLOECHL correction:   -0.046289
       DOS:  cpu time    0.0275: real time    0.0275
    --------------------------------------------
      LOOP:  cpu time   12.7624: real time   12.7660

 eigenvalue-minimisations  : 11165
 total energy-change (2. order) :-0.2481422E-04  (-0.2492960E-04)
 number of electron     403.9999933 magnetization 
 augmentation part      403.9999933 magnetization 

 Free energy of the ion-electron system (eV)
  ---------------------------------------------------
  alpha Z        PSCENC =       761.08884678
  Ewald energy   TEWEN  =     99005.45940781
  -Hartree energ DENC   =   -137364.78013225
  -exchange      EXHF   =         0.00000000
  -V(xc)+E(xc)   XCENC  =      -333.42902202
  PAW double counting   =     40093.79731301   -38611.68286351
  entropy T*S    EENTRO =         0.00000000
  eigenvalues    EBANDS =     -1307.74545098
  atomic energy  EATOM  =     37646.61470486
  Solvation  Ediel_sol  =         0.00000000
  ---------------------------------------------------
  free energy    TOTEN  =      -110.67719631 eV

  energy without entropy =     -110.67719631  energy(sigma->0) =     -110.67719631


--------------------------------------------------------------------------------------------------------




--------------------------------------- Iteration      1(   9)  ---------------------------------------


    EDDIAG:  cpu time    2.9623: real time    2.9632
  RMM-DIIS:  cpu time    7.2312: real time    7.2331
    ORTHCH:  cpu time    0.5534: real time    0.5536
 BZINTS: Fermi energy:    0.936140;  404.000000 electrons
         Band energy:-0.130775E+04;  BLOECHL correction:   -0.046289
       DOS:  cpu time    0.0294: real time    0.0294
    --------------------------------------------
      LOOP:  cpu time   10.7763: real time   10.7793

 eigenvalue-minimisations  :  7721
 total energy-change (2. order) :-0.4209316E-05  (-0.4432109E-05)
 number of electron     403.9999933 magnetization 
 augmentation part      403.9999933 magnetization 

 Free energy of the ion-electron system (eV)
  ---------------------------------------------------
  alpha Z        PSCENC =       761.08884678
  Ewald energy   TEWEN  =     99005.45940781
  -Hartree energ DENC   =   -137364.78013225
  -exchange      EXHF   =         0.00000000
  -V(xc)+E(xc)   XCENC  =      -333.42902202
  PAW double counting   =     40093.79731301   -38611.68286351
  entropy T*S    EENTRO =         0.00000000
  eigenvalues    EBANDS =     -1307.74545519
  atomic energy  EATOM  =     37646.61470486
  Solvation  Ediel_sol  =         0.00000000
  ---------------------------------------------------
  free energy    TOTEN  =      -110.67720052 eV

  energy without entropy =     -110.67720052  energy(sigma->0) =     -110.67720052


--------------------------------------------------------------------------------------------------------




 average (electrostatic) potential at core
  the test charge radii are     1.1249  1.0452  0.7089
  (the norm of the test charge is              1.0000)
       1 -77.9850       2 -77.9383       3 -77.9382       4 -77.9372       5 -77.9258
       6 -77.9370       7 -77.9365       8 -77.9363       9 -77.9668      10 -78.1835
      11 -78.1567      12 -78.1832      13 -78.1538      14 -78.1536      15 -78.1807
      16 -78.1777      17 -78.1784      18 -78.1784      19 -78.1451      20 -78.1719
      21 -78.1716      22 -78.1664      23 -78.1668      24 -78.1664      25 -78.1467
      26 -78.1471      27 -78.1690      28 -77.9265      29 -77.9139      30 -77.9138
      31 -77.9043      32 -77.9041      33 -77.9111      34 -77.9110      35 -77.9081
      36 -86.8103      37 -70.2716      38 -70.2719
 
 
 
 E-fermi :   0.9361     XC(G=0):  -5.9736     alpha+bet : -5.6585

 Fermi energy:         0.9361402563

 k-point     1 :       0.0000    0.0000    0.0000
  band No.  band energies     occupation 
      1     -22.0495      2.00000
      2      -8.7093      2.00000
      3      -6.8011      2.00000
      4      -6.1321      2.00000
      5      -6.0216      2.00000
      6      -5.2993      2.00000
      7      -5.0767      2.00000
      8      -4.9630      2.00000
      9      -4.8999      2.00000
     10      -4.8924      2.00000
     11      -4.8895      2.00000
     12      -4.8892      2.00000
     13      -4.8836      2.00000
     14      -4.8813      2.00000
     15      -4.8681      2.00000
     16      -4.8481      2.00000
     17      -4.8478      2.00000
     18      -4.8459      2.00000
     19      -4.8366      2.00000
     20      -4.8351      2.00000
     21      -4.7197      2.00000
     22      -4.6832      2.00000
     23      -4.6802      2.00000
     24      -4.6777      2.00000
     25      -4.6745      2.00000
     26      -4.6738      2.00000
     27      -4.6693      2.00000
     28      -4.5007      2.00000
     29      -4.4976      2.00000
     30      -4.4962      2.00000
     31      -4.4752      2.00000
     32      -4.4575      2.00000
     33      -4.4523      2.00000
     34      -4.4522      2.00000
     35      -4.4430      2.00000
     36      -4.4401      2.00000
     37      -4.4333      2.00000
     38      -4.4253      2.00000
     39      -4.4241      2.00000
     40      -4.3402      2.00000
     41      -4.3273      2.00000
     42      -4.3251      2.00000
     43      -4.2423      2.00000
     44      -4.1872      2.00000
     45      -4.1622      2.00000
     46      -4.1173      2.00000
     47      -4.1165      2.00000
     48      -4.1042      2.00000
     49      -4.0996      2.00000
     50      -4.0980      2.00000
     51      -4.0719      2.00000
     52      -4.0712      2.00000
     53      -4.0336      2.00000
     54      -4.0265      2.00000
     55      -4.0111      2.00000
     56      -3.9442      2.00000
     57      -3.9397      2.00000
     58      -3.9225      2.00000
     59      -3.9118      2.00000
     60      -3.7102      2.00000
     61      -3.7046      2.00000
     62      -3.7040      2.00000
     63      -3.7016      2.00000
     64      -3.6929      2.00000
     65      -3.6926      2.00000
     66      -3.6673      2.00000
     67      -3.6668      2.00000
     68      -3.6396      2.00000
     69      -3.6391      2.00000
     70      -3.6367      2.00000
     71      -3.5441      2.00000
     72      -3.5436      2.00000
     73      -3.5360      2.00000
     74      -3.5355      2.00000
     75      -3.5280      2.00000
     76      -3.5233      2.00000
     77      -3.5231      2.00000
     78      -3.5024      2.00000
     79      -3.4967      2.00000
     80      -3.4966      2.00000
     81      -3.4806      2.00000
     82      -3.4647      2.00000
     83      -3.4633      2.00000
     84      -3.4587      2.00000
     85      -3.4450      2.00000
     86      -3.4345      2.00000
     87      -3.4307      2.00000
     88      -3.3916      2.00000
     89      -3.3914      2.00000
     90      -3.3290      2.00000
     91      -3.3283      2.00000
     92      -3.3145      2.00000
     93      -3.2993      2.00000
     94      -3.2992      2.00000
     95      -3.2713      2.00000
     96      -3.2621      2.00000
     97      -3.2491      2.00000
     98      -3.2485      2.00000
     99      -3.2221      2.00000
    100      -3.2208      2.00000
    101      -3.1969      2.00000
    102      -3.1254      2.00000
    103      -3.1121      2.00000
    104      -3.0039      2.00000
    105      -3.0017      2.00000
    106      -2.9995      2.00000
    107      -2.9824      2.00000
    108      -2.9746      2.00000
    109      -2.9742      2.00000
    110      -2.9476      2.00000
    111      -2.9380      2.00000
    112      -2.9243      2.00000
    113      -2.9232      2.00000
    114      -2.9097      2.00000
    115      -2.8633      2.00000
    116      -2.8576      2.00000
    117      -2.7861      2.00000
    118      -2.7844      2.00000
    119      -2.7748      2.00000
    120      -2.7301      2.00000
    121      -2.7255      2.00000
    122      -2.7063      2.00000
    123      -2.7043      2.00000
    124      -2.6577      2.00000
    125      -2.6558      2.00000
    126      -2.6403      2.00000
    127      -2.6245      2.00000
    128      -2.6226      2.00000
    129      -2.6181      2.00000
    130      -2.6154      2.00000
    131      -2.6048      2.00000
    132      -2.6048      2.00000
    133      -2.5989      2.00000
    134      -2.5899      2.00000
    135      -2.5889      2.00000
    136      -2.5869      2.00000
    137      -2.5593      2.00000
    138      -2.4580      2.00000
    139      -2.4514      2.00000
    140      -2.4135      2.00000
    141      -2.4016      2.00000
    142      -2.3999      2.00000
    143      -2.3967      2.00000
    144      -2.3965      2.00000
    145      -2.3881      2.00000
    146      -2.3856      2.00000
    147      -2.3820      2.00000
    148      -2.3787      2.00000
    149      -2.3709      2.00000
    150      -2.3579      2.00000
    151      -2.3549      2.00000
    152      -2.3182      2.00000
    153      -2.3028      2.00000
    154      -2.3015      2.00000
    155      -2.3003      2.00000
    156      -2.2907      2.00000
    157      -2.2898      2.00000
    158      -2.2892      2.00000
    159      -2.2476      2.00000
    160      -2.2470      2.00000
    161      -2.2433      2.00000
    162      -2.2258      2.00000
    163      -2.2242      2.00000
    164      -2.1984      2.00000
    165      -2.1972      2.00000
    166      -2.1959      2.00000
    167      -2.1950      2.00000
    168      -2.1826      2.00000
    169      -2.1783      2.00000
    170      -2.1534      2.00000
    171      -2.1531      2.00000
    172      -2.1515      2.00000
    173      -2.1299      2.00000
    174      -2.1279      2.00000
    175      -2.1250      2.00000
    176      -2.0828      2.00000
    177      -2.0821      2.00000
    178      -2.0354      2.00000
    179      -2.0341      2.00000
    180      -2.0007      2.00000
    181      -2.0006      2.00000
    182      -1.9857      2.00000
    183      -1.9744      2.00000
    184      -1.9302      2.00000
    185      -1.8958      2.00000
    186      -1.8942      2.00000
    187      -1.8795      2.00000
    188      -1.8740      2.00000
    189      -1.8420      2.00000
    190      -1.1555      2.00000
    191      -1.1458      2.00000
    192      -1.1386      2.00000
    193      -1.0908      2.00000
    194      -1.0857      2.00000
    195      -0.9238      2.00000
    196      -0.1102      2.00000
    197       0.1677      2.00000
    198       0.2215      2.00000
    199       0.3605      2.00000
    200       0.4184      2.00000
    201       0.5080      2.00000
    202       0.5995      2.00000
    203       0.6842      2.00000
    204       0.6937      2.00000
    205       0.7293      2.12703
    206       0.7352      1.43752
    207       1.2458      0.00000
    208       1.7884      0.00000
    209       2.4603      0.00000
    210       2.8122      0.00000
    211       2.8595      0.00000
    212       2.9616      0.00000
    213       2.9771      0.00000
    214       3.2445      0.00000
    215       3.3652      0.00000
    216       3.7436      0.00000
    217       4.2064      0.00000
    218       4.2160      0.00000
    219       4.3719      0.00000
    220       4.3776      0.00000
    221       4.3969      0.00000
    222       4.4912      0.00000
    223       5.0642      0.00000
    224       5.0807      0.00000
    225       5.1396      0.00000
    226       5.1575      0.00000
    227       5.1683      0.00000
    228       5.1887      0.00000
    229       5.2182      0.00000
    230       5.2321      0.00000
    231       5.3184      0.00000
    232       5.3594      0.00000
    233       5.4370      0.00000
    234       5.4837      0.00000
    235       5.5120      0.00000
    236       5.9293      0.00000
    237       6.5586      0.00000
    238       6.7325      0.00000
    239       6.7754      0.00000
    240       6.8049      0.00000
    241       6.8172      0.00000
    242       6.9321      0.00000
    243       7.0411      0.00000
    244       7.0969      0.00000
    245       7.1015      0.00000
    246       7.1377      0.00000
    247       7.1434      0.00000
    248       7.1989      0.00000
    249       7.2657      0.00000
    250       7.3919      0.00000
    251       7.4111      0.00000
    252       7.4475      0.00000

 k-point     2 :       0.1250   -0.0000    0.0000
  band No.  band energies     occupation 
      1     -22.0495      2.00000
      2      -8.7099      2.00000
      3      -6.7951      2.00000
      4      -6.0905      2.00000
      5      -6.0220      2.00000
      6      -5.2615      2.00000
      7      -5.0580      2.00000
      8      -4.9511      2.00000
      9      -4.9353      2.00000
     10      -4.9160      2.00000
     11      -4.8921      2.00000
     12      -4.8856      2.00000
     13      -4.8839      2.00000
     14      -4.8681      2.00000
     15      -4.8613      2.00000
     16      -4.8548      2.00000
     17      -4.8447      2.00000
     18      -4.7868      2.00000
     19      -4.7852      2.00000
     20      -4.7719      2.00000
     21      -4.7573      2.00000
     22      -4.7330      2.00000
     23      -4.7230      2.00000
     24      -4.6804      2.00000
     25      -4.6200      2.00000
     26      -4.6115      2.00000
     27      -4.5690      2.00000
     28      -4.5590      2.00000
     29      -4.5464      2.00000
     30      -4.5435      2.00000
     31      -4.4955      2.00000
     32      -4.4919      2.00000
     33      -4.4542      2.00000
     34      -4.4457      2.00000
     35      -4.4149      2.00000
     36      -4.4090      2.00000
     37      -4.4046      2.00000
     38      -4.3585      2.00000
     39      -4.3398      2.00000
     40      -4.3355      2.00000
     41      -4.3110      2.00000
     42      -4.3036      2.00000
     43      -4.2113      2.00000
     44      -4.1823      2.00000
     45      -4.1739      2.00000
     46      -4.1671      2.00000
     47      -4.1551      2.00000
     48      -4.1503      2.00000
     49      -4.1181      2.00000
     50      -4.1127      2.00000
     51      -4.0917      2.00000
     52      -4.0796      2.00000
     53      -4.0352      2.00000
     54      -4.0160      2.00000
     55      -3.9862      2.00000
     56      -3.9321      2.00000
     57      -3.9257      2.00000
     58      -3.9027      2.00000
     59      -3.8929      2.00000
     60      -3.7364      2.00000
     61      -3.7250      2.00000
     62      -3.7225      2.00000
     63      -3.7055      2.00000
     64      -3.7009      2.00000
     65      -3.6893      2.00000
     66      -3.6805      2.00000
     67      -3.6718      2.00000
     68      -3.6545      2.00000
     69      -3.6507      2.00000
     70      -3.6216      2.00000
     71      -3.5816      2.00000
     72      -3.5571      2.00000
     73      -3.5554      2.00000
     74      -3.5534      2.00000
     75      -3.5497      2.00000
     76      -3.5238      2.00000
     77      -3.5172      2.00000
     78      -3.5157      2.00000
     79      -3.5081      2.00000
     80      -3.4949      2.00000
     81      -3.4893      2.00000
     82      -3.4694      2.00000
     83      -3.4654      2.00000
     84      -3.4559      2.00000
     85      -3.4508      2.00000
     86      -3.4280      2.00000
     87      -3.4244      2.00000
     88      -3.4065      2.00000
     89      -3.3933      2.00000
     90      -3.3839      2.00000
     91      -3.3779      2.00000
     92      -3.3687      2.00000
     93      -3.3283      2.00000
     94      -3.3263      2.00000
     95      -3.2819      2.00000
     96      -3.2744      2.00000
     97      -3.2406      2.00000
     98      -3.2207      2.00000
     99      -3.1471      2.00000
    100      -3.1338      2.00000
[...]
  0.000   0.000   0.000   0.000   0.000   0.000   0.000   0.000   0.000   0.000   0.000   0.000   0.000   0.000   0.000   0.000
  0.000   0.000   0.000   0.000   0.000   0.000   0.000   0.000   0.000   0.000   0.000   0.000   0.000   0.000   0.000   0.000
  0.000   0.000   0.000   0.000   0.000   0.000   0.000   0.000   0.000   0.000   1.000   0.000   0.000   0.000   0.000   0.000
  0.000   0.000   0.000   0.000   0.000   0.000   0.000   0.000   0.000   0.000   0.000   0.000   0.000   0.000   0.000   0.000
  0.000   0.000   0.000   0.000   0.000   0.000   0.000   0.000   0.000   0.000   0.000   0.000   0.000   0.000   0.000   0.000
  0.000   0.000   0.000   0.000   0.000   0.000   0.000   0.000   0.000   0.000   0.000   0.000   0.000   0.000   0.000   0.000
  0.000   0.000   0.000   0.000   0.000   0.000   0.000   0.000   0.000   0.000   0.000   0.000   0.000   0.000   0.000   0.000
  0.000   0.000   0.000   0.000   0.000   0.000   0.000   0.000   0.000   0.000   0.000   0.000   0.000   0.000   0.000   0.000
  0.000   0.000   0.000   0.000   0.000   0.000   0.000   0.000   0.000   0.000   0.000   0.000   0.000   0.000   0.000   0.000
  0.000   0.000   0.000   0.000   0.000   0.000   0.000   0.000   0.000   0.000   0.000   0.000   0.000   0.000   0.000   0.000


------------------------ aborting loop because EDIFF is reached ----------------------------------------





 total charge

# of ion       s       p       d       tot
------------------------------------------
    1        0.416   0.203   9.178   9.797
    2        0.418   0.203   9.177   9.798
    3        0.418   0.203   9.177   9.798
    4        0.418   0.203   9.177   9.798
    5        0.418   0.204   9.176   9.798
    6        0.418   0.203   9.177   9.798
    7        0.419   0.203   9.177   9.799
    8        0.419   0.203   9.177   9.799
    9        0.414   0.204   9.179   9.796
   10        0.405   0.269   9.164   9.838
   11        0.409   0.267   9.167   9.844
   12        0.405   0.269   9.164   9.838
   13        0.408   0.268   9.168   9.844
   14        0.408   0.268   9.168   9.844
   15        0.401   0.271   9.164   9.837
   16        0.405   0.269   9.164   9.839
   17        0.400   0.272   9.165   9.837
   18        0.400   0.272   9.165   9.837
   19        0.399   0.267   9.168   9.834
   20        0.423   0.292   9.150   9.865
   21        0.423   0.292   9.150   9.865
   22        0.399   0.276   9.165   9.840
   23        0.420   0.295   9.149   9.864
   24        0.399   0.276   9.165   9.840
   25        0.404   0.266   9.167   9.836
   26        0.404   0.266   9.167   9.836
   27        0.399   0.275   9.166   9.840
   28        0.415   0.195   9.180   9.790
   29        0.417   0.203   9.183   9.802
   30        0.417   0.203   9.183   9.802
   31        0.404   0.206   9.185   9.794
   32        0.404   0.206   9.185   9.794
   33        0.416   0.203   9.183   9.802
   34        0.416   0.203   9.183   9.802
   35        0.411   0.196   9.181   9.788
   36        0.340   0.316   7.406   8.062
   37        1.344   2.458   0.000   3.801
   38        1.344   2.458   0.000   3.801
--------------------------------------------------
tot         17.394  13.604 328.399 359.397
 
    CHARGE:  cpu time    0.6706: real time    0.6710
    FORLOC:  cpu time    0.0102: real time    0.0102
    FORNL :  cpu time    3.0741: real time    3.0751
    STRESS:  cpu time    9.2139: real time    9.2166
    FORCOR:  cpu time    0.0533: real time    0.0534
    FORHAR:  cpu time    0.0167: real time    0.0167
    OFIELD:  cpu time    0.0002: real time    0.0002

  FORCE on cell =-STRESS in cart. coord.  units (eV):
  Direction    XX          YY          ZZ          XY          YZ          ZX
  --------------------------------------------------------------------------------------
  Alpha Z   761.08885   761.08885   761.08885
  Ewald  122016.79070121687.09946************     0.00006     0.14956     0.00007
  Hartree132354.58813132227.85911************     0.00003     0.12986     0.00003
  E(xc)   -2117.10465 -2118.32510 -2122.80288     0.00001    -0.00956     0.00000
  Local  ************************265179.12351     0.00086    -0.51241    -0.00018
  n-local  -357.93436  -346.43630  -357.25940     2.25183     0.03702     0.11231
  augment  3379.80074  3379.67828  3383.90780    -0.00019     0.13186     0.00002
  Kinetic  5026.34480  5041.60058  5061.79490     1.18706     0.17302    -0.01847
  Fock        0.00000     0.00000     0.00000     0.00000     0.00000     0.00000
  -------------------------------------------------------------------------------------
  Total      -8.34120    -8.01701    -1.63375    -0.00000     0.09935     0.00000
  in kB      -9.00266    -8.65276    -1.76330    -0.00000     0.10723     0.00000
  external pressure =       -6.47 kB  Pullay stress =        0.00 kB


 VOLUME and BASIS-vectors are now :
 -----------------------------------------------------------------------------
  energy-cutoff  :      500.00
  volume of cell :     1484.46
      direct lattice vectors                 reciprocal lattice vectors
     8.791366577  0.000000000  0.000000000     0.113747958 -0.065672414  0.000000000
     4.395683289  7.613546790  0.000000000     0.000000000  0.131344829  0.000000000
     0.000000000  0.000000000 22.178121567     0.000000000  0.000000000  0.045089481

  length of vectors
     8.791366577  8.791366577 22.178121567     0.131344829  0.131344829  0.045089481


 FORCES acting on ions
    electron-ion (+dipol)            ewald-force                    non-local-force                 convergence-correction
 -----------------------------------------------------------------------------------------------
   0.459E-04 -.927E-02 0.253E+04   -.954E-04 -.157E-01 -.253E+04   -.164E-13 -.250E-02 -.233E+01   -.200E-03 0.264E-01 -.218E+00
   0.708E+00 0.712E+00 0.253E+04   -.682E+00 -.738E+00 -.253E+04   0.163E-01 0.397E-01 -.165E+01   -.329E-01 -.253E-03 -.185E+00
   -.708E+00 0.711E+00 0.253E+04   0.682E+00 -.738E+00 -.253E+04   -.163E-01 0.397E-01 -.165E+01   0.325E-01 0.163E-02 -.184E+00
   0.842E+00 0.198E+00 0.253E+04   -.967E+00 -.228E+00 -.253E+04   0.121E+00 0.159E-01 -.167E+01   0.137E-01 0.109E-01 -.229E+00
   -.721E-05 0.436E-01 0.253E+04   0.981E-04 0.807E-03 -.253E+04   -.787E-13 -.120E-01 -.148E+01   0.626E-02 -.322E-01 -.139E+00
   -.842E+00 0.198E+00 0.253E+04   0.967E+00 -.229E+00 -.253E+04   -.121E+00 0.159E-01 -.167E+01   -.151E-01 0.117E-01 -.228E+00
   0.386E+00 -.923E+00 0.253E+04   -.285E+00 0.967E+00 -.253E+04   -.398E-02 -.584E-01 -.164E+01   -.794E-01 0.461E-02 -.211E+00
   -.386E+00 -.923E+00 0.253E+04   0.285E+00 0.967E+00 -.253E+04   0.398E-02 -.584E-01 -.164E+01   0.809E-01 0.355E-02 -.211E+00
   0.361E-04 0.717E-02 0.253E+04   0.792E-04 0.149E-01 -.253E+04   0.362E-13 0.551E-02 -.205E+01   -.658E-02 -.268E-01 -.233E+00
   0.623E+01 0.371E+01 0.889E+03   -.589E+01 -.352E+01 -.888E+03   -.366E+00 -.203E+00 -.725E+00   0.416E-01 0.206E-01 0.940E-01
   -.299E-04 0.779E+01 0.901E+03   0.419E-04 -.793E+01 -.900E+03   0.651E-12 0.991E-01 -.467E+00   0.685E-02 -.109E-02 0.143E+00
   -.623E+01 0.371E+01 0.889E+03   0.589E+01 -.352E+01 -.888E+03   0.366E+00 -.203E+00 -.725E+00   -.437E-01 0.215E-01 0.949E-01
   0.663E+01 -.386E+01 0.901E+03   -.675E+01 0.399E+01 -.900E+03   0.908E-01 -.733E-01 -.427E+00   0.346E-02 -.358E-01 0.142E+00
   -.663E+01 -.386E+01 0.901E+03   0.675E+01 0.399E+01 -.900E+03   -.908E-01 -.733E-01 -.427E+00   0.706E-02 -.373E-01 0.141E+00
   0.167E-04 0.120E+01 0.890E+03   -.109E-03 -.124E+01 -.889E+03   0.212E-12 0.322E-01 -.786E+00   -.174E-02 -.783E-02 0.467E-01
   -.798E-05 -.727E+01 0.889E+03   0.208E-04 0.683E+01 -.888E+03   0.278E-11 0.423E+00 -.748E+00   -.351E-03 -.105E-01 0.816E-01
   0.108E+01 -.730E+00 0.890E+03   -.115E+01 0.701E+00 -.889E+03   0.102E-01 0.204E-02 -.675E+00   0.313E-01 0.334E-01 0.510E-01
   -.108E+01 -.730E+00 0.890E+03   0.115E+01 0.701E+00 -.889E+03   -.102E-01 0.204E-02 -.675E+00   -.307E-01 0.358E-01 0.532E-01
   0.430E-04 0.415E+01 -.791E+03   -.130E-03 -.426E+01 0.790E+03   0.952E-12 0.145E+00 0.845E+00   -.651E-02 -.311E-01 0.192E+00
   0.391E+02 0.235E+02 -.729E+03   -.382E+02 -.228E+02 0.729E+03   -.107E+01 -.704E+00 -.113E+01   0.200E+00 0.832E-01 0.381E+00
   -.391E+02 0.235E+02 -.729E+03   0.382E+02 -.228E+02 0.729E+03   0.107E+01 -.704E+00 -.113E+01   -.199E+00 0.813E-01 0.381E+00
   0.168E+02 -.104E+02 -.775E+03   -.170E+02 0.106E+02 0.774E+03   0.163E+00 -.153E+00 0.530E+00   0.860E-01 -.569E-01 0.163E+00
   -.636E-04 -.463E+02 -.730E+03   0.475E-04 0.452E+02 0.730E+03   0.858E-11 0.131E+01 -.104E+01   -.691E-03 -.251E+00 0.462E+00
   -.168E+02 -.104E+02 -.775E+03   0.170E+02 0.106E+02 0.774E+03   -.163E+00 -.153E+00 0.530E+00   -.749E-01 -.594E-01 0.163E+00
   -.331E+01 -.156E+01 -.792E+03   0.331E+01 0.154E+01 0.791E+03   -.189E-01 -.133E-01 0.795E+00   0.108E-01 0.317E-01 0.218E+00
   0.331E+01 -.156E+01 -.792E+03   -.331E+01 0.154E+01 0.791E+03   0.189E-01 -.133E-01 0.795E+00   -.232E-01 0.312E-01 0.218E+00
   0.208E-04 0.193E+02 -.776E+03   0.109E-03 -.197E+02 0.775E+03   0.201E-11 0.307E+00 0.594E+00   0.709E-02 0.131E+00 0.157E+00
   0.544E-04 0.309E+01 -.247E+04   -.116E-03 -.303E+01 0.246E+04   -.438E-12 -.666E-01 0.188E+01   -.326E-03 -.137E-01 0.290E+00
   0.480E+02 0.914E+02 -.244E+04   -.477E+02 -.915E+02 0.243E+04   -.409E+00 -.290E+00 0.243E+01   -.865E-02 0.105E+00 0.161E+00
   -.480E+02 0.914E+02 -.244E+04   0.477E+02 -.915E+02 0.243E+04   0.409E+00 -.290E+00 0.243E+01   0.852E-02 0.106E+00 0.159E+00
   0.109E+03 -.258E-01 -.243E+04   -.109E+03 0.185E+00 0.242E+04   0.114E-01 -.746E-01 0.305E+01   0.132E+00 -.629E-01 0.165E+00
   -.109E+03 -.258E-01 -.243E+04   0.109E+03 0.185E+00 0.242E+04   -.114E-01 -.746E-01 0.305E+01   -.132E+00 -.628E-01 0.164E+00
   0.476E+02 -.912E+02 -.244E+04   -.475E+02 0.911E+02 0.243E+04   -.299E+00 0.377E+00 0.244E+01   0.793E-01 -.407E-01 0.156E+00
   -.476E+02 -.912E+02 -.244E+04   0.475E+02 0.911E+02 0.243E+04   0.299E+00 0.377E+00 0.244E+01   -.787E-01 -.412E-01 0.157E+00
   0.199E-04 -.300E+01 -.247E+04   0.107E-03 0.290E+01 0.246E+04   0.604E-12 0.919E-01 0.195E+01   -.596E-02 0.166E-01 0.323E+00
   -.375E-04 -.443E+00 -.168E+04   0.866E-04 0.446E+00 0.168E+04   0.451E-12 0.687E-01 0.375E+01   0.542E-02 -.111E-01 -.181E+00
   0.222E+03 -.613E-01 -.136E+04   -.263E+03 0.477E-01 0.136E+04   0.403E+02 0.150E-01 -.796E+01   0.565E-01 -.834E-02 -.135E+00
   -.222E+03 -.613E-01 -.136E+04   0.263E+03 0.477E-01 0.136E+04   -.403E+02 0.150E-01 -.796E+01   -.582E-01 -.833E-02 -.135E+00
 -----------------------------------------------------------------------------------------------
   0.460E-03 -.114E+00 0.107E+02   0.568E-13 0.182E-12 -.455E-11   0.102E-11 0.155E+00 -.131E+02   0.107E-01 -.430E-01 0.247E+01
 
 
 POSITION                                       TOTAL-FORCE (eV/Angst)
 -----------------------------------------------------------------------------------
      0.00000      0.00000      5.28219        -0.000000     -0.000966      0.033352
      2.93046      0.00000      5.28219         0.010104      0.013785      0.052561
      5.86091      0.00000      5.28219        -0.010104      0.013785      0.052561
      1.46523      2.53785      5.28219         0.010760     -0.003667      0.051505
      4.39568      2.53785      5.28219         0.000000      0.000249      0.024124
      7.32614      2.53785      5.28219        -0.010760     -0.003667      0.051505
      2.93046      5.07570      5.28219         0.017672     -0.010417      0.051114
      5.86091      5.07570      5.28219        -0.017672     -0.010417      0.051114
      8.79137      5.07570      5.28219         0.000000      0.000816      0.043704
      1.46523      0.84595      7.67490         0.013298      0.011297     -0.005047
      4.39568      0.84595      7.67490        -0.000000     -0.036733     -0.090308
      7.32614      0.84595      7.67490        -0.013298      0.011297     -0.005047
      2.93046      3.38380      7.67490        -0.031888      0.021008     -0.082079
      5.86091      3.38380      7.67490         0.031888      0.021008     -0.082079
      8.79137      3.38380      7.67490        -0.000000     -0.017217     -0.013759
      4.39568      5.92165      7.67490        -0.000000     -0.029784      0.004173
      7.32614      5.92165      7.67490        -0.020895      0.007796      0.004792
     10.25659      5.92165      7.67490         0.020895      0.007796      0.004792
      8.79137      1.69398     10.06180         0.000000      0.008532      0.038215
      2.94231      1.69874     10.03918        -0.006577     -0.008048     -0.083488
      5.84906      1.69874     10.03918         0.006577     -0.008048     -0.083488
     10.25255      4.23208     10.04993         0.047157     -0.024898      0.007113
      4.39568      4.21606     10.03918        -0.000000     -0.018617     -0.074141
      7.33018      4.23208     10.04993        -0.047157     -0.024898      0.007113
     11.72002      6.76656     10.06180        -0.005719     -0.003674     -0.007393
      5.86271      6.76656     10.06180         0.005719     -0.003674     -0.007393
      8.79137      6.76293     10.04993         0.000000      0.037388     -0.005644
      0.00000      0.00000     12.42562        -0.000000     -0.011975     -0.014322
      2.96563      0.06260     12.41952        -0.102304     -0.251304     -0.170118
      5.82574      0.06260     12.41952         0.102304     -0.251304     -0.170118
      1.53702      2.53701     12.41952        -0.277477      0.022045     -0.173706
      7.25434      2.53701     12.41952         0.277477      0.022045     -0.173706
      2.96708      5.01394     12.41952        -0.132632      0.232167     -0.165000
      5.82429      5.01394     12.41952         0.132632      0.232167     -0.165000
      8.79137      5.07570     12.42127         0.000000      0.009742      0.003429
      4.39568      2.53785     12.13550         0.000000      0.060234      1.127654
      3.81477      2.53466     14.10813        -0.025012     -0.006925     -0.018493
      4.97660      2.53466     14.10813         0.025012     -0.006925     -0.018493
 -----------------------------------------------------------------------------------
    total drift:                                0.011200     -0.001322      0.035115


--------------------------------------------------------------------------------------------------------



  FREE ENERGIE OF THE ION-ELECTRON SYSTEM (eV)
  ---------------------------------------------------
  free  energy   TOTEN  =      -110.67720052 eV

  energy  without entropy=     -110.67720052  energy(sigma->0) =     -110.67720052
 


--------------------------------------------------------------------------------------------------------


    POTLOK:  cpu time    0.0450: real time    0.0450


--------------------------------------------------------------------------------------------------------


 stress matrix after NEB project (eV)
     -8.34120     -0.00000      0.00000
     -0.00000     -8.01701      0.09935
      0.00000      0.09935     -1.63375
  FORCES: max atom, RMS     0.031868    0.007311
  FORCE total and by dimension    0.045068    0.025012
  Stress total and by dimension   11.684900    8.341199
     LOOP+:  cpu time  146.6109: real time  146.6621
 -----------------------------------------------------------------------------
|                                                                             |
|           W    W    AA    RRRRR   N    N  II  N    N   GGGG   !!!           |
|           W    W   A  A   R    R  NN   N  II  NN   N  G    G  !!!           |
|           W    W  A    A  R    R  N N  N  II  N N  N  G       !!!           |
|           W WW W  AAAAAA  RRRRR   N  N N  II  N  N N  G  GGG   !            |
|           WW  WW  A    A  R   R   N   NN  II  N   NN  G    G                |
|           W    W  A    A  R    R  N    N  II  N    N   GGGG   !!!           |
|                                                                             |
|     Tetrahedron method does not include variations of the Fermi             |
|     occupations, so forces and stress will be inaccurate. We suggest        |
|     using a different smearing scheme ISMEAR = 1 or 2 for metals in         |
|     relaxations.                                                            |
|                                                                             |
 -----------------------------------------------------------------------------

    4ORBIT:  cpu time    0.0000: real time    0.0000



 total charge

# of ion       s       p       d       tot
------------------------------------------
    1        0.416   0.203   9.178   9.797
    2        0.418   0.203   9.177   9.798
    3        0.418   0.203   9.177   9.798
    4        0.418   0.203   9.177   9.798
    5        0.418   0.204   9.176   9.798
    6        0.418   0.203   9.177   9.798
    7        0.419   0.203   9.177   9.799
    8        0.419   0.203   9.177   9.799
    9        0.414   0.204   9.179   9.796
   10        0.405   0.269   9.164   9.838
   11        0.409   0.267   9.167   9.844
   12        0.405   0.269   9.164   9.838
   13        0.408   0.268   9.168   9.844
   14        0.408   0.268   9.168   9.844
   15        0.401   0.271   9.164   9.837
   16        0.405   0.269   9.164   9.839
   17        0.400   0.272   9.165   9.837
   18        0.400   0.272   9.165   9.837
   19        0.399   0.267   9.168   9.834
   20        0.423   0.292   9.150   9.865
   21        0.423   0.292   9.150   9.865
   22        0.399   0.276   9.165   9.840
   23        0.420   0.295   9.149   9.864
   24        0.399   0.276   9.165   9.840
   25        0.404   0.266   9.167   9.836
   26        0.404   0.266   9.167   9.836
   27        0.399   0.275   9.166   9.840
   28        0.415   0.195   9.180   9.790
   29        0.417   0.203   9.183   9.802
   30        0.417   0.203   9.183   9.802
   31        0.404   0.206   9.185   9.794
   32        0.404   0.206   9.185   9.794
   33        0.416   0.203   9.183   9.802
   34        0.416   0.203   9.183   9.802
   35        0.411   0.196   9.181   9.788
   36        0.340   0.316   7.406   8.062
   37        1.344   2.458   0.000   3.801
   38        1.344   2.458   0.000   3.801
--------------------------------------------------
tot         17.394  13.604 328.399 359.397
 
 BZINTS: Fermi energy:    0.936140;  404.000000 electrons
         Band energy:-0.130775E+04;  BLOECHL correction:   -0.046289

 total amount of memory used by VASP MPI-rank0   183985. kBytes
=======================================================================

   base      :      30000. kBytes
   nonlr-proj:      15017. kBytes
   fftplans  :       4330. kBytes
   grid      :      17879. kBytes
   one-center:        590. kBytes
   wavefun   :     116169. kBytes
 
  
  
 General timing and accounting informations for this job:
 ========================================================
  
                  Total CPU time used (sec):      160.322
                            User time (sec):      154.398
                          System time (sec):        5.924
                         Elapsed time (sec):      160.780
  
                   Maximum memory used (kb):      458932.
                   Average memory used (kb):          N/A
  
                          Minor page faults:       106336
                          Major page faults:            0
                 Voluntary context switches:         5032
