PROCAR new format
# of k-points:   10         # of bands:  252         # of ions:   38

 k-point     1 :    0.00000000 0.00000000 0.00000000     weight = 0.01562500

band     1 # energy  -23.45962638 # occ.  2.00000000
 
ion      s      p      d    tot
    1  0.000  0.000  0.000  0.000
    2  0.000  0.000  0.000  0.000
    3  0.000  0.000  0.000  0.000
    4  0.000  0.000  0.000  0.000
    5  0.000  0.000  0.000  0.000
    6  0.000  0.000  0.000  0.000
    7  0.000  0.000  0.000  0.000
    8  0.000  0.000  0.000  0.000
    9  0.000  0.000  0.000  0.000
   10  0.000  0.000  0.000  0.000
   11  0.000  0.000  0.000  0.000
   12  0.000  0.000  0.000  0.000
   13  0.000  0.000  0.000  0.000
   14  0.000  0.000  0.000  0.000
   15  0.000  0.000  0.000  0.000
   16  0.000  0.000  0.000  0.000
   17  0.000  0.000  0.000  0.000
   18  0.000  0.000  0.000  0.000
   19  0.000  0.000  0.000  0.000
   20  0.000  0.000  0.000  0.000
   21  0.000  0.000  0.000  0.000
   22  0.000  0.000  0.000  0.000
   23  0.000  0.000  0.000  0.000
   24  0.000  0.000  0.000  0.000
   25  0.000  0.000  0.000  0.000
   26  0.000  0.000  0.000  0.000
   27  0.000  0.000  0.000  0.000
   28  0.000  0.000  0.000  0.000
   29  0.000  0.000  0.000  0.000
   30  0.000  0.000  0.000  0.000
   31  0.000  0.000  0.000  0.000
   32  0.000  0.000  0.000  0.000
   33  0.000  0.000  0.000  0.000
   34  0.000  0.000  0.000  0.000
   35  0.000  0.000  0.000  0.000
   36  0.000  0.000  0.000  0.001
   37  0.158  0.112  0.000  0.270
   38  0.634  0.094  0.000  0.728
tot    0.792  0.206  0.000  0.999
 
band     2 # energy   -9.96842822 # occ.  2.00000000
 
ion      s      p      d    tot
    1  0.000  0.000  0.000  0.000
    2  0.000  0.000  0.000  0.000
    3  0.000  0.000  0.000  0.000
    4  0.000  0.000  0.000  0.000
    5  0.000  0.000  0.000  0.000
    6  0.000  0.000  0.000  0.000
    7  0.000  0.000  0.000  0.000
    8  0.000  0.000  0.000  0.000
    9  0.000  0.000  0.000  0.000
   10  0.002  0.000  0.000  0.002
   11  0.002  0.000  0.000  0.002
   12  0.002  0.000  0.000  0.002
   13  0.002  0.000  0.000  0.002
   14  0.002  0.000  0.000  0.002
   15  0.002  0.000  0.000  0.002
   16  0.002  0.000  0.000  0.002
   17  0.002  0.000  0.000  0.002
   18  0.002  0.000  0.000  0.002
   19  0.004  0.000  0.000  0.004
   20  0.010  0.001  0.001  0.012
   21  0.010  0.001  0.001  0.012
   22  0.004  0.000  0.000  0.004
   23  0.010  0.001  0.001  0.012
   24  0.004  0.000  0.000  0.004
   25  0.004  0.000  0.000  0.004
   26  0.004  0.000  0.000  0.004
   27  0.004  0.000  0.000  0.004
   28  0.002  0.000  0.000  0.002
   29  0.004  0.000  0.000  0.005
   30  0.004  0.000  0.000  0.005
   31  0.004  0.000  0.000  0.005
   32  0.004  0.000  0.000  0.005
   33  0.004  0.000  0.000  0.005
   34  0.004  0.000  0.000  0.005
   35  0.002  0.000  0.000  0.002
   36  0.110  0.022  0.093  0.225
   37  0.233  0.031  0.000  0.263
   38  0.084  0.079  0.000  0.163
tot    0.530  0.137  0.098  0.765
 
band     3 # energy   -9.34966829 # occ.  2.00000000
 
ion      s      p      d    tot
    1  0.007  0.001  0.000  0.008
    2  0.007  0.001  0.000  0.008
    3  0.007  0.001  0.000  0.008
    4  0.007  0.001  0.000  0.008
    5  0.007  0.001  0.000  0.008
    6  0.007  0.001  0.000  0.008
    7  0.007  0.001  0.000  0.008
    8  0.007  0.001  0.000  0.008
    9  0.007  0.001  0.000  0.008
   10  0.023  0.000  0.000  0.024
   11  0.023  0.000  0.000  0.023
   12  0.023  0.000  0.000  0.024
   13  0.023  0.000  0.000  0.023
   14  0.023  0.000  0.000  0.023
   15  0.023  0.000  0.000  0.024
   16  0.023  0.000  0.000  0.024
   17  0.023  0.000  0.000  0.024
   18  0.023  0.000  0.000  0.024
   19  0.020  0.000  0.000  0.020
   20  0.017  0.001  0.000  0.017
   21  0.017  0.001  0.000  0.017
   22  0.019  0.000  0.000  0.020
   23  0.017  0.001  0.000  0.017
   24  0.019  0.000  0.000  0.020
   25  0.020  0.000  0.000  0.020
   26  0.020  0.000  0.000  0.020
   27  0.019  0.000  0.000  0.020
   28  0.005  0.001  0.000  0.005
   29  0.003  0.001  0.000  0.004
   30  0.003  0.001  0.000  0.004
   31  0.003  0.001  0.000  0.004
   32  0.003  0.001  0.000  0.004
   33  0.003  0.001  0.000  0.004
   34  0.003  0.001  0.000  0.004
   35  0.004  0.001  0.000  0.005
   36  0.000  0.011  0.017  0.029
   37  0.049  0.002  0.000  0.051
   38  0.022  0.032  0.000  0.054
tot    0.540  0.060  0.019  0.619
 
band     4 # energy   -8.15364952 # occ.  2.00000000
 
ion      s      p      d    tot
    1  0.017  0.001  0.000  0.018
    2  0.016  0.001  0.000  0.018
    3  0.016  0.001  0.000  0.018
    4  0.016  0.001  0.000  0.018
    5  0.016  0.001  0.000  0.017
    6  0.016  0.001  0.000  0.018
    7  0.016  0.001  0.000  0.018
    8  0.016  0.001  0.000  0.018
    9  0.016  0.001  0.000  0.018
   10  0.009  0.002  0.000  0.012
   11  0.009  0.002  0.000  0.012
   12  0.009  0.002  0.000  0.012
   13  0.009  0.002  0.000  0.012
   14  0.009  0.002  0.000  0.012
   15  0.009  0.002  0.000  0.012
   16  0.009  0.002  0.000  0.012
   17  0.009  0.002  0.000  0.012
   18  0.009  0.002  0.000  0.012
   19  0.009  0.002  0.000  0.011
   20  0.009  0.002  0.000  0.012
   21  0.009  0.002  0.000  0.012
   22  0.009  0.002  0.000  0.012
   23  0.009  0.002  0.000  0.012
   24  0.009  0.002  0.000  0.012
   25  0.009  0.002  0.000  0.011
   26  0.009  0.002  0.000  0.011
   27  0.009  0.002  0.000  0.012
   28  0.016  0.001  0.000  0.018
   29  0.017  0.001  0.001  0.018
   30  0.017  0.001  0.001  0.018
   31  0.017  0.001  0.001  0.018
   32  0.017  0.001  0.001  0.018
   33  0.017  0.001  0.001  0.018
   34  0.017  0.001  0.001  0.018
   35  0.016  0.001  0.000  0.017
   36  0.025  0.003  0.004  0.032
   37  0.011  0.004  0.000  0.016
   38  0.013  0.043  0.000  0.056
tot    0.493  0.099  0.021  0.613
 
band     5 # energy   -7.22224062 # occ.  2.00000000
 
ion      s      p      d    tot
    1  0.001  0.000  0.000  0.001
    2  0.001  0.000  0.000  0.002
    3  0.001  0.000  0.000  0.002
    4  0.001  0.000  0.000  0.002
    5  0.003  0.000  0.000  0.003
    6  0.001  0.000  0.000  0.002
    7  0.001  0.000  0.000  0.002
    8  0.001  0.000  0.000  0.002
    9  0.001  0.000  0.000  0.001
   10  0.000  0.001  0.000  0.001
   11  0.001  0.000  0.000  0.002
   12  0.000  0.001  0.000  0.001
   13  0.001  0.000  0.000  0.002
   14  0.001  0.000  0.000  0.002
   15  0.001  0.001  0.000  0.001
   16  0.000  0.001  0.000  0.001
   17  0.001  0.001  0.000  0.001
   18  0.001  0.001  0.000  0.001
   19  0.006  0.000  0.001  0.007
   20  0.001  0.003  0.005  0.010
   21  0.001  0.003  0.005  0.010
   22  0.005  0.001  0.000  0.007
   23  0.001  0.003  0.005  0.010
   24  0.005  0.001  0.000  0.007
   25  0.006  0.000  0.001  0.007
   26  0.006  0.000  0.001  0.007
   27  0.005  0.001  0.000  0.007
   28  0.004  0.000  0.000  0.005
   29  0.000  0.001  0.001  0.002
   30  0.000  0.001  0.001  0.002
   31  0.000  0.001  0.001  0.002
   32  0.000  0.001  0.001  0.002
   33  0.000  0.001  0.001  0.002
   34  0.000  0.001  0.001  0.002
   35  0.004  0.001  0.000  0.005
   36  0.059  0.008  0.107  0.174
   37  0.000  0.175  0.000  0.175
   38  0.049  0.341  0.000  0.390
tot    0.176  0.547  0.134  0.857
 
band     6 # energy   -6.58243835 # occ.  2.00000000
 
ion      s      p      d    tot
    1  0.000  0.000  0.001  0.001
    2  0.001  0.000  0.000  0.002
    3  0.000  0.000  0.000  0.001
    4  0.001  0.000  0.000  0.002
    5  0.000  0.000  0.000  0.001
    6  0.000  0.000  0.000  0.001
    7  0.000  0.000  0.000  0.000
    8  0.000  0.000  0.000  0.001
    9  0.000  0.000  0.000  0.000
   10  0.008  0.001  0.001  0.009
   11  0.001  0.001  0.001  0.003
   12  0.002  0.000  0.001  0.004
   13  0.001  0.001  0.001  0.003
   14  0.004  0.000  0.001  0.005
   15  0.000  0.001  0.001  0.002
   16  0.002  0.000  0.002  0.003
   17  0.000  0.001  0.001  0.002
   18  0.000  0.000  0.000  0.001
   19  0.001  0.001  0.001  0.003
   20  0.014  0.000  0.003  0.017
   21  0.004  0.001  0.004  0.008
   22  0.000  0.001  0.001  0.002
   23  0.003  0.001  0.004  0.007
   24  0.002  0.001  0.001  0.003
   25  0.003  0.000  0.001  0.004
   26  0.001  0.001  0.001  0.003
   27  0.000  0.001  0.001  0.002
   28  0.000  0.000  0.001  0.001
   29  0.000  0.001  0.003  0.004
   30  0.000  0.000  0.001  0.001
   31  0.000  0.001  0.003  0.004
   32  0.000  0.001  0.004  0.004
   33  0.000  0.000  0.001  0.001
   34  0.000  0.001  0.003  0.004
   35  0.000  0.000  0.000  0.000
   36  0.000  0.001  0.069  0.070
   37  0.000  0.158  0.000  0.158
   38  0.000  0.338  0.000  0.338
tot    0.050  0.514  0.112  0.676
 
band     7 # energy   -6.58235084 # occ.  2.00000000
 
ion      s      p      d    tot
    1  0.000  0.000  0.001  0.001
    2  0.000  0.000  0.000  0.000
    3  0.001  0.000  0.000  0.001
    4  0.000  0.000  0.000  0.000
    5  0.000  0.000  0.000  0.001
    6  0.001  0.000  0.000  0.001
    7  0.001  0.000  0.000  0.002
    8  0.001  0.000  0.000  0.001
    9  0.000  0.000  0.000  0.000
   10  0.000  0.000  0.002  0.002
   11  0.003  0.000  0.001  0.005
   12  0.005  0.001  0.001  0.007
   13  0.003  0.001  0.001  0.004
   14  0.000  0.002  0.001  0.003
   15  0.000  0.000  0.001  0.001
   16  0.006  0.001  0.001  0.007
   17  0.000  0.000  0.001  0.001
   18  0.000  0.001  0.001  0.002
   19  0.002  0.000  0.001  0.004
   20  0.000  0.001  0.004  0.005
   21  0.010  0.000  0.004  0.013
   22  0.001  0.001  0.001  0.003
   23  0.011  0.000  0.003  0.015
   24  0.000  0.001  0.002  0.002
   25  0.000  0.002  0.001  0.002
   26  0.002  0.001  0.001  0.003
   27  0.001  0.001  0.001  0.003
   28  0.000  0.000  0.001  0.001
   29  0.000  0.000  0.002  0.002
   30  0.000  0.001  0.004  0.005
   31  0.000  0.000  0.002  0.002
   32  0.000  0.001  0.001  0.002
   33  0.000  0.001  0.004  0.005
   34  0.000  0.001  0.002  0.002
   35  0.000  0.000  0.000  0.000
   36  0.000  0.001  0.069  0.070
   37  0.000  0.158  0.000  0.158
   38  0.000  0.338  0.000  0.338
tot    0.050  0.514  0.112  0.676
 
band     8 # energy   -6.57370279 # occ.  2.00000000
 
ion      s      p      d    tot
    1  0.015  0.000  0.006  0.021
    2  0.015  0.000  0.005  0.021
    3  0.015  0.000  0.005  0.021
    4  0.015  0.000  0.005  0.021
    5  0.009  0.000  0.006  0.015
    6  0.015  0.000  0.005  0.021
    7  0.015  0.000  0.005  0.021
    8  0.015  0.000  0.005  0.021
    9  0.023  0.000  0.004  0.027
   10  0.003  0.004  0.002  0.009
   11  0.008  0.004  0.001  0.013
   12  0.003  0.004  0.002  0.009
   13  0.008  0.004  0.001  0.013
   14  0.008  0.004  0.001  0.013
   15  0.000  0.003  0.003  0.006
   16  0.003  0.004  0.002  0.009
   17  0.000  0.003  0.003  0.006
   18  0.000  0.003  0.003  0.006
   19  0.003  0.003  0.004  0.010
   20  0.015  0.004  0.005  0.024
   21  0.015  0.004  0.005  0.024
   22  0.001  0.003  0.003  0.008
   23  0.015  0.004  0.005  0.024
   24  0.001  0.003  0.003  0.008
   25  0.003  0.003  0.004  0.010
   26  0.003  0.003  0.004  0.010
   27  0.001  0.003  0.003  0.008
   28  0.017  0.000  0.006  0.023
   29  0.018  0.000  0.007  0.025
   30  0.018  0.000  0.007  0.025
   31  0.018  0.000  0.007  0.025
   32  0.018  0.000  0.007  0.025
   33  0.018  0.000  0.007  0.025
   34  0.018  0.000  0.007  0.025
   35  0.021  0.000  0.005  0.027
   36  0.011  0.001  0.037  0.049
   37  0.000  0.000  0.000  0.000
   38  0.000  0.000  0.000  0.000
tot    0.382  0.065  0.195  0.642
 
band     9 # energy   -6.46202666 # occ.  2.00000000
 
ion      s      p      d    tot
    1  0.000  0.002  0.005  0.007
    2  0.007  0.002  0.002  0.011
    3  0.002  0.001  0.002  0.005
    4  0.008  0.002  0.002  0.012
    5  0.000  0.002  0.003  0.005
    6  0.004  0.001  0.002  0.007
    7  0.001  0.001  0.002  0.003
    8  0.002  0.001  0.002  0.005
    9  0.000  0.000  0.002  0.002
   10  0.047  0.004  0.003  0.054
   11  0.003  0.009  0.003  0.016
   12  0.018  0.002  0.009  0.030
   13  0.009  0.007  0.004  0.019
   14  0.023  0.001  0.005  0.029
   15  0.001  0.004  0.006  0.011
   16  0.007  0.002  0.011  0.020
   17  0.002  0.004  0.005  0.011
   18  0.004  0.002  0.003  0.009
   19  0.003  0.010  0.002  0.015
   20  0.054  0.004  0.004  0.062
   21  0.021  0.002  0.010  0.033
   22  0.002  0.004  0.006  0.012
   23  0.008  0.002  0.012  0.022
   24  0.006  0.002  0.003  0.011
   25  0.022  0.000  0.006  0.028
   26  0.008  0.007  0.003  0.019
   27  0.001  0.004  0.007  0.012
   28  0.000  0.002  0.003  0.006
   29  0.012  0.002  0.002  0.016
   30  0.005  0.002  0.002  0.009
   31  0.011  0.002  0.002  0.016
   32  0.004  0.001  0.001  0.007
   33  0.002  0.001  0.002  0.005
   34  0.001  0.001  0.001  0.004
   35  0.000  0.000  0.003  0.003
   36  0.000  0.009  0.005  0.013
   37  0.000  0.028  0.000  0.028
   38  0.000  0.068  0.000  0.068
tot    0.298  0.199  0.146  0.643
 
band    10 # energy   -6.46187817 # occ.  2.00000000
 
ion      s      p      d    tot
    1  0.000  0.002  0.005  0.007
    2  0.000  0.001  0.002  0.003
    3  0.006  0.002  0.002  0.009
    4  0.000  0.001  0.002  0.002
    5  0.000  0.002  0.003  0.005
    6  0.004  0.001  0.002  0.007
    7  0.007  0.002  0.002  0.011
    8  0.006  0.002  0.002  0.010
    9  0.000  0.000  0.002  0.002
   10  0.001  0.001  0.013  0.015
   11  0.020  0.002  0.005  0.027
   12  0.030  0.003  0.007  0.040
   13  0.015  0.004  0.004  0.023
   14  0.000  0.011  0.003  0.014
   15  0.004  0.002  0.003  0.009
   16  0.041  0.004  0.004  0.049
   17  0.003  0.003  0.004  0.010
   18  0.000  0.005  0.007  0.012
   19  0.019  0.002  0.005  0.026
   20  0.001  0.001  0.014  0.016
   21  0.035  0.003  0.008  0.045
   22  0.004  0.003  0.005  0.011
   23  0.048  0.003  0.005  0.056
   24  0.000  0.004  0.008  0.013
   25  0.000  0.011  0.002  0.014
   26  0.014  0.005  0.004  0.023
   27  0.005  0.003  0.003  0.011
   28  0.000  0.002  0.003  0.006
   29  0.000  0.001  0.001  0.002
   30  0.007  0.002  0.002  0.010
   31  0.000  0.001  0.002  0.003
   32  0.008  0.002  0.002  0.012
   33  0.010  0.002  0.002  0.014
   34  0.011  0.002  0.002  0.015
   35  0.000  0.000  0.003  0.003
   36  0.000  0.009  0.005  0.013
   37  0.000  0.028  0.000  0.028
   38  0.000  0.068  0.000  0.068
tot    0.298  0.199  0.146  0.643
 
band    11 # energy   -6.42341682 # occ.  2.00000000
 
ion      s      p      d    tot
    1  0.000  0.001  0.002  0.003
    2  0.010  0.002  0.002  0.014
    3  0.002  0.001  0.002  0.005
    4  0.010  0.002  0.002  0.015
    5  0.000  0.001  0.004  0.005
    6  0.004  0.001  0.002  0.008
    7  0.001  0.001  0.002  0.004
    8  0.003  0.001  0.002  0.007
    9  0.000  0.003  0.005  0.009
   10  0.000  0.012  0.002  0.014
   11  0.025  0.004  0.005  0.034
   12  0.002  0.004  0.005  0.010
   13  0.023  0.003  0.006  0.032
   14  0.000  0.000  0.015  0.016
   15  0.043  0.003  0.006  0.052
   16  0.002  0.003  0.005  0.010
   17  0.039  0.004  0.007  0.050
   18  0.000  0.008  0.009  0.017
   19  0.029  0.004  0.005  0.038
   20  0.000  0.013  0.002  0.015
   21  0.001  0.004  0.005  0.010
   22  0.040  0.004  0.006  0.050
   23  0.001  0.003  0.005  0.010
   24  0.000  0.008  0.008  0.017
   25  0.000  0.000  0.016  0.017
   26  0.027  0.003  0.006  0.036
   27  0.043  0.004  0.006  0.053
   28  0.000  0.001  0.005  0.006
   29  0.012  0.003  0.003  0.017
   30  0.003  0.002  0.003  0.008
   31  0.012  0.003  0.003  0.017
   32  0.003  0.001  0.002  0.007
   33  0.003  0.002  0.003  0.007
   34  0.003  0.001  0.002  0.006
   35  0.000  0.004  0.005  0.009
   36  0.000  0.001  0.009  0.010
   37  0.000  0.000  0.000  0.000
   38  0.000  0.000  0.000  0.000
tot    0.343  0.116  0.179  0.638
 
band    12 # energy   -6.42328034 # occ.  2.00000000
 
ion      s      p      d    tot
    1  0.000  0.001  0.002  0.003
    2  0.000  0.001  0.002  0.003
    3  0.008  0.002  0.002  0.013
    4  0.000  0.001  0.002  0.003
    5  0.000  0.001  0.004  0.005
    6  0.006  0.002  0.002  0.010
    7  0.008  0.002  0.002  0.013
    8  0.007  0.002  0.002  0.011
    9  0.000  0.003  0.005  0.009
   10  0.003  0.001  0.006  0.009
   11  0.007  0.001  0.012  0.021
   12  0.001  0.009  0.003  0.013
   13  0.009  0.002  0.011  0.022
   14  0.032  0.004  0.002  0.039
   15  0.012  0.006  0.008  0.027
   16  0.001  0.009  0.003  0.013
   17  0.015  0.006  0.008  0.030
   18  0.055  0.002  0.005  0.063
   19  0.008  0.001  0.013  0.023
   20  0.002  0.001  0.006  0.008
   21  0.001  0.009  0.003  0.013
   22  0.016  0.007  0.007  0.030
   23  0.000  0.010  0.003  0.013
   24  0.055  0.002  0.005  0.063
   25  0.037  0.005  0.002  0.043
   26  0.011  0.001  0.012  0.024
   27  0.012  0.007  0.008  0.027
   28  0.000  0.001  0.005  0.006
   29  0.000  0.001  0.003  0.004
   30  0.009  0.002  0.002  0.013
   31  0.000  0.001  0.003  0.004
   32  0.009  0.002  0.003  0.014
   33  0.009  0.002  0.002  0.014
   34  0.009  0.003  0.003  0.015
   35  0.000  0.004  0.005  0.009
   36  0.000  0.001  0.009  0.010
   37  0.000  0.000  0.000  0.000
   38  0.000  0.000  0.000  0.000
tot    0.343  0.116  0.179  0.638
 
band    13 # energy   -6.41492506 # occ.  2.00000000
 
ion      s      p      d    tot
    1  0.023  0.003  0.001  0.027
    2  0.000  0.002  0.004  0.006
    3  0.000  0.002  0.004  0.006
    4  0.000  0.002  0.004  0.006
    5  0.001  0.000  0.001  0.002
    6  0.000  0.002  0.004  0.006
    7  0.000  0.002  0.004  0.006
    8  0.000  0.002  0.004  0.006
    9  0.009  0.002  0.000  0.011
   10  0.030  0.006  0.006  0.041
   11  0.006  0.000  0.012  0.018
   12  0.030  0.006  0.006  0.042
   13  0.006  0.000  0.012  0.018
   14  0.006  0.000  0.012  0.018
   15  0.012  0.008  0.003  0.024
   16  0.030  0.006  0.006  0.042
   17  0.012  0.008  0.003  0.024
   18  0.012  0.008  0.003  0.023
   19  0.022  0.009  0.002  0.033
   20  0.000  0.003  0.010  0.013
   21  0.000  0.003  0.010  0.013
   22  0.024  0.002  0.009  0.035
   23  0.000  0.003  0.010  0.013
   24  0.024  0.002  0.009  0.036
   25  0.022  0.009  0.002  0.033
   26  0.022  0.009  0.002  0.033
   27  0.024  0.002  0.009  0.035
   28  0.019  0.003  0.000  0.022
   29  0.000  0.002  0.004  0.005
   30  0.000  0.002  0.004  0.006
   31  0.000  0.002  0.004  0.005
   32  0.000  0.002  0.004  0.006
   33  0.000  0.002  0.004  0.006
   34  0.000  0.002  0.004  0.006
   35  0.011  0.002  0.001  0.015
   36  0.000  0.000  0.000  0.000
   37  0.000  0.000  0.000  0.000
   38  0.000  0.000  0.000  0.000
tot    0.345  0.115  0.179  0.638
 
band    14 # energy   -6.31900918 # occ.  2.00000000
 
ion      s      p      d    tot
    1  0.000  0.000  0.000  0.001
    2  0.001  0.002  0.005  0.008
    3  0.001  0.002  0.005  0.008
    4  0.001  0.002  0.005  0.008
    5  0.031  0.003  0.000  0.035
    6  0.001  0.002  0.005  0.008
    7  0.001  0.002  0.005  0.008
    8  0.001  0.002  0.005  0.008
    9  0.008  0.002  0.002  0.013
   10  0.001  0.004  0.009  0.014
   11  0.024  0.009  0.002  0.036
   12  0.001  0.004  0.009  0.014
   13  0.024  0.009  0.002  0.036
   14  0.024  0.009  0.002  0.036
   15  0.025  0.002  0.012  0.038
   16  0.001  0.004  0.009  0.014
   17  0.025  0.002  0.012  0.038
   18  0.025  0.002  0.012  0.038
   19  0.006  0.001  0.008  0.015
   20  0.017  0.003  0.008  0.029
   21  0.017  0.003  0.008  0.029
   22  0.007  0.006  0.004  0.017
   23  0.017  0.003  0.008  0.029
   24  0.007  0.006  0.004  0.017
   25  0.006  0.001  0.008  0.015
   26  0.006  0.001  0.008  0.015
   27  0.007  0.006  0.004  0.017
   28  0.000  0.000  0.002  0.002
   29  0.001  0.001  0.004  0.006
   30  0.001  0.001  0.004  0.006
   31  0.001  0.001  0.004  0.006
   32  0.001  0.001  0.004  0.006
   33  0.001  0.001  0.004  0.006
   34  0.001  0.001  0.004  0.006
   35  0.001  0.001  0.001  0.002
   36  0.005  0.013  0.031  0.049
   37  0.004  0.022  0.000  0.026
   38  0.001  0.022  0.000  0.023
tot    0.304  0.156  0.222  0.682
 
band    15 # energy   -5.72539843 # occ.  2.00000000
 
ion      s      p      d    tot
    1  0.002  0.001  0.011  0.014
    2  0.006  0.001  0.010  0.016
    3  0.006  0.001  0.010  0.016
    4  0.006  0.001  0.010  0.016
    5  0.008  0.000  0.009  0.017
    6  0.006  0.001  0.010  0.016
    7  0.006  0.001  0.010  0.016
    8  0.006  0.001  0.010  0.016
    9  0.009  0.000  0.009  0.019
   10  0.011  0.000  0.024  0.035
   11  0.005  0.000  0.023  0.028
   12  0.011  0.000  0.024  0.035
   13  0.005  0.000  0.023  0.028
   14  0.005  0.000  0.023  0.028
   15  0.006  0.000  0.023  0.029
   16  0.011  0.000  0.024  0.035
   17  0.006  0.000  0.023  0.029
   18  0.006  0.000  0.023  0.029
   19  0.008  0.000  0.018  0.027
   20  0.005  0.000  0.029  0.034
   21  0.005  0.000  0.029  0.034
   22  0.004  0.000  0.016  0.020
   23  0.005  0.000  0.029  0.034
   24  0.004  0.000  0.016  0.020
   25  0.008  0.000  0.019  0.027
   26  0.008  0.000  0.018  0.027
   27  0.004  0.000  0.016  0.020
   28  0.000  0.001  0.006  0.007
   29  0.003  0.001  0.008  0.012
   30  0.004  0.001  0.008  0.012
   31  0.003  0.001  0.008  0.011
   32  0.003  0.001  0.008  0.011
   33  0.003  0.001  0.008  0.012
   34  0.003  0.001  0.008  0.012
   35  0.002  0.000  0.005  0.008
   36  0.010  0.001  0.022  0.033
   37  0.000  0.000  0.000  0.000
   38  0.000  0.000  0.000  0.000
tot    0.203  0.014  0.568  0.784
 
band    16 # energy   -5.72378755 # occ.  2.00000000
 
ion      s      p      d    tot
    1  0.000  0.003  0.010  0.012
    2  0.017  0.003  0.005  0.025
    3  0.003  0.002  0.004  0.009
    4  0.019  0.003  0.005  0.027
    5  0.000  0.000  0.009  0.010
    6  0.010  0.003  0.005  0.018
    7  0.001  0.001  0.004  0.007
    8  0.007  0.002  0.005  0.014
    9  0.000  0.005  0.008  0.013
   10  0.000  0.004  0.015  0.020
   11  0.006  0.002  0.008  0.016
   12  0.003  0.002  0.009  0.014
   13  0.005  0.002  0.009  0.016
   14  0.000  0.001  0.014  0.016
   15  0.020  0.004  0.007  0.031
   16  0.004  0.001  0.008  0.013
   17  0.017  0.003  0.010  0.029
   18  0.000  0.001  0.021  0.021
   19  0.008  0.004  0.009  0.021
   20  0.000  0.003  0.023  0.026
   21  0.000  0.001  0.015  0.016
   22  0.009  0.003  0.010  0.022
   23  0.000  0.001  0.013  0.014
   24  0.000  0.001  0.026  0.028
   25  0.000  0.000  0.012  0.012
   26  0.007  0.004  0.009  0.020
   27  0.010  0.004  0.007  0.021
   28  0.000  0.003  0.008  0.011
   29  0.022  0.003  0.008  0.034
   30  0.002  0.003  0.010  0.014
   31  0.025  0.003  0.008  0.036
   32  0.017  0.002  0.008  0.026
   33  0.000  0.002  0.010  0.012
   34  0.012  0.002  0.008  0.022
   35  0.000  0.006  0.008  0.013
   36  0.000  0.001  0.045  0.045
   37  0.000  0.000  0.000  0.000
   38  0.000  0.000  0.000  0.000
tot    0.225  0.090  0.393  0.708
 
band    17 # energy   -5.72373417 # occ.  2.00000000
 
ion      s      p      d    tot
    1  0.000  0.003  0.010  0.012
    2  0.002  0.002  0.005  0.008
    3  0.016  0.003  0.005  0.024
    4  0.000  0.001  0.004  0.006
    5  0.000  0.000  0.009  0.010
    6  0.009  0.002  0.004  0.015
    7  0.018  0.003  0.005  0.026
    8  0.012  0.003  0.004  0.019
    9  0.000  0.005  0.008  0.013
   10  0.005  0.000  0.006  0.012
   11  0.001  0.002  0.013  0.016
   12  0.002  0.003  0.013  0.017
   13  0.003  0.002  0.012  0.016
   14  0.007  0.002  0.007  0.016
   15  0.004  0.001  0.018  0.023
   16  0.001  0.004  0.014  0.019
   17  0.008  0.002  0.015  0.025
   18  0.025  0.004  0.004  0.033
   19  0.002  0.001  0.011  0.014
   20  0.000  0.000  0.011  0.011
   21  0.000  0.002  0.019  0.021
   22  0.004  0.002  0.019  0.025
   23  0.000  0.003  0.021  0.024
   24  0.012  0.004  0.003  0.019
   25  0.010  0.005  0.008  0.024
   26  0.003  0.002  0.011  0.015
   27  0.002  0.002  0.022  0.026
   28  0.000  0.003  0.008  0.011
   29  0.004  0.002  0.009  0.015
   30  0.024  0.002  0.008  0.034
   31  0.001  0.002  0.009  0.013
   32  0.010  0.003  0.009  0.022
   33  0.025  0.003  0.008  0.036
   34  0.014  0.003  0.009  0.026
   35  0.000  0.006  0.008  0.013
   36  0.000  0.001  0.045  0.045
   37  0.000  0.000  0.000  0.000
   38  0.000  0.000  0.000  0.000
tot    0.225  0.090  0.393  0.708
 
band    18 # energy   -5.67922140 # occ.  2.00000000
 
ion      s      p      d    tot
    1  0.000  0.004  0.010  0.013
    2  0.020  0.004  0.006  0.030
    3  0.005  0.002  0.005  0.013
    4  0.023  0.004  0.006  0.033
    5  0.000  0.006  0.010  0.016
    6  0.013  0.003  0.006  0.022
    7  0.001  0.002  0.005  0.008
    8  0.006  0.002  0.006  0.014
    9  0.000  0.000  0.013  0.013
   10  0.020  0.005  0.009  0.034
   11  0.002  0.003  0.024  0.029
   12  0.008  0.002  0.016  0.027
   13  0.007  0.003  0.018  0.028
   14  0.017  0.003  0.006  0.025
   15  0.000  0.003  0.015  0.019
   16  0.003  0.001  0.020  0.023
   17  0.000  0.002  0.013  0.016
   18  0.000  0.001  0.009  0.010
   19  0.001  0.002  0.021  0.024
   20  0.020  0.006  0.005  0.030
   21  0.008  0.003  0.020  0.030
   22  0.002  0.002  0.011  0.014
   23  0.003  0.001  0.027  0.030
   24  0.004  0.002  0.010  0.016
   25  0.004  0.001  0.006  0.011
   26  0.002  0.002  0.016  0.019
   27  0.001  0.001  0.011  0.013
   28  0.000  0.003  0.009  0.012
   29  0.015  0.003  0.006  0.024
   30  0.003  0.002  0.005  0.010
   31  0.017  0.004  0.006  0.027
   32  0.011  0.003  0.006  0.020
   33  0.000  0.001  0.005  0.006
   34  0.006  0.002  0.006  0.013
   35  0.000  0.000  0.009  0.009
   36  0.000  0.009  0.019  0.028
   37  0.000  0.000  0.000  0.000
   38  0.000  0.001  0.000  0.001
tot    0.221  0.097  0.393  0.711
 
band    19 # energy   -5.67914745 # occ.  2.00000000
 
ion      s      p      d    tot
    1  0.000  0.004  0.010  0.013
    2  0.003  0.002  0.006  0.010
    3  0.017  0.004  0.006  0.027
    4  0.000  0.002  0.005  0.007
    5  0.000  0.006  0.010  0.016
    6  0.010  0.003  0.005  0.018
    7  0.022  0.004  0.006  0.032
    8  0.017  0.003  0.006  0.026
    9  0.000  0.000  0.013  0.013
   10  0.001  0.000  0.021  0.022
   11  0.015  0.003  0.008  0.026
   12  0.013  0.003  0.014  0.029
   13  0.010  0.003  0.014  0.027
   14  0.000  0.003  0.026  0.030
   15  0.000  0.001  0.010  0.011
   16  0.018  0.005  0.010  0.033
   17  0.000  0.002  0.012  0.014
   18  0.000  0.004  0.016  0.020
   19  0.004  0.001  0.008  0.012
   20  0.001  0.001  0.029  0.030
   21  0.012  0.004  0.014  0.030
   22  0.003  0.002  0.010  0.015
   23  0.018  0.005  0.007  0.030
   24  0.000  0.001  0.012  0.013
   25  0.000  0.003  0.022  0.025
   26  0.003  0.002  0.012  0.017
   27  0.004  0.002  0.010  0.016
   28  0.000  0.003  0.009  0.012
   29  0.003  0.001  0.005  0.009
   30  0.014  0.003  0.006  0.024
   31  0.000  0.001  0.005  0.006
   32  0.006  0.002  0.005  0.013
   33  0.017  0.004  0.006  0.027
   34  0.012  0.003  0.005  0.020
   35  0.000  0.000  0.009  0.009
   36  0.000  0.009  0.019  0.028
   37  0.000  0.000  0.000  0.000
   38  0.000  0.001  0.000  0.001
tot    0.221  0.097  0.393  0.711
 
band    20 # energy   -5.65633017 # occ.  2.00000000
 
ion      s      p      d    tot
    1  0.037  0.003  0.000  0.041
    2  0.000  0.003  0.010  0.013
    3  0.000  0.003  0.010  0.013
    4  0.000  0.003  0.010  0.013
    5  0.000  0.000  0.001  0.001
    6  0.000  0.003  0.010  0.013
    7  0.000  0.003  0.010  0.013
    8  0.000  0.003  0.010  0.013
    9  0.026  0.003  0.001  0.030
   10  0.007  0.004  0.011  0.022
   11  0.002  0.000  0.015  0.017
   12  0.007  0.004  0.011  0.022
   13  0.002  0.000  0.015  0.017
   14  0.002  0.000  0.015  0.017
   15  0.007  0.003  0.018  0.028
   16  0.007  0.004  0.011  0.022
   17  0.007  0.003  0.018  0.028
   18  0.007  0.003  0.018  0.028
   19  0.005  0.004  0.017  0.025
   20  0.000  0.000  0.016  0.016
   21  0.000  0.000  0.016  0.016
   22  0.013  0.003  0.011  0.026
   23  0.000  0.000  0.016  0.016
   24  0.013  0.003  0.011  0.026
   25  0.005  0.004  0.017  0.025
   26  0.005  0.004  0.017  0.025
   27  0.013  0.003  0.011  0.026
   28  0.039  0.003  0.000  0.042
   29  0.000  0.003  0.010  0.013
   30  0.000  0.003  0.010  0.013
   31  0.000  0.003  0.010  0.013
   32  0.000  0.003  0.010  0.013
   33  0.000  0.003  0.010  0.013
   34  0.000  0.003  0.010  0.013
   35  0.024  0.003  0.002  0.029
   36  0.000  0.000  0.000  0.000
   37  0.000  0.000  0.000  0.000
   38  0.000  0.000  0.000  0.000
tot    0.228  0.091  0.388  0.706
 
band    21 # energy   -5.55268779 # occ.  2.00000000
 
ion      s      p      d    tot
    1  0.011  0.001  0.000  0.011
    2  0.000  0.003  0.010  0.013
    3  0.000  0.003  0.010  0.013
    4  0.000  0.003  0.010  0.013
    5  0.035  0.004  0.001  0.040
    6  0.000  0.003  0.010  0.013
    7  0.000  0.003  0.010  0.013
    8  0.000  0.003  0.010  0.013
    9  0.012  0.001  0.000  0.013
   10  0.000  0.001  0.022  0.022
   11  0.007  0.004  0.018  0.029
   12  0.000  0.001  0.022  0.022
   13  0.007  0.004  0.018  0.029
   14  0.007  0.004  0.018  0.029
   15  0.002  0.001  0.007  0.011
   16  0.000  0.001  0.022  0.022