PROCAR new format
# of k-points:   10         # of bands:  252         # of ions:   37

 k-point     1 :    0.00000000 0.00000000 0.00000000     weight = 0.01562500

band     1 # energy  -11.56542917 # occ.  2.00000000
 
ion      s      p      d    tot
    1  0.000  0.000  0.000  0.000
    2  0.000  0.000  0.000  0.000
    3  0.000  0.000  0.000  0.000
    4  0.000  0.000  0.000  0.000
    5  0.000  0.000  0.000  0.000
    6  0.000  0.000  0.000  0.000
    7  0.000  0.000  0.000  0.000
    8  0.000  0.000  0.000  0.000
    9  0.000  0.000  0.000  0.000
   10  0.000  0.000  0.000  0.000
   11  0.000  0.000  0.000  0.000
   12  0.000  0.000  0.000  0.000
   13  0.000  0.000  0.000  0.000
   14  0.000  0.000  0.000  0.000
   15  0.000  0.000  0.000  0.000
   16  0.000  0.000  0.000  0.000
   17  0.000  0.000  0.000  0.000
   18  0.000  0.000  0.000  0.000
   19  0.000  0.000  0.000  0.000
   20  0.000  0.000  0.000  0.001
   21  0.000  0.000  0.000  0.001
   22  0.000  0.000  0.000  0.000
   23  0.000  0.000  0.000  0.001
   24  0.000  0.000  0.000  0.000
   25  0.000  0.000  0.000  0.000
   26  0.000  0.000  0.000  0.000
   27  0.000  0.000  0.000  0.000
   28  0.000  0.000  0.000  0.000
   29  0.000  0.000  0.000  0.000
   30  0.000  0.000  0.000  0.000
   31  0.000  0.000  0.000  0.000
   32  0.000  0.000  0.000  0.000
   33  0.000  0.000  0.000  0.000
   34  0.000  0.000  0.000  0.000
   35  0.000  0.000  0.000  0.000
   36  0.077  0.070  0.118  0.265
   37  0.642  0.007  0.000  0.649
tot    0.722  0.078  0.118  0.918
 
band     2 # energy   -9.00007988 # occ.  2.00000000
 
ion      s      p      d    tot
    1  0.007  0.001  0.000  0.008
    2  0.007  0.001  0.000  0.008
    3  0.007  0.001  0.000  0.008
    4  0.007  0.001  0.000  0.008
    5  0.007  0.001  0.000  0.008
    6  0.007  0.001  0.000  0.008
    7  0.007  0.001  0.000  0.008
    8  0.007  0.001  0.000  0.008
    9  0.007  0.001  0.000  0.008
   10  0.025  0.000  0.000  0.026
   11  0.025  0.000  0.000  0.025
   12  0.025  0.000  0.000  0.026
   13  0.025  0.000  0.000  0.025
   14  0.025  0.000  0.000  0.025
   15  0.025  0.000  0.000  0.025
   16  0.025  0.000  0.000  0.026
   17  0.025  0.000  0.000  0.025
   18  0.025  0.000  0.000  0.025
   19  0.025  0.000  0.000  0.025
   20  0.023  0.000  0.000  0.024
   21  0.023  0.000  0.000  0.024
   22  0.024  0.000  0.000  0.025
   23  0.023  0.000  0.000  0.024
   24  0.024  0.000  0.000  0.025
   25  0.025  0.000  0.000  0.025
   26  0.025  0.000  0.000  0.025
   27  0.024  0.000  0.000  0.025
   28  0.007  0.001  0.000  0.008
   29  0.006  0.001  0.000  0.007
   30  0.006  0.001  0.000  0.007
   31  0.006  0.001  0.000  0.007
   32  0.006  0.001  0.000  0.007
   33  0.006  0.001  0.000  0.007
   34  0.006  0.001  0.000  0.007
   35  0.007  0.001  0.000  0.007
   36  0.004  0.002  0.000  0.007
   37  0.002  0.000  0.000  0.002
tot    0.563  0.018  0.001  0.583
 
band     3 # energy   -7.68283934 # occ.  2.00000000
 
ion      s      p      d    tot
    1  0.018  0.001  0.001  0.019
    2  0.018  0.001  0.001  0.019
    3  0.018  0.001  0.001  0.019
    4  0.018  0.001  0.001  0.019
    5  0.018  0.001  0.001  0.020
    6  0.018  0.001  0.001  0.019
    7  0.018  0.001  0.001  0.019
    8  0.018  0.001  0.001  0.019
    9  0.018  0.001  0.001  0.019
   10  0.009  0.002  0.001  0.012
   11  0.010  0.002  0.000  0.012
   12  0.009  0.002  0.001  0.012
   13  0.010  0.002  0.000  0.012
   14  0.010  0.002  0.000  0.012
   15  0.009  0.002  0.001  0.012
   16  0.009  0.002  0.001  0.012
   17  0.009  0.002  0.001  0.012
   18  0.009  0.002  0.001  0.012
   19  0.012  0.002  0.001  0.015
   20  0.009  0.002  0.001  0.012
   21  0.009  0.002  0.001  0.012
   22  0.012  0.002  0.001  0.015
   23  0.009  0.002  0.001  0.012
   24  0.012  0.002  0.001  0.015
   25  0.012  0.002  0.001  0.015
   26  0.012  0.002  0.001  0.015
   27  0.012  0.002  0.001  0.015
   28  0.021  0.001  0.001  0.022
   29  0.018  0.001  0.001  0.019
   30  0.018  0.001  0.001  0.019
   31  0.018  0.001  0.001  0.019
   32  0.018  0.001  0.001  0.019
   33  0.018  0.001  0.001  0.019
   34  0.018  0.001  0.001  0.019
   35  0.020  0.001  0.001  0.022
   36  0.011  0.003  0.002  0.016
   37  0.002  0.000  0.000  0.002
tot    0.508  0.057  0.022  0.587
 
band     4 # energy   -6.08796705 # occ.  2.00000000
 
ion      s      p      d    tot
    1  0.016  0.000  0.005  0.022
    2  0.014  0.000  0.006  0.020
    3  0.014  0.000  0.006  0.020
    4  0.014  0.000  0.006  0.020
    5  0.004  0.001  0.007  0.012
    6  0.014  0.000  0.006  0.020
    7  0.014  0.000  0.006  0.020
    8  0.014  0.000  0.006  0.020
    9  0.025  0.000  0.004  0.029
   10  0.003  0.003  0.003  0.009
   11  0.014  0.005  0.001  0.021
   12  0.002  0.003  0.003  0.009
   13  0.014  0.005  0.001  0.021
   14  0.014  0.005  0.001  0.021
   15  0.000  0.002  0.005  0.007
   16  0.003  0.003  0.003  0.009
   17  0.000  0.002  0.005  0.007
   18  0.000  0.002  0.005  0.007
   19  0.000  0.003  0.006  0.009
   20  0.019  0.005  0.002  0.026
   21  0.019  0.005  0.002  0.026
   22  0.000  0.004  0.004  0.008
   23  0.019  0.005  0.002  0.026
   24  0.000  0.004  0.004  0.008
   25  0.000  0.003  0.006  0.009
   26  0.000  0.003  0.006  0.009
   27  0.000  0.004  0.004  0.008
   28  0.023  0.000  0.005  0.028
   29  0.015  0.001  0.007  0.023
   30  0.015  0.001  0.007  0.023
   31  0.015  0.001  0.007  0.023
   32  0.015  0.001  0.007  0.023
   33  0.015  0.001  0.007  0.023
   34  0.015  0.001  0.007  0.023
   35  0.028  0.000  0.005  0.034
   36  0.002  0.001  0.010  0.012
   37  0.000  0.000  0.000  0.000
tot    0.383  0.073  0.174  0.630
 
band     5 # energy   -6.02837903 # occ.  2.00000000
 
ion      s      p      d    tot
    1  0.000  0.003  0.004  0.008
    2  0.004  0.002  0.002  0.008
    3  0.006  0.002  0.002  0.010
    4  0.008  0.002  0.002  0.012
    5  0.000  0.000  0.002  0.002
    6  0.001  0.001  0.002  0.004
    7  0.009  0.002  0.002  0.014
    8  0.000  0.001  0.002  0.003
    9  0.000  0.002  0.005  0.006
   10  0.044  0.002  0.006  0.052
   11  0.000  0.006  0.005  0.010
   12  0.005  0.009  0.006  0.021
   13  0.000  0.009  0.004  0.013
   14  0.000  0.002  0.004  0.006
   15  0.019  0.002  0.010  0.032
   16  0.019  0.007  0.006  0.032
   17  0.005  0.001  0.015  0.020
   18  0.044  0.005  0.003  0.051
   19  0.028  0.005  0.009  0.042
   20  0.022  0.004  0.003  0.029
   21  0.002  0.002  0.014  0.018
   22  0.001  0.012  0.002  0.015
   23  0.010  0.003  0.009  0.022
   24  0.010  0.001  0.006  0.016
   25  0.061  0.003  0.005  0.070
   26  0.007  0.005  0.012  0.024
   27  0.004  0.008  0.003  0.016
   28  0.000  0.004  0.006  0.010
   29  0.003  0.001  0.002  0.007
   30  0.010  0.002  0.003  0.016
   31  0.008  0.002  0.003  0.012
   32  0.003  0.001  0.003  0.007
   33  0.012  0.003  0.003  0.018
   34  0.000  0.001  0.003  0.004
   35  0.000  0.002  0.003  0.005
   36  0.000  0.001  0.004  0.004
   37  0.000  0.000  0.000  0.000
tot    0.346  0.115  0.178  0.640
 
band     6 # energy   -6.02831104 # occ.  2.00000000
 
ion      s      p      d    tot
    1  0.000  0.003  0.004  0.008
    2  0.005  0.002  0.002  0.009
    3  0.003  0.001  0.002  0.007
    4  0.002  0.001  0.002  0.005
    5  0.000  0.000  0.002  0.002
    6  0.009  0.002  0.002  0.013
    7  0.000  0.001  0.002  0.003
    8  0.010  0.002  0.002  0.014
    9  0.000  0.002  0.005  0.006
   10  0.002  0.010  0.006  0.018
   11  0.000  0.005  0.004  0.009
   12  0.040  0.002  0.006  0.049
   13  0.000  0.002  0.005  0.007
   14  0.000  0.009  0.004  0.014
   15  0.026  0.003  0.008  0.037
   16  0.026  0.005  0.006  0.037
   17  0.040  0.004  0.004  0.049
   18  0.002  0.000  0.016  0.018
   19  0.036  0.004  0.008  0.049
   20  0.001  0.002  0.014  0.017
   21  0.020  0.004  0.004  0.028
   22  0.009  0.002  0.006  0.017
   23  0.013  0.003  0.008  0.024
   24  0.000  0.013  0.001  0.015
   25  0.002  0.005  0.013  0.020
   26  0.058  0.003  0.006  0.067
   27  0.006  0.006  0.004  0.016
   28  0.000  0.004  0.006  0.010
   29  0.009  0.002  0.003  0.014
   30  0.002  0.001  0.002  0.005
   31  0.004  0.002  0.003  0.009
   32  0.009  0.002  0.003  0.014
   33  0.000  0.001  0.002  0.003
   34  0.012  0.003  0.003  0.018
   35  0.000  0.002  0.003  0.005
   36  0.000  0.001  0.004  0.004
   37  0.000  0.000  0.000  0.000
tot    0.346  0.115  0.178  0.640
 
band     7 # energy   -6.02570421 # occ.  2.00000000
 
ion      s      p      d    tot
    1  0.019  0.003  0.001  0.023
    2  0.000  0.002  0.004  0.005
    3  0.000  0.002  0.004  0.006
    4  0.000  0.002  0.004  0.005
    5  0.002  0.000  0.000  0.002
    6  0.000  0.002  0.004  0.006
    7  0.000  0.002  0.004  0.006
    8  0.000  0.002  0.004  0.006
    9  0.009  0.001  0.000  0.010
   10  0.030  0.006  0.005  0.041
   11  0.005  0.000  0.011  0.017
   12  0.031  0.006  0.005  0.042
   13  0.005  0.000  0.011  0.017
   14  0.005  0.000  0.011  0.017
   15  0.011  0.008  0.004  0.022
   16  0.030  0.006  0.005  0.042
   17  0.011  0.008  0.004  0.022
   18  0.011  0.008  0.004  0.022
   19  0.024  0.010  0.002  0.035
   20  0.000  0.002  0.010  0.013
   21  0.000  0.003  0.010  0.013
   22  0.024  0.002  0.009  0.036
   23  0.000  0.003  0.010  0.013
   24  0.024  0.002  0.009  0.036
   25  0.024  0.010  0.002  0.036
   26  0.024  0.010  0.002  0.035
   27  0.024  0.002  0.009  0.036
   28  0.018  0.003  0.001  0.022
   29  0.000  0.002  0.005  0.006
   30  0.000  0.002  0.005  0.006
   31  0.000  0.002  0.005  0.006
   32  0.000  0.002  0.005  0.006
   33  0.000  0.002  0.005  0.006
   34  0.000  0.002  0.005  0.006
   35  0.014  0.002  0.001  0.018
   36  0.000  0.000  0.000  0.000
   37  0.000  0.000  0.000  0.000
tot    0.346  0.115  0.180  0.640
 
band     8 # energy   -6.01186801 # occ.  2.00000000
 
ion      s      p      d    tot
    1  0.000  0.000  0.003  0.004
    2  0.004  0.002  0.002  0.008
    3  0.007  0.002  0.002  0.011
    4  0.008  0.002  0.003  0.013
    5  0.000  0.003  0.006  0.009
    6  0.001  0.001  0.002  0.004
    7  0.010  0.002  0.002  0.015
    8  0.000  0.001  0.002  0.003
    9  0.000  0.002  0.003  0.005
   10  0.001  0.003  0.012  0.016
   11  0.033  0.004  0.009  0.045
   12  0.015  0.004  0.003  0.022
   13  0.057  0.004  0.005  0.066
   14  0.003  0.004  0.013  0.021
   15  0.008  0.006  0.004  0.018
   16  0.009  0.003  0.007  0.019
   17  0.014  0.001  0.006  0.021
   18  0.001  0.013  0.002  0.015
   19  0.000  0.005  0.005  0.011
   20  0.002  0.012  0.005  0.019
   21  0.038  0.002  0.007  0.046
   22  0.049  0.005  0.004  0.057
   23  0.022  0.006  0.006  0.034
   24  0.003  0.001  0.016  0.020
   25  0.000  0.008  0.006  0.014
   26  0.001  0.002  0.004  0.008
   27  0.028  0.003  0.010  0.041
   28  0.000  0.000  0.003  0.003
   29  0.003  0.001  0.002  0.006
   30  0.008  0.002  0.003  0.014
   31  0.008  0.002  0.003  0.012
   32  0.002  0.001  0.003  0.007
   33  0.010  0.003  0.003  0.016
   34  0.000  0.001  0.002  0.003
   35  0.000  0.002  0.006  0.008
   36  0.000  0.005  0.004  0.009
   37  0.000  0.000  0.000  0.000
tot    0.345  0.117  0.179  0.641
 
band     9 # energy   -6.01177025 # occ.  2.00000000
 
ion      s      p      d    tot
    1  0.000  0.000  0.003  0.003
    2  0.006  0.002  0.002  0.010
    3  0.003  0.001  0.002  0.007
    4  0.002  0.001  0.002  0.005
    5  0.000  0.003  0.006  0.009
    6  0.009  0.002  0.003  0.014
    7  0.000  0.001  0.002  0.003
    8  0.010  0.002  0.002  0.015
    9  0.000  0.002  0.003  0.005
   10  0.015  0.004  0.003  0.022
   11  0.029  0.004  0.009  0.042
   12  0.001  0.003  0.012  0.016
   13  0.005  0.004  0.013  0.022
   14  0.059  0.004  0.005  0.068
   15  0.007  0.007  0.004  0.018
   16  0.008  0.003  0.008  0.019
   17  0.001  0.012  0.002  0.016
   18  0.014  0.001  0.006  0.021
   19  0.000  0.005  0.005  0.011
   20  0.039  0.002  0.007  0.047
   21  0.003  0.011  0.005  0.020
   22  0.004  0.001  0.016  0.021
   23  0.019  0.007  0.006  0.032
   24  0.051  0.005  0.003  0.059
   25  0.001  0.002  0.004  0.007
   26  0.000  0.008  0.006  0.014
   27  0.025  0.003  0.010  0.038
   28  0.000  0.000  0.003  0.003
   29  0.008  0.002  0.003  0.013
   30  0.002  0.001  0.002  0.006
   31  0.003  0.001  0.003  0.007
   32  0.008  0.002  0.003  0.013
   33  0.000  0.001  0.002  0.003
   34  0.010  0.003  0.003  0.016
   35  0.000  0.002  0.006  0.008
   36  0.000  0.005  0.004  0.009
   37  0.000  0.000  0.000  0.000
tot    0.345  0.117  0.179  0.641
 
band    10 # energy   -5.92037778 # occ.  2.00000000
 
ion      s      p      d    tot
    1  0.000  0.000  0.001  0.002
    2  0.003  0.002  0.006  0.011
    3  0.003  0.002  0.006  0.011
    4  0.003  0.002  0.006  0.011
    5  0.041  0.003  0.000  0.044
    6  0.003  0.002  0.006  0.011
    7  0.003  0.002  0.006  0.011
    8  0.003  0.002  0.006  0.011
    9  0.003  0.002  0.005  0.010
   10  0.003  0.004  0.009  0.016
   11  0.017  0.009  0.004  0.031
   12  0.003  0.004  0.009  0.016
   13  0.017  0.009  0.004  0.031
   14  0.017  0.009  0.004  0.031
   15  0.030  0.002  0.010  0.042
   16  0.003  0.004  0.009  0.016
   17  0.030  0.002  0.010  0.042
   18  0.030  0.002  0.010  0.042
   19  0.007  0.002  0.009  0.018
   20  0.017  0.004  0.007  0.027
   21  0.017  0.004  0.007  0.027
   22  0.008  0.007  0.004  0.019
   23  0.017  0.004  0.007  0.027
   24  0.008  0.007  0.004  0.019
   25  0.007  0.002  0.009  0.018
   26  0.007  0.002  0.009  0.018
   27  0.008  0.007  0.004  0.019
   28  0.001  0.000  0.003  0.005
   29  0.004  0.000  0.003  0.007
   30  0.004  0.000  0.003  0.007
   31  0.004  0.000  0.003  0.007
   32  0.004  0.000  0.003  0.007
   33  0.004  0.000  0.003  0.007
   34  0.004  0.000  0.003  0.007
   35  0.000  0.001  0.002  0.003
   36  0.014  0.004  0.000  0.019
   37  0.001  0.000  0.000  0.001
tot    0.347  0.107  0.198  0.653
 
band    11 # energy   -5.27027652 # occ.  2.00000000
 
ion      s      p      d    tot
    1  0.001  0.001  0.009  0.011
    2  0.004  0.001  0.009  0.014
    3  0.005  0.001  0.009  0.015
    4  0.004  0.001  0.009  0.014
    5  0.000  0.001  0.008  0.009
    6  0.004  0.001  0.009  0.014
    7  0.005  0.001  0.009  0.015
    8  0.004  0.001  0.009  0.014
    9  0.023  0.000  0.006  0.028
   10  0.010  0.000  0.023  0.033
   11  0.009  0.000  0.020  0.029
   12  0.010  0.000  0.023  0.033
   13  0.009  0.000  0.020  0.029
   14  0.009  0.000  0.020  0.029
   15  0.001  0.001  0.022  0.023
   16  0.010  0.000  0.023  0.033
   17  0.001  0.001  0.022  0.023
   18  0.001  0.001  0.022  0.023
   19  0.006  0.000  0.020  0.026
   20  0.011  0.001  0.023  0.035
   21  0.011  0.001  0.023  0.034
   22  0.001  0.001  0.022  0.023
   23  0.011  0.001  0.023  0.034
   24  0.001  0.001  0.022  0.024
   25  0.006  0.000  0.020  0.026
   26  0.006  0.000  0.020  0.026
   27  0.001  0.001  0.022  0.023
   28  0.000  0.001  0.007  0.008
   29  0.003  0.001  0.009  0.014
   30  0.004  0.001  0.009  0.014
   31  0.003  0.001  0.009  0.014
   32  0.003  0.001  0.009  0.014
   33  0.004  0.001  0.009  0.014
   34  0.003  0.001  0.009  0.014
   35  0.022  0.000  0.006  0.028
   36  0.000  0.001  0.006  0.007
   37  0.000  0.000  0.000  0.000
tot    0.204  0.024  0.542  0.770
 
band    12 # energy   -5.26845477 # occ.  2.00000000
 
ion      s      p      d    tot
    1  0.000  0.004  0.011  0.015
    2  0.002  0.002  0.005  0.009
    3  0.021  0.004  0.005  0.030
    4  0.007  0.002  0.005  0.014
    5  0.000  0.000  0.011  0.011
    6  0.010  0.002  0.005  0.017
    7  0.020  0.004  0.005  0.029
    8  0.004  0.002  0.005  0.011
    9  0.000  0.005  0.008  0.013
   10  0.010  0.001  0.006  0.018
   11  0.001  0.002  0.012  0.016
   12  0.002  0.003  0.021  0.026
   13  0.000  0.002  0.014  0.016
   14  0.003  0.001  0.009  0.013
   15  0.009  0.002  0.016  0.027
   16  0.004  0.003  0.017  0.023
   17  0.003  0.001  0.020  0.024
   18  0.024  0.005  0.006  0.035
   19  0.006  0.002  0.015  0.023
   20  0.001  0.001  0.010  0.012
   21  0.000  0.002  0.014  0.017
   22  0.001  0.003  0.025  0.029
   23  0.000  0.002  0.013  0.015
   24  0.009  0.002  0.005  0.016
   25  0.017  0.006  0.008  0.031
   26  0.002  0.001  0.017  0.020
   27  0.004  0.002  0.020  0.026
   28  0.000  0.005  0.009  0.013
   29  0.003  0.002  0.006  0.011
   30  0.023  0.004  0.007  0.034
   31  0.009  0.002  0.006  0.017
   32  0.009  0.003  0.006  0.018
   33  0.023  0.004  0.007  0.033
   34  0.004  0.002  0.006  0.012
   35  0.000  0.005  0.011  0.016
   36  0.000  0.000  0.009  0.009
   37  0.000  0.000  0.000  0.000
tot    0.231  0.095  0.377  0.703
 
band    13 # energy   -5.26842050 # occ.  2.00000000
 
ion      s      p      d    tot
    1  0.000  0.004  0.011  0.015
    2  0.019  0.004  0.005  0.028
    3  0.000  0.002  0.005  0.007
    4  0.015  0.003  0.005  0.023
    5  0.000  0.000  0.011  0.011
    6  0.012  0.003  0.005  0.020
    7  0.001  0.002  0.005  0.008
    8  0.017  0.003  0.005  0.026
    9  0.000  0.005  0.008  0.013
   10  0.000  0.004  0.023  0.027
   11  0.002  0.002  0.011  0.015
   12  0.009  0.002  0.008  0.019
   13  0.002  0.002  0.010  0.014
   14  0.000  0.003  0.014  0.017
   15  0.015  0.003  0.012  0.030
   16  0.006  0.002  0.012  0.021
   17  0.020  0.005  0.008  0.033
   18  0.000  0.000  0.022  0.023
   19  0.010  0.004  0.012  0.026
   20  0.000  0.002  0.015  0.017
   21  0.001  0.001  0.011  0.013
   22  0.008  0.002  0.008  0.019
   23  0.001  0.001  0.012  0.014
   24  0.000  0.003  0.028  0.031
   25  0.000  0.000  0.018  0.019
   26  0.014  0.005  0.010  0.029
   27  0.006  0.002  0.013  0.022
   28  0.000  0.005  0.009  0.013
   29  0.021  0.004  0.007  0.031
   30  0.000  0.002  0.006  0.008
   31  0.015  0.003  0.007  0.025
   32  0.014  0.003  0.007  0.024
   33  0.001  0.002  0.006  0.008
   34  0.020  0.003  0.007  0.030
   35  0.000  0.005  0.011  0.016
   36  0.000  0.000  0.009  0.009
   37  0.000  0.000  0.000  0.000
tot    0.231  0.095  0.377  0.703
 
band    14 # energy   -5.26141095 # occ.  2.00000000
 
ion      s      p      d    tot
    1  0.038  0.003  0.000  0.040
    2  0.001  0.003  0.010  0.013
    3  0.001  0.003  0.010  0.013
    4  0.001  0.003  0.010  0.013
    5  0.000  0.000  0.002  0.002
    6  0.001  0.003  0.010  0.013
    7  0.001  0.003  0.010  0.013
    8  0.001  0.003  0.010  0.013
    9  0.020  0.004  0.002  0.025
   10  0.005  0.003  0.012  0.020
   11  0.003  0.000  0.016  0.020
   12  0.005  0.003  0.011  0.020
   13  0.003  0.000  0.016  0.020
   14  0.003  0.000  0.016  0.020
   15  0.009  0.003  0.016  0.028
   16  0.005  0.003  0.012  0.020
   17  0.009  0.003  0.016  0.028
   18  0.009  0.003  0.016  0.028
   19  0.002  0.003  0.021  0.026
   20  0.000  0.000  0.015  0.015
   21  0.000  0.000  0.015  0.015
   22  0.013  0.003  0.010  0.026
   23  0.000  0.000  0.015  0.015
   24  0.013  0.003  0.010  0.026
   25  0.002  0.003  0.021  0.026
   26  0.002  0.003  0.021  0.026
   27  0.013  0.003  0.010  0.026
   28  0.042  0.002  0.000  0.044
   29  0.000  0.003  0.012  0.015
   30  0.000  0.003  0.012  0.015
   31  0.000  0.003  0.012  0.015
   32  0.000  0.003  0.012  0.015
   33  0.000  0.003  0.012  0.015
   34  0.000  0.003  0.012  0.015
   35  0.019  0.003  0.002  0.025
   36  0.000  0.000  0.000  0.001
   37  0.000  0.000  0.000  0.000
tot    0.223  0.084  0.406  0.712
 
band    15 # energy   -5.24595878 # occ.  2.00000000
 
ion      s      p      d    tot
    1  0.000  0.002  0.009  0.011
    2  0.001  0.002  0.005  0.008
    3  0.021  0.004  0.005  0.030
    4  0.008  0.002  0.005  0.016
    5  0.000  0.006  0.009  0.015
    6  0.012  0.003  0.005  0.019
    7  0.019  0.004  0.005  0.028
    8  0.003  0.002  0.005  0.010
    9  0.000  0.001  0.012  0.013
   10  0.001  0.001  0.016  0.017
   11  0.011  0.003  0.015  0.029
   12  0.012  0.004  0.009  0.025
   13  0.018  0.004  0.007  0.029
   14  0.001  0.002  0.026  0.028
   15  0.000  0.002  0.013  0.015
   16  0.007  0.002  0.012  0.022
   17  0.001  0.000  0.009  0.010
   18  0.000  0.004  0.018  0.022
   19  0.001  0.002  0.014  0.017
   20  0.001  0.001  0.028  0.031
   21  0.018  0.005  0.008  0.031
   22  0.009  0.004  0.010  0.023
   23  0.011  0.003  0.017  0.031
   24  0.000  0.001  0.014  0.016
   25  0.000  0.003  0.022  0.025
   26  0.002  0.000  0.009  0.011
   27  0.005  0.002  0.012  0.020
   28  0.000  0.002  0.014  0.016
   29  0.002  0.002  0.006  0.009
   30  0.020  0.004  0.007  0.031
   31  0.009  0.002  0.006  0.018
   32  0.010  0.003  0.006  0.019
   33  0.020  0.004  0.007  0.030
   34  0.002  0.002  0.006  0.010
   35  0.000  0.001  0.011  0.013
   36  0.000  0.009  0.005  0.015
   37  0.000  0.000  0.000  0.000
tot    0.225  0.096  0.390  0.711
 
band    16 # energy   -5.24592201 # occ.  2.00000000
 
ion      s      p      d    tot
    1  0.000  0.002  0.009  0.011
    2  0.020  0.004  0.005  0.029
    3  0.000  0.002  0.005  0.007
    4  0.013  0.003  0.005  0.021
    5  0.000  0.006  0.009  0.015
    6  0.010  0.003  0.005  0.017
    7  0.002  0.002  0.005  0.009
    8  0.018  0.004  0.005  0.027
    9  0.000  0.001  0.012  0.013
   10  0.012  0.004  0.009  0.025
   11  0.009  0.003  0.017  0.029
   12  0.001  0.001  0.016  0.018
   13  0.002  0.002  0.025  0.028
   14  0.019  0.004  0.006  0.029
   15  0.000  0.002  0.014  0.016
   16  0.006  0.002  0.013  0.021
   17  0.000  0.003  0.018  0.021
   18  0.001  0.000  0.008  0.009
   19  0.001  0.002  0.016  0.018
   20  0.019  0.005  0.007  0.031
   21  0.002  0.001  0.027  0.031
   22  0.001  0.001  0.014  0.016
   23  0.009  0.003  0.019  0.031
   24  0.010  0.004  0.010  0.023
   25  0.002  0.000  0.008  0.010
   26  0.000  0.003  0.021  0.025
   27  0.005  0.002  0.012  0.019
   28  0.000  0.002  0.014  0.016
   29  0.019  0.004  0.007  0.030
   30  0.001  0.002  0.006  0.008
   31  0.012  0.003  0.007  0.021
   32  0.011  0.003  0.006  0.020
   33  0.001  0.002  0.006  0.009
   34  0.019  0.004  0.007  0.029
   35  0.000  0.001  0.011  0.013
   36  0.000  0.009  0.005  0.015
   37  0.000  0.000  0.000  0.000
tot    0.225  0.096  0.390  0.711
 
band    17 # energy   -5.06877070 # occ.  2.00000000
 
ion      s      p      d    tot
    1  0.016  0.002  0.000  0.018
    2  0.000  0.003  0.012  0.015
    3  0.000  0.003  0.012  0.015
    4  0.000  0.003  0.012  0.015
    5  0.045  0.003  0.000  0.048
    6  0.000  0.003  0.012  0.015
    7  0.000  0.003  0.012  0.015
    8  0.000  0.003  0.012  0.015
    9  0.004  0.001  0.001  0.005
   10  0.001  0.001  0.028  0.031
   11  0.003  0.004  0.022  0.029
   12  0.001  0.001  0.028  0.031
   13  0.003  0.004  0.022  0.029
   14  0.003  0.004  0.022  0.029
   15  0.003  0.001  0.009  0.014
   16  0.001  0.001  0.028  0.031
   17  0.003  0.001  0.009  0.014
   18  0.003  0.001  0.009  0.014
   19  0.011  0.001  0.025  0.037
   20  0.011  0.003  0.006  0.020
   21  0.011  0.003  0.006  0.020
   22  0.002  0.001  0.018  0.022
   23  0.011  0.003  0.006  0.020
   24  0.002  0.001  0.018  0.022
   25  0.011  0.001  0.025  0.037
   26  0.011  0.001  0.025  0.037
   27  0.002  0.001  0.018  0.022
   28  0.001  0.002  0.007  0.010
   29  0.002  0.001  0.010  0.013
   30  0.002  0.001  0.010  0.013
   31  0.002  0.001  0.010  0.013
   32  0.002  0.001  0.010  0.013
   33  0.002  0.001  0.010  0.013
   34  0.002  0.001  0.010  0.013
   35  0.002  0.001  0.003  0.005
   36  0.026  0.008  0.000  0.034
   37  0.001  0.001  0.000  0.002
tot    0.202  0.081  0.469  0.751
 
band    18 # energy   -4.58232791 # occ.  2.00000000
 
ion      s      p      d    tot
    1  0.002  0.000  0.001  0.003
    2  0.000  0.001  0.017  0.018
    3  0.000  0.001  0.017  0.018
    4  0.000  0.001  0.017  0.018
    5  0.014  0.001  0.000  0.015
    6  0.000  0.001  0.017  0.018
    7  0.000  0.001  0.017  0.018
    8  0.000  0.001  0.017  0.018
    9  0.028  0.001  0.002  0.031
   10  0.000  0.001  0.008  0.009
   11  0.000  0.001  0.020  0.021
   12  0.000  0.001  0.008  0.009
   13  0.000  0.001  0.020  0.021
   14  0.000  0.001  0.020  0.020
   15  0.000  0.003  0.038  0.042
   16  0.000  0.001  0.008  0.009
   17  0.000  0.003  0.038  0.042
   18  0.000  0.003  0.038  0.041
   19  0.000  0.001  0.024  0.026
   20  0.000  0.000  0.010  0.011
   21  0.000  0.000  0.010  0.011
   22  0.001  0.003  0.033  0.037
   23  0.000  0.000  0.010  0.011
   24  0.001  0.003  0.033  0.037
   25  0.000  0.001  0.025  0.026
   26  0.000  0.001  0.024  0.026
   27  0.001  0.003  0.033  0.037
   28  0.022  0.000  0.002  0.024
   29  0.000  0.001  0.025  0.026
   30  0.000  0.001  0.025  0.027
   31  0.000  0.001  0.025  0.026
   32  0.000  0.001  0.025  0.027
   33  0.000  0.001  0.025  0.027
   34  0.000  0.001  0.025  0.027
   35  0.023  0.000  0.004  0.027
   36  0.000  0.000  0.000  0.000
   37  0.000  0.000  0.000  0.000
tot    0.097  0.048  0.658  0.804
 
band    19 # energy   -4.57716682 # occ.  2.00000000
 
ion      s      p      d    tot
    1  0.000  0.001  0.029  0.030
    2  0.010  0.001  0.009  0.020
    3  0.013  0.001  0.009  0.023
    4  0.010  0.001  0.010  0.021
    5  0.000  0.000  0.023  0.023
    6  0.013  0.001  0.010  0.024
    7  0.000  0.001  0.009  0.010
    8  0.000  0.001  0.009  0.010
    9  0.000  0.003  0.001  0.004
   10  0.000  0.000  0.041  0.041
   11  0.000  0.003  0.017  0.020
   12  0.000  0.000  0.052  0.052
   13  0.000  0.001  0.021  0.021
   14  0.000  0.001  0.020  0.021
   15  0.001  0.007  0.017  0.025
   16  0.001  0.001  0.004  0.005
   17  0.000  0.001  0.017  0.018
   18  0.000  0.003  0.017  0.020
   19  0.002  0.007  0.022  0.030
   20  0.000  0.000  0.035  0.036
   21  0.000  0.000  0.042  0.042
   22  0.000  0.000  0.039  0.040
   23  0.000  0.001  0.013  0.014
   24  0.001  0.001  0.032  0.033
   25  0.001  0.002  0.015  0.018
   26  0.000  0.001  0.013  0.014
   27  0.002  0.003  0.007  0.011
   28  0.000  0.002  0.003  0.006
   29  0.001  0.001  0.012  0.013
   30  0.003  0.001  0.013  0.016
   31  0.016  0.001  0.014  0.031
   32  0.014  0.001  0.015  0.030
   33  0.009  0.001  0.011  0.021
   34  0.005  0.001  0.011  0.017
   35  0.000  0.002  0.022  0.024
   36  0.000  0.000  0.014  0.014
   37  0.000  0.000  0.000  0.000
tot    0.102  0.053  0.647  0.801
 
band    20 # energy   -4.57715792 # occ.  2.00000000
 
ion      s      p      d    tot
    1  0.000  0.001  0.029  0.030
    2  0.005  0.001  0.009  0.016
    3  0.002  0.001  0.009  0.013
    4  0.006  0.001  0.009  0.015
    5  0.000  0.000  0.023  0.023
    6  0.003  0.001  0.009  0.012
    7  0.015  0.001  0.009  0.026
    8  0.015  0.001  0.009  0.026
    9  0.000  0.003  0.001  0.004
   10  0.000  0.001  0.024  0.025
   11  0.000  0.000  0.021  0.021
   12  0.000  0.001  0.013  0.014
   13  0.000  0.003  0.018  0.021
   14  0.000  0.002  0.018  0.021
   15  0.000  0.000  0.017  0.017
   16  0.000  0.000  0.061  0.061
   17  0.001  0.006  0.017  0.023
   18  0.001  0.005  0.017  0.022
   19  0.000  0.000  0.011  0.011
   20  0.000  0.001  0.025  0.026
   21  0.000  0.001  0.018  0.019
   22  0.001  0.002  0.013  0.016
   23  0.000  0.000  0.047  0.047
   24  0.001  0.002  0.020  0.023
   25  0.001  0.004  0.018  0.023
   26  0.002  0.006  0.020  0.027
   27  0.000  0.000  0.045  0.045
   28  0.000  0.002  0.003  0.005
   29  0.015  0.001  0.013  0.030
   30  0.013  0.001  0.013  0.027
   31  0.000  0.001  0.011  0.012
   32  0.002  0.001  0.011  0.013
   33  0.007  0.001  0.014  0.022
   34  0.010  0.001  0.015  0.026
   35  0.000  0.002  0.022  0.024
   36  0.000  0.000  0.014  0.014
   37  0.000  0.000  0.000  0.000
tot    0.102  0.053  0.647  0.801
 
band    21 # energy   -4.56829662 # occ.  2.00000000
 
ion      s      p      d    tot
    1  0.000  0.002  0.006  0.008
    2  0.012  0.001  0.009  0.022
    3  0.011  0.001  0.009  0.022
    4  0.011  0.001  0.010  0.022
    5  0.000  0.003  0.012  0.014
    6  0.011  0.001  0.010  0.022
    7  0.000  0.001  0.009  0.010
    8  0.000  0.001  0.009  0.010
    9  0.000  0.000  0.034  0.034
   10  0.000  0.005  0.018  0.023
   11  0.000  0.000  0.043  0.043
   12  0.000  0.005  0.018  0.023
   13  0.001  0.003  0.016  0.020
   14  0.001  0.003  0.016  0.020
   15  0.000  0.000  0.049  0.049
   16  0.000  0.000  0.005  0.005
   17  0.000  0.000  0.018  0.018
   18  0.000  0.000  0.018  0.018
   19  0.000  0.000  0.058  0.059
   20  0.001  0.004  0.019  0.024
   21  0.001  0.004  0.019  0.024
   22  0.000  0.003  0.018  0.021
   23  0.000  0.000  0.025  0.025
   24  0.000  0.003  0.018  0.022
   25  0.000  0.000  0.018  0.018
   26  0.000  0.000  0.018  0.018
   27  0.000  0.000  0.017  0.017
   28  0.000  0.001  0.040  0.041
   29  0.001  0.001  0.012  0.014
   30  0.001  0.001  0.013  0.015
   31  0.014  0.001  0.013  0.028
   32  0.014  0.001  0.013  0.028
   33  0.007  0.001  0.011  0.019
   34  0.007  0.001  0.012  0.019
   35  0.000  0.001  0.021  0.022
   36  0.000  0.004  0.001  0.005