PROCAR new format
# of k-points:   10         # of bands:  252         # of ions:   37

 k-point     1 :    0.00000000 0.00000000 0.00000000     weight = 0.01562500

band     1 # energy  -54.44286205 # occ.  2.00000000
 
ion      s      p      d    tot
    1  0.000  0.000  0.000  0.000
    2  0.000  0.000  0.000  0.000
    3  0.000  0.000  0.000  0.000
    4  0.000  0.000  0.000  0.000
    5  0.000  0.000  0.000  0.000
    6  0.000  0.000  0.000  0.000
    7  0.000  0.000  0.000  0.000
    8  0.000  0.000  0.000  0.000
    9  0.000  0.000  0.000  0.000
   10  0.000  0.000  0.000  0.000
   11  0.000  0.000  0.000  0.000
   12  0.000  0.000  0.000  0.000
   13  0.000  0.000  0.000  0.000
   14  0.000  0.000  0.000  0.000
   15  0.000  0.000  0.000  0.000
   16  0.000  0.000  0.000  0.000
   17  0.000  0.000  0.000  0.000
   18  0.000  0.000  0.000  0.000
   19  0.000  0.000  0.000  0.000
   20  0.000  0.000  0.000  0.000
   21  0.000  0.000  0.000  0.000
   22  0.000  0.000  0.000  0.000
   23  0.000  0.000  0.000  0.000
   24  0.000  0.000  0.000  0.000
   25  0.000  0.000  0.000  0.000
   26  0.000  0.000  0.000  0.000
   27  0.000  0.000  0.000  0.000
   28  0.000  0.000  0.000  0.000
   29  0.000  0.000  0.000  0.000
   30  0.000  0.000  0.000  0.000
   31  0.000  0.000  0.000  0.000
   32  0.000  0.000  0.000  0.000
   33  0.000  0.000  0.000  0.000
   34  0.000  0.000  0.000  0.000
   35  0.000  0.000  0.000  0.000
   36  0.991  0.000  0.000  0.991
   37  0.001  0.002  0.000  0.003
tot    0.992  0.002  0.000  0.994
 
band     2 # energy  -30.88549979 # occ.  2.00000000
 
ion      s      p      d    tot
    1  0.000  0.000  0.000  0.000
    2  0.000  0.000  0.000  0.000
    3  0.000  0.000  0.000  0.000
    4  0.000  0.000  0.000  0.000
    5  0.000  0.000  0.000  0.000
    6  0.000  0.000  0.000  0.000
    7  0.000  0.000  0.000  0.000
    8  0.000  0.000  0.000  0.000
    9  0.000  0.000  0.000  0.000
   10  0.000  0.000  0.000  0.000
   11  0.000  0.000  0.000  0.000
   12  0.000  0.000  0.000  0.000
   13  0.000  0.000  0.000  0.000
   14  0.000  0.000  0.000  0.000
   15  0.000  0.000  0.000  0.000
   16  0.000  0.000  0.000  0.000
   17  0.000  0.000  0.000  0.000
   18  0.000  0.000  0.000  0.000
   19  0.000  0.000  0.000  0.000
   20  0.000  0.000  0.000  0.000
   21  0.000  0.000  0.000  0.000
   22  0.000  0.000  0.000  0.000
   23  0.000  0.000  0.000  0.000
   24  0.000  0.000  0.000  0.000
   25  0.000  0.000  0.000  0.000
   26  0.000  0.000  0.000  0.000
   27  0.000  0.000  0.000  0.000
   28  0.000  0.000  0.000  0.000
   29  0.000  0.000  0.000  0.000
   30  0.000  0.000  0.000  0.000
   31  0.000  0.000  0.000  0.000
   32  0.000  0.000  0.000  0.000
   33  0.000  0.000  0.000  0.000
   34  0.000  0.000  0.000  0.000
   35  0.000  0.000  0.000  0.000
   36  0.000  0.946  0.001  0.947
   37  0.020  0.016  0.000  0.036
tot    0.021  0.962  0.002  0.984
 
band     3 # energy  -30.66730209 # occ.  2.00000000
 
ion      s      p      d    tot
    1  0.000  0.000  0.000  0.000
    2  0.000  0.000  0.000  0.000
    3  0.000  0.000  0.000  0.000
    4  0.000  0.000  0.000  0.000
    5  0.000  0.000  0.000  0.000
    6  0.000  0.000  0.000  0.000
    7  0.000  0.000  0.000  0.000
    8  0.000  0.000  0.000  0.000
    9  0.000  0.000  0.000  0.000
   10  0.000  0.000  0.000  0.000
   11  0.000  0.000  0.000  0.000
   12  0.000  0.000  0.000  0.000
   13  0.000  0.000  0.000  0.000
   14  0.000  0.000  0.000  0.000
   15  0.000  0.000  0.000  0.000
   16  0.000  0.000  0.000  0.000
   17  0.000  0.000  0.000  0.000
   18  0.000  0.000  0.000  0.000
   19  0.000  0.000  0.000  0.000
   20  0.000  0.000  0.000  0.000
   21  0.000  0.000  0.000  0.000
   22  0.000  0.000  0.000  0.000
   23  0.000  0.000  0.000  0.000
   24  0.000  0.000  0.000  0.000
   25  0.000  0.000  0.000  0.000
   26  0.000  0.000  0.000  0.000
   27  0.000  0.000  0.000  0.000
   28  0.000  0.000  0.000  0.000
   29  0.000  0.000  0.000  0.000
   30  0.000  0.000  0.000  0.001
   31  0.000  0.000  0.000  0.000
   32  0.000  0.000  0.000  0.000
   33  0.000  0.000  0.000  0.001
   34  0.000  0.000  0.000  0.000
   35  0.000  0.000  0.000  0.000
   36  0.000  0.970  0.000  0.970
   37  0.000  0.001  0.000  0.001
tot    0.001  0.972  0.001  0.973
 
band     4 # energy  -30.66729322 # occ.  2.00000000
 
ion      s      p      d    tot
    1  0.000  0.000  0.000  0.000
    2  0.000  0.000  0.000  0.000
    3  0.000  0.000  0.000  0.000
    4  0.000  0.000  0.000  0.000
    5  0.000  0.000  0.000  0.000
    6  0.000  0.000  0.000  0.000
    7  0.000  0.000  0.000  0.000
    8  0.000  0.000  0.000  0.000
    9  0.000  0.000  0.000  0.000
   10  0.000  0.000  0.000  0.000
   11  0.000  0.000  0.000  0.000
   12  0.000  0.000  0.000  0.000
   13  0.000  0.000  0.000  0.000
   14  0.000  0.000  0.000  0.000
   15  0.000  0.000  0.000  0.000
   16  0.000  0.000  0.000  0.000
   17  0.000  0.000  0.000  0.000
   18  0.000  0.000  0.000  0.000
   19  0.000  0.000  0.000  0.000
   20  0.000  0.000  0.000  0.000
   21  0.000  0.000  0.000  0.000
   22  0.000  0.000  0.000  0.000
   23  0.000  0.000  0.000  0.000
   24  0.000  0.000  0.000  0.000
   25  0.000  0.000  0.000  0.000
   26  0.000  0.000  0.000  0.000
   27  0.000  0.000  0.000  0.000
   28  0.000  0.000  0.000  0.000
   29  0.000  0.000  0.000  0.001
   30  0.000  0.000  0.000  0.000
   31  0.000  0.000  0.000  0.001
   32  0.000  0.000  0.000  0.001
   33  0.000  0.000  0.000  0.000
   34  0.000  0.000  0.000  0.001
   35  0.000  0.000  0.000  0.000
   36  0.000  0.970  0.000  0.970
   37  0.000  0.001  0.000  0.001
tot    0.001  0.972  0.001  0.973
 
band     5 # energy  -11.81473047 # occ.  2.00000000
 
ion      s      p      d    tot
    1  0.000  0.000  0.000  0.000
    2  0.000  0.000  0.000  0.000
    3  0.000  0.000  0.000  0.000
    4  0.000  0.000  0.000  0.000
    5  0.000  0.000  0.000  0.000
    6  0.000  0.000  0.000  0.000
    7  0.000  0.000  0.000  0.000
    8  0.000  0.000  0.000  0.000
    9  0.000  0.000  0.000  0.000
   10  0.000  0.000  0.000  0.000
   11  0.000  0.000  0.000  0.000
   12  0.000  0.000  0.000  0.000
   13  0.000  0.000  0.000  0.000
   14  0.000  0.000  0.000  0.000
   15  0.000  0.000  0.000  0.000
   16  0.000  0.000  0.000  0.000
   17  0.000  0.000  0.000  0.000
   18  0.000  0.000  0.000  0.000
   19  0.000  0.000  0.000  0.000
   20  0.001  0.000  0.000  0.001
   21  0.001  0.000  0.000  0.001
   22  0.000  0.000  0.000  0.000
   23  0.001  0.000  0.000  0.001
   24  0.000  0.000  0.000  0.000
   25  0.000  0.000  0.000  0.000
   26  0.000  0.000  0.000  0.000
   27  0.000  0.000  0.000  0.000
   28  0.000  0.000  0.000  0.000
   29  0.000  0.000  0.000  0.000
   30  0.000  0.000  0.000  0.000
   31  0.000  0.000  0.000  0.000
   32  0.000  0.000  0.000  0.000
   33  0.000  0.000  0.000  0.000
   34  0.000  0.000  0.000  0.000
   35  0.000  0.000  0.000  0.000
   36  0.026  0.038  0.085  0.149
   37  0.621  0.007  0.000  0.628
tot    0.650  0.046  0.087  0.782
 
band     6 # energy   -8.77831576 # occ.  2.00000000
 
ion      s      p      d    tot
    1  0.007  0.001  0.000  0.007
    2  0.007  0.001  0.000  0.007
    3  0.007  0.001  0.000  0.007
    4  0.007  0.001  0.000  0.007
    5  0.007  0.001  0.000  0.007
    6  0.007  0.001  0.000  0.007
    7  0.007  0.001  0.000  0.007
    8  0.007  0.001  0.000  0.007
    9  0.007  0.001  0.000  0.007
   10  0.025  0.000  0.000  0.025
   11  0.025  0.000  0.000  0.025
   12  0.025  0.000  0.000  0.025
   13  0.025  0.000  0.000  0.025
   14  0.024  0.000  0.000  0.025
   15  0.025  0.000  0.000  0.025
   16  0.025  0.000  0.000  0.025
   17  0.025  0.000  0.000  0.025
   18  0.025  0.000  0.000  0.025
   19  0.025  0.000  0.000  0.026
   20  0.024  0.000  0.000  0.024
   21  0.024  0.000  0.000  0.024
   22  0.024  0.000  0.000  0.025
   23  0.024  0.000  0.000  0.024
   24  0.024  0.000  0.000  0.025
   25  0.025  0.000  0.000  0.026
   26  0.025  0.000  0.000  0.026
   27  0.024  0.000  0.000  0.025
   28  0.007  0.001  0.000  0.008
   29  0.007  0.001  0.000  0.007
   30  0.007  0.001  0.000  0.007
   31  0.007  0.001  0.000  0.007
   32  0.007  0.001  0.000  0.007
   33  0.007  0.001  0.000  0.007
   34  0.007  0.001  0.000  0.007
   35  0.007  0.001  0.000  0.008
   36  0.002  0.001  0.000  0.003
   37  0.002  0.000  0.000  0.002
tot    0.560  0.017  0.001  0.578
 
band     7 # energy   -7.48832056 # occ.  2.00000000
 
ion      s      p      d    tot
    1  0.018  0.001  0.000  0.019
    2  0.018  0.001  0.000  0.019
    3  0.018  0.001  0.000  0.019
    4  0.018  0.001  0.000  0.019
    5  0.018  0.001  0.000  0.019
    6  0.018  0.001  0.000  0.019
    7  0.018  0.001  0.000  0.019
    8  0.018  0.001  0.000  0.019
    9  0.018  0.001  0.000  0.019
   10  0.010  0.002  0.001  0.013
   11  0.010  0.002  0.000  0.013
   12  0.010  0.002  0.001  0.013
   13  0.010  0.002  0.000  0.013
   14  0.010  0.002  0.000  0.013
   15  0.009  0.002  0.001  0.012
   16  0.010  0.002  0.001  0.013
   17  0.009  0.002  0.001  0.012
   18  0.009  0.002  0.001  0.012
   19  0.011  0.002  0.000  0.014
   20  0.008  0.002  0.001  0.011
   21  0.008  0.002  0.001  0.011
   22  0.011  0.002  0.000  0.014
   23  0.008  0.002  0.001  0.011
   24  0.011  0.002  0.000  0.014
   25  0.011  0.002  0.000  0.014
   26  0.011  0.002  0.000  0.014
   27  0.011  0.002  0.000  0.014
   28  0.021  0.001  0.001  0.023
   29  0.019  0.001  0.001  0.020
   30  0.019  0.001  0.001  0.020
   31  0.019  0.001  0.001  0.020
   32  0.019  0.001  0.001  0.020
   33  0.019  0.001  0.001  0.020
   34  0.019  0.001  0.001  0.020
   35  0.021  0.001  0.001  0.022
   36  0.005  0.001  0.002  0.009
   37  0.002  0.000  0.000  0.002
tot    0.501  0.054  0.022  0.577
 
band     8 # energy   -5.93853959 # occ.  2.00000000
 
ion      s      p      d    tot
    1  0.015  0.000  0.005  0.020
    2  0.014  0.000  0.005  0.019
    3  0.014  0.000  0.005  0.019
    4  0.014  0.000  0.005  0.019
    5  0.007  0.000  0.006  0.013
    6  0.014  0.000  0.005  0.019
    7  0.014  0.000  0.005  0.019
    8  0.014  0.000  0.005  0.019
    9  0.023  0.000  0.003  0.026
   10  0.002  0.003  0.002  0.008
   11  0.010  0.005  0.001  0.015
   12  0.002  0.003  0.002  0.008
   13  0.010  0.005  0.001  0.015
   14  0.010  0.005  0.001  0.015
   15  0.000  0.003  0.003  0.006
   16  0.002  0.003  0.002  0.008
   17  0.000  0.003  0.003  0.006
   18  0.000  0.003  0.003  0.006
   19  0.001  0.003  0.006  0.010
   20  0.020  0.004  0.003  0.028
   21  0.020  0.004  0.003  0.028
   22  0.001  0.004  0.004  0.009
   23  0.020  0.004  0.003  0.028
   24  0.001  0.004  0.004  0.009
   25  0.001  0.003  0.006  0.010
   26  0.001  0.003  0.006  0.010
   27  0.001  0.004  0.004  0.009
   28  0.021  0.000  0.006  0.027
   29  0.017  0.000  0.008  0.025
   30  0.017  0.000  0.008  0.025
   31  0.017  0.000  0.008  0.025
   32  0.017  0.000  0.008  0.025
   33  0.017  0.000  0.008  0.025
   34  0.017  0.000  0.008  0.025
   35  0.027  0.000  0.006  0.033
   36  0.002  0.000  0.013  0.015
   37  0.000  0.002  0.000  0.002
tot    0.382  0.069  0.176  0.626
 
band     9 # energy   -5.83075606 # occ.  2.00000000
 
ion      s      p      d    tot
    1  0.000  0.003  0.005  0.008
    2  0.007  0.002  0.002  0.012
    3  0.005  0.002  0.002  0.008
    4  0.007  0.002  0.002  0.012
    5  0.000  0.001  0.002  0.003
    6  0.000  0.001  0.002  0.003
    7  0.005  0.002  0.002  0.008
    8  0.000  0.001  0.002  0.003
    9  0.000  0.001  0.003  0.004
   10  0.053  0.003  0.005  0.061
   11  0.001  0.009  0.003  0.013
   12  0.014  0.006  0.009  0.028
   13  0.001  0.009  0.003  0.013
   14  0.004  0.000  0.005  0.010
   15  0.007  0.002  0.010  0.019
   16  0.013  0.006  0.009  0.027
   17  0.007  0.002  0.010  0.019
   18  0.027  0.004  0.002  0.034
   19  0.014  0.007  0.008  0.029
   20  0.042  0.005  0.003  0.050
   21  0.011  0.001  0.015  0.027
   22  0.000  0.009  0.003  0.013
   23  0.010  0.001  0.015  0.026
   24  0.001  0.001  0.005  0.007
   25  0.057  0.002  0.006  0.065
   26  0.014  0.007  0.008  0.029
   27  0.000  0.009  0.003  0.013
   28  0.000  0.004  0.006  0.010
   29  0.009  0.003  0.003  0.015
   30  0.012  0.002  0.004  0.018
   31  0.009  0.003  0.003  0.015
   32  0.000  0.001  0.004  0.005
   33  0.012  0.002  0.004  0.018
   34  0.000  0.001  0.004  0.005
   35  0.000  0.001  0.003  0.004
   36  0.000  0.001  0.007  0.008
   37  0.000  0.000  0.000  0.000
tot    0.345  0.112  0.182  0.638
 
band    10 # energy   -5.83055944 # occ.  2.00000000
 
ion      s      p      d    tot
    1  0.000  0.003  0.005  0.008
    2  0.001  0.001  0.002  0.004
    3  0.003  0.001  0.002  0.007
    4  0.001  0.001  0.002  0.004
    5  0.000  0.001  0.002  0.003
    6  0.008  0.002  0.002  0.012
    7  0.003  0.001  0.002  0.007
    8  0.008  0.002  0.002  0.012
    9  0.000  0.001  0.003  0.004
   10  0.000  0.007  0.010  0.016
   11  0.003  0.003  0.004  0.011
   12  0.040  0.004  0.006  0.049
   13  0.003  0.003  0.004  0.011
   14  0.000  0.011  0.002  0.013
   15  0.021  0.003  0.005  0.029
   16  0.040  0.004  0.006  0.050
   17  0.020  0.003  0.005  0.029
   18  0.000  0.001  0.013  0.014
   19  0.043  0.004  0.007  0.053
   20  0.000  0.000  0.019  0.019
   21  0.031  0.003  0.007  0.042
   22  0.001  0.004  0.005  0.009
   23  0.032  0.004  0.007  0.042
   24  0.000  0.012  0.003  0.014
   25  0.000  0.009  0.008  0.017
   26  0.042  0.004  0.007  0.053
   27  0.001  0.003  0.005  0.009
   28  0.000  0.004  0.006  0.010
   29  0.005  0.001  0.004  0.010
   30  0.002  0.002  0.004  0.007
   31  0.005  0.001  0.004  0.010
   32  0.014  0.003  0.003  0.020
   33  0.002  0.002  0.004  0.007
   34  0.014  0.003  0.003  0.020
   35  0.000  0.001  0.003  0.004
   36  0.000  0.001  0.007  0.008
   37  0.000  0.000  0.000  0.000
tot    0.345  0.112  0.182  0.638
 
band    11 # energy   -5.80016229 # occ.  2.00000000
 
ion      s      p      d    tot
    1  0.000  0.000  0.002  0.002
    2  0.008  0.002  0.002  0.012
    3  0.006  0.002  0.002  0.009
    4  0.008  0.002  0.002  0.012
    5  0.000  0.002  0.005  0.007
    6  0.000  0.001  0.002  0.003
    7  0.006  0.002  0.002  0.009
    8  0.000  0.001  0.002  0.003
    9  0.000  0.002  0.003  0.006
   10  0.000  0.006  0.008  0.014
   11  0.042  0.004  0.006  0.051
   12  0.003  0.003  0.004  0.011
   13  0.040  0.004  0.006  0.050
   14  0.000  0.001  0.015  0.016
   15  0.021  0.003  0.005  0.030
   16  0.003  0.003  0.004  0.011
   17  0.021  0.004  0.005  0.030
   18  0.000  0.012  0.003  0.015
   19  0.007  0.003  0.005  0.016
   20  0.000  0.015  0.002  0.016
   21  0.019  0.004  0.006  0.029
   22  0.047  0.004  0.006  0.057
   23  0.019  0.004  0.006  0.029
   24  0.000  0.002  0.016  0.018
   25  0.000  0.005  0.011  0.016
   26  0.007  0.004  0.005  0.015
   27  0.049  0.004  0.006  0.059
   28  0.000  0.000  0.004  0.004
   29  0.010  0.002  0.003  0.015
   30  0.008  0.003  0.004  0.015
   31  0.010  0.002  0.003  0.015
   32  0.000  0.001  0.003  0.004
   33  0.008  0.003  0.004  0.014
   34  0.000  0.001  0.003  0.004
   35  0.000  0.003  0.006  0.010
   36  0.000  0.001  0.005  0.007
   37  0.000  0.000  0.000  0.000
tot    0.342  0.114  0.179  0.636
 
band    12 # energy   -5.80001101 # occ.  2.00000000
 
ion      s      p      d    tot
    1  0.003  0.000  0.002  0.005
    2  0.001  0.001  0.002  0.004
    3  0.003  0.002  0.003  0.008
    4  0.001  0.001  0.002  0.004
    5  0.000  0.002  0.004  0.007
    6  0.008  0.001  0.002  0.011
    7  0.003  0.002  0.003  0.008
    8  0.008  0.001  0.002  0.011
    9  0.001  0.002  0.003  0.006
   10  0.000  0.006  0.002  0.007
   11  0.018  0.002  0.012  0.032
   12  0.010  0.004  0.007  0.021
   13  0.020  0.002  0.012  0.033
   14  0.034  0.003  0.005  0.042
   15  0.001  0.009  0.002  0.013
   16  0.009  0.004  0.007  0.021
   17  0.002  0.009  0.002  0.013
   18  0.037  0.001  0.009  0.047
   19  0.011  0.003  0.008  0.022
   20  0.023  0.000  0.014  0.037
   21  0.005  0.010  0.002  0.016
   22  0.032  0.002  0.012  0.046
   23  0.005  0.010  0.002  0.016
   24  0.029  0.006  0.005  0.040
   25  0.001  0.008  0.003  0.011
   26  0.012  0.003  0.008  0.022
   27  0.030  0.002  0.012  0.044
   28  0.003  0.001  0.003  0.007
   29  0.002  0.002  0.005  0.009
   30  0.003  0.002  0.003  0.008
   31  0.002  0.002  0.005  0.009
   32  0.010  0.002  0.003  0.015
   33  0.003  0.002  0.003  0.009
   34  0.010  0.002  0.003  0.015
   35  0.002  0.003  0.005  0.011
   36  0.000  0.001  0.004  0.006
   37  0.000  0.000  0.000  0.000
tot    0.342  0.114  0.180  0.636
 
band    13 # energy   -5.79980946 # occ.  2.00000000
 
ion      s      p      d    tot
    1  0.016  0.003  0.001  0.020
    2  0.000  0.001  0.004  0.005
    3  0.001  0.001  0.003  0.004
    4  0.000  0.001  0.004  0.005
    5  0.002  0.001  0.001  0.003
    6  0.001  0.002  0.004  0.008
    7  0.001  0.001  0.003  0.004
    8  0.001  0.002  0.004  0.008
    9  0.007  0.001  0.001  0.009
   10  0.034  0.003  0.007  0.043
   11  0.001  0.000  0.011  0.012
   12  0.021  0.007  0.004  0.033
   13  0.001  0.000  0.011  0.012
   14  0.026  0.001  0.009  0.037
   15  0.015  0.007  0.005  0.028
   16  0.021  0.007  0.004  0.033
   17  0.015  0.007  0.005  0.028
   18  0.001  0.007  0.001  0.009
   19  0.015  0.011  0.003  0.029
   20  0.003  0.003  0.005  0.010
   21  0.002  0.004  0.012  0.018
   22  0.009  0.003  0.010  0.022
   23  0.002  0.004  0.012  0.018
   24  0.058  0.000  0.008  0.067
   25  0.033  0.005  0.002  0.040
   26  0.015  0.011  0.003  0.029
   27  0.009  0.003  0.010  0.022
   28  0.017  0.002  0.001  0.021
   29  0.000  0.001  0.004  0.006
   30  0.001  0.001  0.005  0.007
   31  0.000  0.001  0.004  0.006
   32  0.002  0.003  0.006  0.010
   33  0.001  0.001  0.005  0.007
   34  0.002  0.003  0.006  0.010
   35  0.012  0.002  0.002  0.016
   36  0.000  0.000  0.001  0.001
   37  0.000  0.000  0.000  0.000
tot    0.344  0.114  0.181  0.639
 
band    14 # energy   -5.70108716 # occ.  2.00000000
 
ion      s      p      d    tot
    1  0.000  0.000  0.001  0.001
    2  0.002  0.002  0.006  0.010
    3  0.002  0.002  0.006  0.010
    4  0.002  0.002  0.006  0.010
    5  0.037  0.003  0.000  0.040
    6  0.002  0.002  0.006  0.010
    7  0.002  0.002  0.006  0.010
    8  0.002  0.002  0.006  0.010
    9  0.004  0.002  0.004  0.011
   10  0.002  0.004  0.009  0.015
   11  0.019  0.009  0.004  0.032
   12  0.002  0.004  0.009  0.015
   13  0.019  0.009  0.004  0.032
   14  0.019  0.009  0.004  0.032
   15  0.029  0.002  0.010  0.042
   16  0.002  0.004  0.009  0.015
   17  0.029  0.002  0.010  0.042
   18  0.029  0.002  0.010  0.042
   19  0.007  0.001  0.009  0.018
   20  0.019  0.004  0.007  0.030
   21  0.019  0.004  0.007  0.030
   22  0.010  0.007  0.004  0.021
   23  0.019  0.004  0.007  0.030
   24  0.010  0.007  0.004  0.021
   25  0.007  0.001  0.009  0.018
   26  0.007  0.001  0.009  0.018
   27  0.010  0.007  0.004  0.021
   28  0.001  0.000  0.003  0.004
   29  0.003  0.001  0.004  0.007
   30  0.003  0.001  0.004  0.007
   31  0.003  0.001  0.004  0.007
   32  0.003  0.001  0.004  0.007
   33  0.003  0.001  0.004  0.007
   34  0.003  0.001  0.004  0.007
   35  0.000  0.001  0.002  0.003
   36  0.006  0.002  0.000  0.008
   37  0.001  0.000  0.000  0.002
tot    0.336  0.108  0.197  0.641
 
band    15 # energy   -5.10465705 # occ.  2.00000000
 
ion      s      p      d    tot
    1  0.000  0.004  0.009  0.013
    2  0.003  0.002  0.005  0.009
    3  0.019  0.004  0.005  0.028
    4  0.002  0.002  0.005  0.009
    5  0.000  0.000  0.010  0.010
    6  0.007  0.002  0.005  0.014
    7  0.019  0.004  0.005  0.028
    8  0.008  0.002  0.005  0.015
    9  0.000  0.005  0.008  0.013
   10  0.010  0.001  0.006  0.017
   11  0.001  0.002  0.013  0.016
   12  0.003  0.004  0.013  0.019
   13  0.001  0.002  0.013  0.016
   14  0.005  0.002  0.007  0.014
   15  0.007  0.001  0.017  0.025
   16  0.002  0.004  0.013  0.019
   17  0.008  0.002  0.017  0.026
   18  0.029  0.004  0.004  0.038
   19  0.002  0.002  0.011  0.015
   20  0.000  0.001  0.010  0.011
   21  0.000  0.002  0.016  0.018
   22  0.002  0.002  0.023  0.027
   23  0.000  0.002  0.016  0.018
   24  0.008  0.003  0.002  0.014
   25  0.010  0.006  0.009  0.025
   26  0.003  0.002  0.011  0.015
   27  0.002  0.002  0.024  0.027
   28  0.000  0.004  0.008  0.012
   29  0.005  0.002  0.009  0.016
   30  0.027  0.003  0.010  0.040
   31  0.004  0.002  0.009  0.016
   32  0.009  0.003  0.009  0.020
   33  0.027  0.003  0.010  0.040
   34  0.010  0.003  0.009  0.021
   35  0.000  0.006  0.010  0.015
   36  0.000  0.000  0.015  0.015
   37  0.000  0.000  0.000  0.000
tot    0.234  0.092  0.371  0.697
 
band    16 # energy   -5.10464876 # occ.  2.00000000
 
ion      s      p      d    tot
    1  0.000  0.004  0.010  0.013
    2  0.017  0.003  0.005  0.025
    3  0.001  0.002  0.005  0.007
    4  0.017  0.003  0.005  0.026
    5  0.000  0.000  0.010  0.010
    6  0.012  0.003  0.005  0.020
    7  0.000  0.001  0.005  0.006
    8  0.012  0.003  0.005  0.019
    9  0.000  0.005  0.008  0.013
   10  0.000  0.005  0.015  0.020
   11  0.004  0.002  0.009  0.015
   12  0.007  0.002  0.009  0.018
   13  0.004  0.002  0.009  0.015
   14  0.000  0.002  0.015  0.017
   15  0.022  0.004  0.008  0.034
   16  0.007  0.002  0.008  0.017
   17  0.021  0.003  0.009  0.033
   18  0.000  0.000  0.021  0.022
   19  0.007  0.005  0.010  0.022
   20  0.000  0.002  0.018  0.020
   21  0.000  0.001  0.012  0.013
   22  0.006  0.003  0.010  0.019
   23  0.000  0.001  0.012  0.013
   24  0.000  0.001  0.030  0.031
   25  0.000  0.000  0.011  0.011
   26  0.007  0.005  0.010  0.022
   27  0.006  0.003  0.009  0.018
   28  0.000  0.004  0.008  0.012
   29  0.022  0.003  0.009  0.035
   30  0.000  0.002  0.009  0.011
   31  0.023  0.003  0.009  0.035
   32  0.018  0.002  0.010  0.031
   33  0.000  0.002  0.009  0.011
   34  0.018  0.002  0.010  0.030
   35  0.000  0.006  0.010  0.015
   36  0.000  0.000  0.015  0.015
   37  0.000  0.000  0.000  0.000
tot    0.234  0.092  0.371  0.697
 
band    17 # energy   -5.08868160 # occ.  2.00000000
 
ion      s      p      d    tot
    1  0.007  0.000  0.010  0.017
    2  0.006  0.001  0.010  0.017
    3  0.006  0.001  0.010  0.017
    4  0.006  0.001  0.010  0.017
    5  0.001  0.001  0.010  0.012
    6  0.006  0.001  0.010  0.017
    7  0.006  0.001  0.010  0.017
    8  0.006  0.001  0.010  0.017
    9  0.016  0.000  0.008  0.024
   10  0.008  0.000  0.025  0.033
   11  0.012  0.000  0.021  0.034
   12  0.008  0.000  0.025  0.033
   13  0.012  0.000  0.021  0.034
   14  0.012  0.000  0.021  0.034
   15  0.003  0.000  0.022  0.025
   16  0.008  0.000  0.025  0.033
   17  0.003  0.000  0.022  0.025
   18  0.003  0.000  0.022  0.025
   19  0.004  0.000  0.018  0.022
   20  0.009  0.001  0.026  0.036
   21  0.009  0.001  0.026  0.036
   22  0.003  0.000  0.019  0.022
   23  0.009  0.001  0.026  0.036
   24  0.003  0.000  0.019  0.022
   25  0.004  0.000  0.018  0.022
   26  0.004  0.000  0.018  0.022
   27  0.003  0.000  0.019  0.022
   28  0.002  0.000  0.006  0.008
   29  0.003  0.000  0.008  0.011
   30  0.003  0.000  0.008  0.011
   31  0.003  0.000  0.008  0.011
   32  0.003  0.000  0.008  0.011
   33  0.003  0.000  0.008  0.011
   34  0.003  0.000  0.008  0.011
   35  0.008  0.000  0.006  0.014
   36  0.000  0.001  0.009  0.010
   37  0.000  0.002  0.000  0.002
tot    0.205  0.017  0.548  0.770
 
band    18 # energy   -5.04853267 # occ.  2.00000000
 
ion      s      p      d    tot
    1  0.033  0.003  0.000  0.037
    2  0.000  0.003  0.010  0.013
    3  0.000  0.003  0.010  0.013
    4  0.000  0.003  0.010  0.013
    5  0.000  0.000  0.001  0.001
    6  0.000  0.003  0.010  0.013
    7  0.000  0.003  0.010  0.013
    8  0.000  0.003  0.010  0.013
    9  0.028  0.004  0.001  0.032
   10  0.009  0.003  0.010  0.022
   11  0.001  0.000  0.015  0.016
   12  0.009  0.003  0.010  0.022
   13  0.001  0.000  0.015  0.016
   14  0.001  0.000  0.015  0.017
   15  0.008  0.004  0.014  0.026
   16  0.009  0.003  0.010  0.022
   17  0.008  0.004  0.014  0.026
   18  0.008  0.004  0.014  0.027
   19  0.003  0.003  0.020  0.027
   20  0.000  0.000  0.014  0.014
   21  0.000  0.000  0.014  0.014
   22  0.010  0.004  0.009  0.023
   23  0.000  0.000  0.014  0.014
   24  0.010  0.004  0.009  0.022
   25  0.003  0.003  0.020  0.027
   26  0.003  0.003  0.020  0.027
   27  0.010  0.004  0.009  0.023
   28  0.038  0.003  0.000  0.041
   29  0.000  0.003  0.013  0.016
   30  0.000  0.003  0.013  0.016
   31  0.000  0.003  0.013  0.016
   32  0.000  0.003  0.013  0.016
   33  0.000  0.003  0.013  0.016
   34  0.000  0.003  0.013  0.016
   35  0.029  0.003  0.001  0.033
   36  0.000  0.000  0.000  0.000
   37  0.000  0.000  0.000  0.000
tot    0.226  0.091  0.388  0.705
 
band    19 # energy   -5.04522998 # occ.  2.00000000
 
ion      s      p      d    tot
    1  0.000  0.003  0.009  0.012
    2  0.021  0.004  0.005  0.031
    3  0.000  0.002  0.005  0.007
    4  0.015  0.003  0.005  0.024
    5  0.000  0.006  0.009  0.015
    6  0.007  0.002  0.005  0.015
    7  0.004  0.002  0.005  0.011
    8  0.017  0.004  0.005  0.026
    9  0.000  0.001  0.012  0.012
   10  0.017  0.004  0.008  0.030
   11  0.010  0.003  0.016  0.028
   12  0.001  0.001  0.018  0.020
   13  0.002  0.002  0.023  0.028
   14  0.019  0.003  0.006  0.029
   15  0.000  0.002  0.012  0.015
   16  0.009  0.002  0.014  0.025
   17  0.000  0.004  0.016  0.019
   18  0.000  0.000  0.009  0.009
   19  0.001  0.002  0.016  0.018
   20  0.018  0.005  0.007  0.030
   21  0.001  0.001  0.030  0.032
   22  0.000  0.001  0.012  0.013
   23  0.009  0.003  0.019  0.031
   24  0.006  0.003  0.011  0.020
   25  0.002  0.001  0.007  0.010
   26  0.000  0.003  0.023  0.026
   27  0.003  0.002  0.011  0.016
   28  0.000  0.002  0.013  0.015
   29  0.018  0.004  0.008  0.030
   30  0.000  0.001  0.006  0.008
   31  0.012  0.003  0.007  0.022
   32  0.007  0.002  0.007  0.017
   33  0.002  0.002  0.006  0.010
   34  0.015  0.003  0.008  0.027
   35  0.000  0.001  0.011  0.012
   36  0.000  0.003  0.009  0.012
   37  0.000  0.000  0.000  0.000
tot    0.220  0.090  0.394  0.703
 
band    20 # energy   -5.04522700 # occ.  2.00000000
 
ion      s      p      d    tot
    1  0.000  0.003  0.009  0.012
    2  0.000  0.002  0.005  0.007
    3  0.021  0.004  0.005  0.031
    4  0.006  0.002  0.005  0.014
    5  0.000  0.006  0.009  0.015
    6  0.015  0.003  0.005  0.023
    7  0.018  0.004  0.005  0.027
    8  0.005  0.002  0.005  0.012
    9  0.000  0.001  0.012  0.012
   10  0.001  0.000  0.019  0.020
   11  0.011  0.003  0.015  0.028
   12  0.017  0.004  0.009  0.030
   13  0.019  0.003  0.007  0.029
   14  0.001  0.002  0.024  0.028
   15  0.000  0.002  0.012  0.014
   16  0.010  0.002  0.013  0.025
   17  0.000  0.000  0.009  0.009
   18  0.000  0.004  0.016  0.020
   19  0.001  0.002  0.015  0.018
   20  0.001  0.001  0.030  0.032
   21  0.017  0.005  0.007  0.030
   22  0.006  0.003  0.011  0.020
   23  0.010  0.003  0.018  0.031
   24  0.000  0.001  0.012  0.013
   25  0.000  0.003  0.023  0.026
   26  0.002  0.001  0.007  0.011
   27  0.003  0.002  0.011  0.017
   28  0.000  0.002  0.013  0.015
   29  0.000  0.001  0.006  0.008
   30  0.018  0.004  0.008  0.030
   31  0.006  0.002  0.007  0.016
   32  0.011  0.003  0.007  0.021
   33  0.016  0.003  0.008  0.028
   34  0.003  0.002  0.006  0.011
   35  0.000  0.001  0.011  0.012
   36  0.000  0.003  0.009  0.012
   37  0.000  0.000  0.000  0.000
tot    0.220  0.090  0.394  0.703
 
band    21 # energy   -4.85955485 # occ.  2.00000000
 
ion      s      p      d    tot
    1  0.015  0.002  0.000  0.017
    2  0.000  0.003  0.012  0.014
    3  0.000  0.003  0.012  0.014
    4  0.000  0.003  0.012  0.014
    5  0.045  0.004  0.000  0.048
    6  0.000  0.003  0.011  0.014
    7  0.000  0.003  0.012  0.014
    8  0.000  0.003  0.011  0.014
    9  0.004  0.001  0.001  0.005
   10  0.002  0.001  0.027  0.030
   11  0.004  0.004  0.020  0.028
   12  0.002  0.001  0.027  0.030
   13  0.004  0.004  0.020  0.028
   14  0.004  0.004  0.020  0.028
   15  0.003  0.001  0.010  0.014
   16  0.002  0.001  0.027  0.030
   17  0.003  0.001  0.010  0.014
   18  0.003  0.001  0.010  0.014
   19  0.011  0.001  0.023  0.035
   20  0.011  0.004  0.007  0.021
   21  0.011  0.004  0.007  0.021
   22  0.002  0.001  0.018  0.022
   23  0.011  0.004  0.007  0.021
   24  0.002  0.001  0.018  0.022
   25  0.011  0.001  0.023  0.035
   26  0.011  0.001  0.023  0.035
   27  0.002  0.001  0.018  0.022
   28  0.002  0.002  0.007  0.010
   29  0.001  0.002  0.011  0.014
   30  0.001  0.002  0.011  0.014
   31  0.001  0.002  0.011  0.014
   32  0.001  0.002  0.011  0.014
   33  0.001  0.002  0.011  0.014
   34  0.001  0.002  0.011  0.014
   35  0.002  0.001  0.002  0.006
   36  0.013  0.003  0.000  0.016