PROCAR new format
# of k-points:   10         # of bands:  252         # of ions:   36

 k-point     1 :    0.00000000 0.00000000 0.00000000     weight = 0.01562500

band     1 # energy   -8.09673771 # occ.  2.00000000
 
ion      s      p      d    tot
    1  0.007  0.001  0.000  0.008
    2  0.007  0.001  0.000  0.007
    3  0.007  0.001  0.000  0.007
    4  0.007  0.001  0.000  0.007
    5  0.007  0.001  0.000  0.007
    6  0.007  0.001  0.000  0.007
    7  0.007  0.001  0.000  0.007
    8  0.007  0.001  0.000  0.007
    9  0.007  0.001  0.000  0.007
   10  0.027  0.000  0.000  0.028
   11  0.028  0.000  0.000  0.028
   12  0.027  0.000  0.000  0.028
   13  0.028  0.000  0.000  0.028
   14  0.028  0.000  0.000  0.028
   15  0.028  0.000  0.000  0.028
   16  0.027  0.000  0.000  0.028
   17  0.028  0.000  0.000  0.028
   18  0.028  0.000  0.000  0.028
   19  0.023  0.000  0.000  0.024
   20  0.024  0.000  0.000  0.024
   21  0.024  0.000  0.000  0.024
   22  0.024  0.000  0.000  0.025
   23  0.024  0.000  0.000  0.024
   24  0.024  0.000  0.000  0.025
   25  0.023  0.000  0.000  0.024
   26  0.023  0.000  0.000  0.024
   27  0.024  0.000  0.000  0.025
   28  0.005  0.000  0.000  0.005
   29  0.004  0.000  0.000  0.005
   30  0.004  0.000  0.000  0.005
   31  0.004  0.000  0.000  0.005
   32  0.004  0.000  0.000  0.005
   33  0.004  0.000  0.000  0.005
   34  0.004  0.000  0.000  0.005
   35  0.005  0.000  0.000  0.005
   36  0.005  0.001  0.000  0.005
tot    0.567  0.012  0.003  0.582
 
band     2 # energy   -6.90449180 # occ.  2.00000000
 
ion      s      p      d    tot
    1  0.017  0.000  0.001  0.019
    2  0.017  0.000  0.001  0.018
    3  0.017  0.000  0.001  0.018
    4  0.017  0.000  0.001  0.018
    5  0.017  0.000  0.001  0.018
    6  0.017  0.000  0.001  0.018
    7  0.017  0.000  0.001  0.018
    8  0.017  0.000  0.001  0.018
    9  0.016  0.000  0.001  0.018
   10  0.010  0.002  0.002  0.014
   11  0.009  0.002  0.002  0.013
   12  0.010  0.002  0.002  0.014
   13  0.009  0.002  0.002  0.013
   14  0.009  0.002  0.002  0.013
   15  0.009  0.002  0.003  0.013
   16  0.010  0.002  0.002  0.014
   17  0.009  0.002  0.003  0.013
   18  0.009  0.002  0.003  0.013
   19  0.016  0.001  0.004  0.021
   20  0.014  0.001  0.004  0.019
   21  0.014  0.001  0.004  0.019
   22  0.017  0.001  0.003  0.021
   23  0.014  0.001  0.004  0.019
   24  0.017  0.001  0.003  0.021
   25  0.016  0.001  0.004  0.021
   26  0.016  0.001  0.004  0.021
   27  0.017  0.001  0.003  0.021
   28  0.015  0.001  0.000  0.016
   29  0.014  0.001  0.000  0.015
   30  0.014  0.001  0.000  0.015
   31  0.014  0.001  0.000  0.015
   32  0.014  0.001  0.000  0.015
   33  0.014  0.001  0.000  0.015
   34  0.014  0.001  0.000  0.015
   35  0.015  0.001  0.000  0.016
   36  0.010  0.001  0.000  0.011
tot    0.496  0.032  0.071  0.599
 
band     3 # energy   -5.98839974 # occ.  2.00000000
 
ion      s      p      d    tot
    1  0.015  0.000  0.023  0.038
    2  0.020  0.000  0.019  0.039
    3  0.020  0.000  0.019  0.039
    4  0.020  0.000  0.019  0.039
    5  0.014  0.000  0.019  0.033
    6  0.020  0.000  0.019  0.039
    7  0.020  0.000  0.019  0.039
    8  0.020  0.000  0.019  0.039
    9  0.031  0.000  0.015  0.047
   10  0.011  0.001  0.023  0.034
   11  0.015  0.001  0.020  0.035
   12  0.011  0.001  0.023  0.034
   13  0.015  0.001  0.020  0.035
   14  0.015  0.001  0.020  0.035
   15  0.001  0.001  0.026  0.027
   16  0.011  0.001  0.023  0.034
   17  0.001  0.001  0.026  0.027
   18  0.001  0.001  0.026  0.027
   19  0.000  0.001  0.003  0.004
   20  0.002  0.001  0.004  0.007
   21  0.002  0.001  0.004  0.007
   22  0.002  0.001  0.001  0.004
   23  0.002  0.001  0.004  0.007
   24  0.002  0.001  0.001  0.004
   25  0.000  0.001  0.003  0.004
   26  0.000  0.001  0.003  0.004
   27  0.002  0.001  0.001  0.004
   28  0.004  0.000  0.000  0.004
   29  0.002  0.000  0.001  0.003
   30  0.002  0.000  0.001  0.003
   31  0.002  0.000  0.001  0.003
   32  0.002  0.000  0.001  0.003
   33  0.002  0.000  0.001  0.003
   34  0.002  0.000  0.001  0.003
   35  0.004  0.000  0.000  0.005
   36  0.000  0.000  0.001  0.001
tot    0.291  0.015  0.409  0.715
 
band     4 # energy   -5.94553917 # occ.  2.00000000
 
ion      s      p      d    tot
    1  0.021  0.001  0.000  0.022
    2  0.001  0.001  0.006  0.008
    3  0.001  0.001  0.007  0.008
    4  0.001  0.001  0.006  0.008
    5  0.000  0.000  0.004  0.004
    6  0.001  0.001  0.007  0.009
    7  0.001  0.001  0.007  0.008
    8  0.001  0.001  0.007  0.009
    9  0.004  0.001  0.003  0.009
   10  0.012  0.001  0.027  0.040
   11  0.001  0.001  0.023  0.025
   12  0.015  0.000  0.029  0.044
   13  0.001  0.001  0.023  0.025
   14  0.000  0.001  0.024  0.026
   15  0.030  0.003  0.002  0.035
   16  0.015  0.000  0.028  0.044
   17  0.030  0.003  0.002  0.035
   18  0.033  0.003  0.002  0.038
   19  0.007  0.002  0.012  0.021
   20  0.010  0.000  0.023  0.033
   21  0.013  0.000  0.022  0.035
   22  0.021  0.002  0.010  0.033
   23  0.013  0.000  0.022  0.035
   24  0.017  0.002  0.009  0.029
   25  0.008  0.002  0.013  0.023
   26  0.007  0.002  0.012  0.021
   27  0.021  0.002  0.010  0.033
   28  0.000  0.000  0.000  0.001
   29  0.000  0.000  0.004  0.004
   30  0.000  0.000  0.004  0.004
   31  0.000  0.000  0.004  0.004
   32  0.000  0.000  0.004  0.004
   33  0.000  0.000  0.004  0.004
   34  0.000  0.000  0.004  0.004
   35  0.010  0.001  0.000  0.011
   36  0.003  0.002  0.002  0.007
tot    0.298  0.040  0.365  0.703
 
band     5 # energy   -5.94518619 # occ.  2.00000000
 
ion      s      p      d    tot
    1  0.000  0.000  0.008  0.008
    2  0.006  0.001  0.004  0.011
    3  0.006  0.001  0.003  0.011
    4  0.006  0.001  0.004  0.011
    5  0.000  0.001  0.009  0.010
    6  0.000  0.000  0.003  0.004
    7  0.006  0.001  0.003  0.011
    8  0.000  0.000  0.003  0.004
    9  0.000  0.000  0.001  0.002
   10  0.000  0.000  0.037  0.037
   11  0.046  0.002  0.015  0.063
   12  0.020  0.001  0.013  0.034
   13  0.046  0.002  0.015  0.063
   14  0.000  0.003  0.033  0.035
   15  0.005  0.001  0.012  0.019
   16  0.020  0.001  0.013  0.034
   17  0.006  0.001  0.012  0.019
   18  0.000  0.004  0.002  0.007
   19  0.003  0.001  0.010  0.014
   20  0.000  0.003  0.026  0.029
   21  0.039  0.002  0.014  0.054
   22  0.019  0.001  0.011  0.031
   23  0.039  0.002  0.014  0.054
   24  0.000  0.000  0.031  0.031
   25  0.000  0.004  0.003  0.007
   26  0.003  0.001  0.010  0.014
   27  0.019  0.001  0.011  0.032
   28  0.000  0.000  0.001  0.001
   29  0.000  0.000  0.002  0.002
   30  0.005  0.001  0.002  0.008
   31  0.000  0.000  0.002  0.002
   32  0.004  0.001  0.003  0.007
   33  0.005  0.001  0.002  0.008
   34  0.004  0.001  0.003  0.007
   35  0.000  0.000  0.005  0.005
   36  0.000  0.002  0.004  0.006
tot    0.305  0.043  0.347  0.696
 
band     6 # energy   -5.94515037 # occ.  2.00000000
 
ion      s      p      d    tot
    1  0.000  0.000  0.008  0.008
    2  0.002  0.001  0.003  0.006
    3  0.002  0.001  0.004  0.006
    4  0.002  0.001  0.003  0.006
    5  0.000  0.001  0.009  0.010
    6  0.008  0.001  0.004  0.013
    7  0.002  0.001  0.004  0.006
    8  0.008  0.001  0.004  0.013
    9  0.000  0.000  0.001  0.002
   10  0.028  0.002  0.006  0.036
   11  0.015  0.002  0.027  0.045
   12  0.006  0.001  0.029  0.035
   13  0.015  0.002  0.028  0.045
   14  0.062  0.001  0.008  0.071
   15  0.003  0.003  0.006  0.012
   16  0.006  0.001  0.028  0.035
   17  0.003  0.003  0.006  0.012
   18  0.006  0.000  0.016  0.022
   19  0.001  0.003  0.006  0.010
   20  0.054  0.001  0.009  0.064
   21  0.012  0.002  0.023  0.036
   22  0.005  0.001  0.024  0.030
   23  0.012  0.002  0.022  0.037
   24  0.028  0.002  0.004  0.034
   25  0.003  0.000  0.012  0.015
   26  0.001  0.003  0.006  0.010
   27  0.005  0.001  0.024  0.030
   28  0.000  0.000  0.001  0.001
   29  0.005  0.001  0.003  0.009
   30  0.001  0.000  0.002  0.004
   31  0.005  0.001  0.003  0.009
   32  0.002  0.000  0.002  0.005
   33  0.001  0.000  0.002  0.004
   34  0.002  0.000  0.002  0.005
   35  0.000  0.000  0.005  0.005
   36  0.000  0.002  0.004  0.006
tot    0.305  0.043  0.347  0.696
 
band     7 # energy   -5.92985719 # occ.  2.00000000
 
ion      s      p      d    tot
    1  0.001  0.001  0.001  0.003
    2  0.001  0.001  0.007  0.008
    3  0.001  0.001  0.007  0.008
    4  0.001  0.001  0.007  0.008
    5  0.022  0.002  0.000  0.024
    6  0.001  0.001  0.007  0.008
    7  0.001  0.001  0.007  0.008
    8  0.001  0.001  0.007  0.008
    9  0.002  0.001  0.005  0.007
   10  0.014  0.003  0.008  0.025
   11  0.024  0.002  0.015  0.041
   12  0.014  0.003  0.008  0.025
   13  0.024  0.002  0.015  0.041
   14  0.024  0.002  0.015  0.041
   15  0.009  0.000  0.029  0.039
   16  0.014  0.003  0.008  0.025
   17  0.009  0.000  0.029  0.039
   18  0.009  0.000  0.029  0.039
   19  0.017  0.001  0.015  0.033
   20  0.018  0.003  0.006  0.027
   21  0.018  0.003  0.006  0.027
   22  0.002  0.001  0.024  0.026
   23  0.018  0.003  0.006  0.027
   24  0.002  0.001  0.024  0.026
   25  0.017  0.001  0.016  0.033
   26  0.017  0.001  0.015  0.033
   27  0.002  0.001  0.024  0.026
   28  0.012  0.001  0.000  0.013
   29  0.000  0.000  0.004  0.004
   30  0.000  0.000  0.004  0.004
   31  0.000  0.000  0.004  0.004
   32  0.000  0.000  0.004  0.004
   33  0.000  0.000  0.004  0.004
   34  0.000  0.000  0.004  0.004
   35  0.001  0.000  0.002  0.003
   36  0.002  0.001  0.000  0.003
tot    0.296  0.039  0.366  0.700
 
band     8 # energy   -5.92201898 # occ.  2.00000000
 
ion      s      p      d    tot
    1  0.000  0.001  0.005  0.006
    2  0.006  0.001  0.004  0.011
    3  0.007  0.001  0.004  0.012
    4  0.006  0.001  0.004  0.012
    5  0.000  0.000  0.003  0.003
    6  0.000  0.000  0.003  0.004
    7  0.007  0.001  0.004  0.012
    8  0.000  0.000  0.003  0.004
    9  0.000  0.001  0.011  0.012
   10  0.039  0.000  0.016  0.054
   11  0.000  0.002  0.015  0.017
   12  0.009  0.003  0.011  0.024
   13  0.000  0.002  0.015  0.017
   14  0.002  0.001  0.011  0.014
   15  0.015  0.001  0.036  0.052
   16  0.010  0.003  0.011  0.024
   17  0.014  0.001  0.037  0.052
   18  0.057  0.002  0.004  0.063
   19  0.012  0.001  0.027  0.040
   20  0.004  0.001  0.009  0.014
   21  0.001  0.001  0.013  0.015
   22  0.006  0.003  0.011  0.020
   23  0.001  0.001  0.013  0.015
   24  0.026  0.000  0.013  0.040
   25  0.047  0.002  0.004  0.052
   26  0.011  0.001  0.028  0.040
   27  0.007  0.003  0.011  0.021
   28  0.000  0.001  0.007  0.007
   29  0.000  0.000  0.002  0.002
   30  0.004  0.001  0.002  0.006
   31  0.000  0.000  0.002  0.002
   32  0.003  0.001  0.003  0.007
   33  0.003  0.001  0.002  0.006
   34  0.003  0.001  0.003  0.007
   35  0.000  0.001  0.003  0.003
   36  0.000  0.000  0.001  0.001
tot    0.301  0.042  0.350  0.693
 
band     9 # energy   -5.92198384 # occ.  2.00000000
 
ion      s      p      d    tot
    1  0.000  0.001  0.005  0.006
    2  0.003  0.001  0.003  0.006
    3  0.002  0.001  0.004  0.006
    4  0.002  0.001  0.003  0.006
    5  0.000  0.000  0.003  0.003
    6  0.009  0.001  0.004  0.014
    7  0.002  0.001  0.004  0.006
    8  0.009  0.001  0.004  0.014
    9  0.000  0.001  0.011  0.012
   10  0.000  0.004  0.010  0.014
   11  0.001  0.001  0.012  0.015
   12  0.029  0.001  0.014  0.045
   13  0.001  0.001  0.012  0.015
   14  0.000  0.002  0.016  0.018
   15  0.043  0.001  0.015  0.059
   16  0.029  0.001  0.014  0.044
   17  0.044  0.001  0.014  0.059
   18  0.000  0.000  0.047  0.048
   19  0.035  0.002  0.012  0.048
   20  0.000  0.001  0.015  0.016
   21  0.003  0.001  0.011  0.014
   22  0.020  0.001  0.013  0.034
   23  0.003  0.001  0.011  0.015
   24  0.000  0.004  0.010  0.014
   25  0.000  0.001  0.036  0.036
   26  0.035  0.002  0.011  0.049
   27  0.020  0.001  0.013  0.033
   28  0.000  0.001  0.007  0.007
   29  0.005  0.001  0.002  0.008
   30  0.001  0.000  0.002  0.004
   31  0.005  0.001  0.002  0.008
   32  0.001  0.000  0.002  0.003
   33  0.001  0.000  0.002  0.004
   34  0.001  0.000  0.002  0.003
   35  0.000  0.001  0.003  0.003
   36  0.000  0.000  0.001  0.001
tot    0.301  0.042  0.350  0.693
 
band    10 # energy   -5.81208370 # occ.  2.00000000
 
ion      s      p      d    tot
    1  0.001  0.000  0.000  0.001
    2  0.000  0.000  0.001  0.001
    3  0.000  0.000  0.001  0.001
    4  0.000  0.000  0.001  0.001
    5  0.002  0.000  0.000  0.002
    6  0.000  0.000  0.001  0.001
    7  0.000  0.000  0.001  0.001
    8  0.000  0.000  0.001  0.001
    9  0.000  0.000  0.000  0.001
   10  0.000  0.000  0.004  0.005
   11  0.002  0.000  0.002  0.004
   12  0.000  0.000  0.004  0.005
   13  0.002  0.000  0.002  0.004
   14  0.002  0.000  0.002  0.004
   15  0.002  0.000  0.005  0.007
   16  0.000  0.000  0.004  0.005
   17  0.002  0.000  0.005  0.007
   18  0.002  0.000  0.005  0.007
   19  0.006  0.001  0.020  0.027
   20  0.003  0.000  0.026  0.029
   21  0.003  0.000  0.026  0.029
   22  0.009  0.001  0.025  0.035
   23  0.003  0.000  0.026  0.029
   24  0.009  0.001  0.025  0.035
   25  0.006  0.001  0.020  0.027
   26  0.006  0.001  0.020  0.027
   27  0.009  0.001  0.025  0.035
   28  0.026  0.000  0.023  0.049
   29  0.025  0.000  0.021  0.045
   30  0.025  0.000  0.021  0.045
   31  0.025  0.000  0.021  0.045
   32  0.025  0.000  0.021  0.045
   33  0.025  0.000  0.021  0.045
   34  0.025  0.000  0.021  0.045
   35  0.028  0.000  0.022  0.050
   36  0.012  0.000  0.010  0.022
tot    0.282  0.012  0.430  0.724
 
band    11 # energy   -5.46837734 # occ.  2.00000000
 
ion      s      p      d    tot
    1  0.015  0.002  0.002  0.019
    2  0.000  0.001  0.009  0.009
    3  0.000  0.001  0.009  0.009
    4  0.000  0.001  0.009  0.009
    5  0.000  0.000  0.002  0.002
    6  0.000  0.001  0.009  0.009
    7  0.000  0.001  0.009  0.009
    8  0.000  0.001  0.009  0.009
    9  0.017  0.001  0.000  0.018
   10  0.009  0.002  0.012  0.023
   11  0.003  0.000  0.041  0.044
   12  0.009  0.002  0.012  0.023
   13  0.003  0.000  0.041  0.044
   14  0.003  0.000  0.041  0.044
   15  0.002  0.001  0.027  0.031
   16  0.009  0.002  0.012  0.023
   17  0.002  0.001  0.027  0.031
   18  0.002  0.001  0.027  0.031
   19  0.006  0.001  0.012  0.018
   20  0.001  0.000  0.045  0.046
   21  0.001  0.000  0.045  0.046
   22  0.012  0.001  0.020  0.034
   23  0.001  0.000  0.045  0.046
   24  0.012  0.001  0.020  0.034
   25  0.006  0.001  0.012  0.018
   26  0.006  0.001  0.012  0.018
   27  0.012  0.001  0.020  0.034
   28  0.011  0.001  0.001  0.013
   29  0.000  0.001  0.006  0.006
   30  0.000  0.001  0.006  0.006
   31  0.000  0.001  0.006  0.006
   32  0.000  0.001  0.006  0.006
   33  0.000  0.001  0.006  0.006
   34  0.000  0.001  0.006  0.006
   35  0.010  0.001  0.002  0.014
   36  0.000  0.000  0.001  0.001
tot    0.155  0.030  0.566  0.750
 
band    12 # energy   -5.44934705 # occ.  2.00000000
 
ion      s      p      d    tot
    1  0.000  0.001  0.003  0.004
    2  0.009  0.001  0.004  0.015
    3  0.001  0.000  0.005  0.006
    4  0.009  0.001  0.004  0.015
    5  0.000  0.001  0.012  0.013
    6  0.004  0.001  0.005  0.010
    7  0.001  0.000  0.005  0.006
    8  0.004  0.001  0.005  0.010
    9  0.000  0.000  0.010  0.010
   10  0.007  0.002  0.010  0.019
   11  0.005  0.000  0.044  0.049
   12  0.002  0.001  0.038  0.041
   13  0.004  0.000  0.044  0.049
   14  0.018  0.001  0.011  0.030
   15  0.001  0.001  0.014  0.016
   16  0.002  0.001  0.038  0.041
   17  0.001  0.001  0.014  0.016
   18  0.002  0.000  0.024  0.027
   19  0.002  0.001  0.014  0.017
   20  0.026  0.001  0.007  0.034
   21  0.006  0.000  0.050  0.057
   22  0.001  0.001  0.033  0.036
   23  0.007  0.000  0.050  0.057
   24  0.005  0.001  0.012  0.017
   25  0.009  0.000  0.022  0.031
   26  0.002  0.001  0.014  0.017
   27  0.001  0.001  0.033  0.035
   28  0.000  0.000  0.008  0.008
   29  0.007  0.001  0.004  0.013
   30  0.000  0.000  0.004  0.004
   31  0.007  0.001  0.004  0.013
   32  0.006  0.001  0.004  0.010
   33  0.000  0.000  0.004  0.004
   34  0.006  0.001  0.004  0.010
   35  0.000  0.000  0.003  0.004
   36  0.000  0.003  0.004  0.007
tot    0.155  0.031  0.564  0.751
 
band    13 # energy   -5.44934319 # occ.  2.00000000
 
ion      s      p      d    tot
    1  0.000  0.001  0.003  0.004
    2  0.000  0.001  0.005  0.006
    3  0.009  0.001  0.005  0.015
    4  0.000  0.001  0.005  0.006
    5  0.000  0.001  0.012  0.013
    6  0.006  0.001  0.004  0.010
    7  0.008  0.001  0.005  0.014
    8  0.005  0.001  0.004  0.010
    9  0.000  0.000  0.010  0.010
   10  0.000  0.001  0.048  0.048
   11  0.013  0.001  0.022  0.037
   12  0.005  0.002  0.019  0.026
   13  0.014  0.001  0.022  0.036
   14  0.000  0.000  0.055  0.055
   15  0.002  0.000  0.021  0.023
   16  0.005  0.002  0.019  0.027
   17  0.002  0.000  0.021  0.023
   18  0.000  0.001  0.011  0.012
   19  0.007  0.000  0.019  0.026
   20  0.000  0.000  0.064  0.064
   21  0.019  0.001  0.021  0.041
   22  0.004  0.001  0.019  0.023
   23  0.019  0.001  0.021  0.042
   24  0.000  0.001  0.041  0.042
   25  0.000  0.001  0.011  0.012
   26  0.007  0.000  0.019  0.027
   27  0.003  0.001  0.019  0.024
   28  0.000  0.000  0.008  0.008
   29  0.002  0.000  0.004  0.006
   30  0.009  0.001  0.004  0.014
   31  0.002  0.000  0.004  0.006
   32  0.003  0.001  0.004  0.008
   33  0.009  0.001  0.004  0.014
   34  0.003  0.001  0.004  0.008
   35  0.000  0.000  0.003  0.004
   36  0.000  0.003  0.004  0.007
tot    0.155  0.031  0.564  0.751
 
band    14 # energy   -5.43325521 # occ.  2.00000000
 
ion      s      p      d    tot
    1  0.000  0.001  0.015  0.016
    2  0.010  0.001  0.005  0.016
    3  0.002  0.000  0.005  0.007
    4  0.010  0.001  0.005  0.016
    5  0.000  0.000  0.005  0.006
    6  0.004  0.001  0.006  0.010
    7  0.002  0.000  0.005  0.007
    8  0.004  0.001  0.006  0.010
    9  0.000  0.001  0.007  0.008
   10  0.000  0.001  0.031  0.032
   11  0.001  0.001  0.020  0.021
   12  0.007  0.000  0.023  0.030
   13  0.001  0.001  0.020  0.021
   14  0.000  0.001  0.019  0.020
   15  0.011  0.002  0.021  0.033
   16  0.007  0.000  0.023  0.030
   17  0.011  0.002  0.021  0.033
   18  0.000  0.000  0.064  0.064
   19  0.014  0.001  0.020  0.035
   20  0.000  0.002  0.017  0.019
   21  0.000  0.001  0.020  0.021
   22  0.018  0.001  0.021  0.039
   23  0.000  0.001  0.020  0.021
   24  0.000  0.001  0.033  0.033
   25  0.000  0.000  0.066  0.066
   26  0.014  0.001  0.019  0.034
   27  0.017  0.001  0.021  0.039
   28  0.000  0.001  0.005  0.006
   29  0.006  0.001  0.004  0.011
   30  0.000  0.000  0.004  0.005
   31  0.006  0.001  0.004  0.011
   32  0.004  0.001  0.003  0.008
   33  0.000  0.000  0.004  0.005
   34  0.004  0.001  0.003  0.008
   35  0.000  0.001  0.009  0.009
   36  0.000  0.000  0.001  0.002
tot    0.151  0.029  0.570  0.750
 
band    15 # energy   -5.43324359 # occ.  2.00000000
 
ion      s      p      d    tot
    1  0.000  0.001  0.015  0.016
    2  0.000  0.000  0.006  0.006
    3  0.009  0.001  0.005  0.015
    4  0.000  0.000  0.006  0.006
    5  0.000  0.000  0.005  0.005
    6  0.007  0.001  0.005  0.012
    7  0.009  0.001  0.005  0.015
    8  0.006  0.001  0.005  0.012
    9  0.000  0.001  0.007  0.008
   10  0.009  0.000  0.020  0.030
   11  0.000  0.001  0.019  0.020
   12  0.002  0.001  0.029  0.031
   13  0.000  0.001  0.019  0.020
   14  0.001  0.001  0.020  0.022
   15  0.004  0.001  0.049  0.054
   16  0.002  0.001  0.029  0.031
   17  0.004  0.001  0.049  0.054
   18  0.014  0.002  0.006  0.023
   19  0.005  0.001  0.050  0.055
   20  0.000  0.000  0.021  0.022
   21  0.000  0.001  0.018  0.019
   22  0.006  0.001  0.029  0.035
   23  0.000  0.001  0.018  0.019
   24  0.023  0.001  0.017  0.041
   25  0.019  0.001  0.004  0.024
   26  0.005  0.001  0.050  0.055
   27  0.006  0.001  0.029  0.035
   28  0.000  0.001  0.005  0.006
   29  0.001  0.000  0.003  0.005
   30  0.007  0.001  0.003  0.011
   31  0.001  0.000  0.003  0.005
   32  0.002  0.001  0.004  0.008
   33  0.007  0.001  0.003  0.011
   34  0.002  0.001  0.004  0.008
   35  0.000  0.001  0.009  0.009
   36  0.000  0.000  0.001  0.002
tot    0.151  0.029  0.570  0.750
 
band    16 # energy   -5.41219324 # occ.  2.00000000
 
ion      s      p      d    tot
    1  0.009  0.000  0.001  0.011
    2  0.000  0.001  0.009  0.010
    3  0.000  0.001  0.009  0.010
    4  0.000  0.001  0.009  0.010
    5  0.018  0.002  0.001  0.020
    6  0.000  0.001  0.009  0.010
    7  0.000  0.001  0.009  0.010
    8  0.000  0.001  0.009  0.010
    9  0.002  0.000  0.002  0.004
   10  0.000  0.000  0.045  0.045
   11  0.005  0.002  0.014  0.021
   12  0.000  0.000  0.044  0.045
   13  0.005  0.002  0.014  0.021
   14  0.005  0.002  0.014  0.021
   15  0.005  0.001  0.025  0.031
   16  0.000  0.000  0.044  0.045
   17  0.005  0.001  0.025  0.031
   18  0.005  0.001  0.025  0.030
   19  0.009  0.000  0.047  0.056
   20  0.012  0.001  0.006  0.019
   21  0.012  0.001  0.006  0.019
   22  0.001  0.000  0.034  0.035
   23  0.012  0.001  0.006  0.019
   24  0.001  0.000  0.034  0.035
   25  0.009  0.000  0.047  0.056
   26  0.009  0.000  0.047  0.056
   27  0.001  0.000  0.034  0.035
   28  0.000  0.000  0.006  0.007
   29  0.000  0.000  0.005  0.005
   30  0.000  0.000  0.005  0.005
   31  0.000  0.000  0.005  0.005
   32  0.000  0.000  0.005  0.005
   33  0.000  0.000  0.005  0.005
   34  0.000  0.000  0.005  0.005
   35  0.002  0.000  0.000  0.003
   36  0.011  0.003  0.001  0.014
tot    0.139  0.026  0.605  0.769
 
band    17 # energy   -5.07609679 # occ.  2.00000000
 
ion      s      p      d    tot
    1  0.000  0.000  0.021  0.022
    2  0.012  0.001  0.014  0.026
    3  0.005  0.001  0.010  0.016
    4  0.012  0.001  0.014  0.026
    5  0.000  0.000  0.033  0.033
    6  0.002  0.000  0.017  0.019
    7  0.005  0.001  0.010  0.016
    8  0.002  0.000  0.017  0.019
    9  0.000  0.002  0.007  0.009
   10  0.000  0.000  0.007  0.007
   11  0.000  0.001  0.043  0.044
   12  0.000  0.000  0.017  0.017
   13  0.000  0.001  0.043  0.044
   14  0.000  0.000  0.049  0.049
   15  0.000  0.000  0.045  0.045
   16  0.000  0.000  0.017  0.017
   17  0.000  0.000  0.045  0.045
   18  0.000  0.000  0.035  0.035
   19  0.001  0.000  0.010  0.011
   20  0.000  0.000  0.019  0.019
   21  0.001  0.000  0.035  0.037
   22  0.000  0.000  0.034  0.035
   23  0.001  0.000  0.035  0.037
   24  0.000  0.001  0.030  0.030
   25  0.000  0.000  0.010  0.010
   26  0.001  0.000  0.010  0.011
   27  0.000  0.000  0.034  0.035
   28  0.000  0.000  0.012  0.012
   29  0.002  0.001  0.006  0.008
   30  0.008  0.001  0.009  0.018
   31  0.002  0.001  0.006  0.008
   32  0.002  0.000  0.010  0.012
   33  0.008  0.001  0.009  0.018
   34  0.002  0.000  0.010  0.012
   35  0.000  0.000  0.018  0.019
   36  0.000  0.002  0.002  0.005
tot    0.066  0.016  0.743  0.826
 
band    18 # energy   -5.07609187 # occ.  2.00000000
 
ion      s      p      d    tot
    1  0.000  0.000  0.021  0.022
    2  0.000  0.001  0.013  0.014
    3  0.007  0.000  0.017  0.025
    4  0.000  0.001  0.013  0.014
    5  0.000  0.000  0.033  0.033
    6  0.010  0.001  0.011  0.022
    7  0.007  0.000  0.017  0.025
    8  0.010  0.001  0.011  0.022
    9  0.000  0.002  0.007  0.009
   10  0.000  0.000  0.020  0.020
   11  0.000  0.000  0.047  0.048
   12  0.000  0.000  0.010  0.011
   13  0.000  0.000  0.047  0.048
   14  0.000  0.001  0.041  0.041
   15  0.000  0.000  0.038  0.038
   16  0.000  0.000  0.010  0.011
   17  0.000  0.000  0.038  0.038
   18  0.000  0.000  0.048  0.049
   19  0.000  0.000  0.010  0.011
   20  0.002  0.000  0.041  0.043
   21  0.000  0.000  0.025  0.025
   22  0.000  0.000  0.031  0.032
   23  0.000  0.000  0.025  0.025
   24  0.000  0.000  0.036  0.036
   25  0.001  0.000  0.010  0.011
   26  0.000  0.000  0.010  0.011
   27  0.000  0.000  0.031  0.032
   28  0.000  0.000  0.012  0.012
   29  0.006  0.000  0.011  0.017
   30  0.000  0.000  0.007  0.008
   31  0.006  0.000  0.011  0.017
   32  0.006  0.001  0.007  0.014
   33  0.000  0.000  0.007  0.008
   34  0.006  0.001  0.007  0.014
   35  0.000  0.000  0.018  0.019
   36  0.000  0.002  0.002  0.005
tot    0.066  0.016  0.743  0.826
 
band    19 # energy   -5.07199392 # occ.  2.00000000
 
ion      s      p      d    tot
    1  0.021  0.001  0.001  0.022
    2  0.000  0.001  0.020  0.021
    3  0.000  0.001  0.020  0.021
    4  0.000  0.001  0.020  0.021
    5  0.016  0.000  0.014  0.030
    6  0.000  0.001  0.020  0.021
    7  0.000  0.001  0.020  0.021
    8  0.000  0.001  0.020  0.021
    9  0.000  0.000  0.007  0.008
   10  0.000  0.000  0.029  0.030
   11  0.000  0.000  0.035  0.035
   12  0.000  0.000  0.029  0.030
   13  0.000  0.000  0.035  0.035
   14  0.000  0.000  0.035  0.036
   15  0.000  0.000  0.037  0.037
   16  0.000  0.000  0.029  0.030
   17  0.000  0.000  0.037  0.037
   18  0.000  0.000  0.037  0.037
   19  0.000  0.000  0.023  0.023
   20  0.000  0.000  0.018  0.019
   21  0.000  0.000  0.018  0.019
   22  0.001  0.000  0.027  0.029
   23  0.000  0.000  0.018  0.019
   24  0.001  0.000  0.028  0.029
   25  0.000  0.000  0.023  0.023
   26  0.000  0.000  0.023  0.023
   27  0.001  0.000  0.027  0.029
   28  0.013  0.001  0.001  0.015
   29  0.000  0.001  0.014  0.014
   30  0.000  0.001  0.014  0.014
   31  0.000  0.001  0.014  0.014
   32  0.000  0.001  0.014  0.014
   33  0.000  0.001  0.014  0.014
   34  0.000  0.001  0.014  0.014
   35  0.011  0.000  0.005  0.016
   36  0.000  0.000  0.002  0.002
tot    0.066  0.015  0.741  0.822
 
band    20 # energy   -5.05669912 # occ.  2.00000000
 
ion      s      p      d    tot
    1  0.001  0.000  0.015  0.015
    2  0.000  0.001  0.017  0.018
    3  0.000  0.001  0.017  0.018
    4  0.000  0.001  0.017  0.018
    5  0.016  0.001  0.002  0.020
    6  0.000  0.001  0.017  0.018
    7  0.000  0.001  0.017  0.018
    8  0.000  0.001  0.017  0.018
    9  0.024  0.001  0.006  0.031
   10  0.000  0.000  0.050  0.050
   11  0.000  0.001  0.046  0.047
   12  0.000  0.000  0.050  0.050
   13  0.000  0.001  0.046  0.047
   14  0.000  0.001  0.045  0.046
   15  0.000  0.000  0.029  0.030
   16  0.000  0.000  0.050  0.050
   17  0.000  0.000  0.029  0.030
   18  0.000  0.000  0.030  0.030
   19  0.002  0.001  0.020  0.022
   20  0.001  0.000  0.034  0.034
   21  0.001  0.000  0.033  0.034
   22  0.000  0.000  0.016  0.017
   23  0.001  0.000  0.033  0.034
   24  0.000  0.000  0.016  0.017
   25  0.002  0.000  0.020  0.022
   26  0.002  0.001  0.020  0.022
   27  0.000  0.000  0.016  0.017
   28  0.000  0.000  0.003  0.003
   29  0.000  0.000  0.007  0.007
   30  0.000  0.000  0.007  0.007
   31  0.000  0.000  0.007  0.007
   32  0.000  0.000  0.007  0.007
   33  0.000  0.000  0.007  0.007
   34  0.000  0.000  0.007  0.007
   35  0.001  0.000  0.001  0.002
   36  0.005  0.000  0.003  0.008
tot    0.055  0.017  0.759  0.832
 
band    21 # energy   -5.04774996 # occ.  2.00000000
 
ion      s      p      d    tot
    1  0.000  0.001  0.020  0.022
    2  0.014  0.001  0.016  0.031
    3  0.007  0.001  0.012  0.019
    4  0.014  0.001  0.016  0.031
    5  0.000  0.001  0.011  0.012
    6  0.001  0.001  0.019  0.021
    7  0.007  0.001  0.012  0.019
    8  0.001  0.001  0.019  0.021
    9  0.000  0.000  0.038  0.038
   10  0.000  0.001  0.057  0.058
   11  0.000  0.000  0.025  0.025
   12  0.000  0.000  0.062  0.062
   13  0.000  0.000  0.025  0.025
   14  0.000  0.000  0.037  0.037
   15  0.000  0.000  0.027  0.027
   16  0.000  0.000  0.062  0.062
   17  0.000  0.000  0.027  0.027
   18  0.000  0.001  0.025  0.026
   19  0.000  0.000  0.025  0.025
   20  0.000  0.000  0.021  0.021
   21  0.000  0.000  0.018  0.018
   22  0.001  0.000  0.010  0.010
   23  0.000  0.000  0.018  0.018
   24  0.003  0.000  0.017  0.021
   25  0.001  0.000  0.038  0.039
   26  0.000  0.000  0.025  0.025
   27  0.001  0.000  0.010  0.010
   28  0.000  0.001  0.011  0.011
   29  0.001  0.000  0.005  0.006
   30  0.005  0.000  0.004  0.009
   31  0.001  0.000  0.005  0.006
   32  0.002  0.000  0.007  0.009
   33  0.005  0.000  0.004  0.009
   34  0.002  0.000  0.007  0.009
   35  0.000  0.001  0.005  0.006
   36  0.000  0.000  0.005  0.005
tot    0.065  0.016  0.743  0.823
 
band    22 # energy   -5.04774599 # occ.  2.00000000
 
ion      s      p      d    tot
    1  0.000  0.001  0.020  0.022
    2  0.001  0.001  0.015  0.017
    3  0.008  0.001  0.020  0.028
    4  0.001  0.001  0.015  0.017
    5  0.000  0.001  0.011  0.012
    6  0.013  0.001  0.012  0.026
    7  0.008  0.001  0.020  0.028
    8  0.013  0.001  0.012  0.026
    9  0.000  0.000  0.038  0.038
   10  0.000  0.000  0.063  0.063
   11  0.000  0.000  0.033  0.033
   12  0.000  0.001  0.059  0.059
   13  0.000  0.000  0.033  0.033
   14  0.000  0.000  0.021  0.021
   15  0.000  0.001  0.026  0.026
   16  0.000  0.001  0.059  0.059