PROCAR new format
# of k-points:   10         # of bands:  252         # of ions:   37

 k-point     1 :    0.00000000 0.00000000 0.00000000     weight = 0.01562500

band     1 # energy   -7.85132651 # occ.  2.00000000
 
ion      s      p      d    tot
    1  0.000  0.000  0.000  0.000
    2  0.000  0.000  0.000  0.000
    3  0.000  0.000  0.000  0.000
    4  0.000  0.000  0.000  0.000
    5  0.000  0.000  0.000  0.000
    6  0.000  0.000  0.000  0.000
    7  0.000  0.000  0.000  0.000
    8  0.000  0.000  0.000  0.000
    9  0.000  0.000  0.000  0.000
   10  0.000  0.000  0.000  0.000
   11  0.000  0.000  0.000  0.000
   12  0.000  0.000  0.000  0.000
   13  0.000  0.000  0.000  0.000
   14  0.000  0.000  0.000  0.000
   15  0.000  0.000  0.000  0.000
   16  0.000  0.000  0.000  0.000
   17  0.000  0.000  0.000  0.000
   18  0.000  0.000  0.000  0.000
   19  0.001  0.000  0.000  0.001
   20  0.003  0.000  0.002  0.005
   21  0.003  0.000  0.002  0.005
   22  0.001  0.000  0.000  0.001
   23  0.003  0.000  0.002  0.005
   24  0.001  0.000  0.000  0.001
   25  0.001  0.000  0.000  0.001
   26  0.001  0.000  0.000  0.001
   27  0.001  0.000  0.000  0.001
   28  0.001  0.000  0.000  0.001
   29  0.003  0.000  0.002  0.005
   30  0.003  0.000  0.002  0.005
   31  0.003  0.000  0.002  0.005
   32  0.003  0.000  0.002  0.005
   33  0.003  0.000  0.002  0.005
   34  0.003  0.000  0.002  0.005
   35  0.000  0.000  0.000  0.001
   36  0.124  0.068  0.118  0.311
   37  0.417  0.009  0.000  0.426
tot    0.573  0.082  0.137  0.792
 
band     2 # energy   -6.86409167 # occ.  2.00000000
 
ion      s      p      d    tot
    1  0.006  0.001  0.000  0.007
    2  0.006  0.001  0.000  0.007
    3  0.006  0.001  0.000  0.007
    4  0.006  0.001  0.000  0.007
    5  0.007  0.001  0.000  0.007
    6  0.006  0.001  0.000  0.007
    7  0.006  0.001  0.000  0.007
    8  0.006  0.001  0.000  0.007
    9  0.006  0.001  0.000  0.007
   10  0.024  0.000  0.000  0.025
   11  0.025  0.000  0.000  0.026
   12  0.024  0.000  0.000  0.025
   13  0.025  0.000  0.000  0.026
   14  0.025  0.000  0.000  0.026
   15  0.024  0.000  0.000  0.025
   16  0.024  0.000  0.000  0.025
   17  0.024  0.000  0.000  0.025
   18  0.024  0.000  0.000  0.025
   19  0.021  0.000  0.000  0.022
   20  0.022  0.000  0.001  0.022
   21  0.022  0.000  0.001  0.022
   22  0.022  0.000  0.000  0.023
   23  0.022  0.000  0.001  0.022
   24  0.022  0.000  0.000  0.023
   25  0.021  0.000  0.000  0.022
   26  0.021  0.000  0.000  0.022
   27  0.022  0.000  0.000  0.023
   28  0.005  0.001  0.000  0.005
   29  0.003  0.001  0.000  0.004
   30  0.003  0.001  0.000  0.004
   31  0.003  0.001  0.000  0.004
   32  0.003  0.001  0.000  0.004
   33  0.003  0.001  0.000  0.004
   34  0.003  0.001  0.000  0.004
   35  0.004  0.001  0.000  0.005
   36  0.000  0.007  0.004  0.011
   37  0.016  0.000  0.000  0.016
tot    0.518  0.021  0.015  0.553
 
band     3 # energy   -6.01243053 # occ.  2.00000000
 
ion      s      p      d    tot
    1  0.007  0.000  0.000  0.007
    2  0.006  0.000  0.000  0.007
    3  0.006  0.000  0.000  0.007
    4  0.006  0.000  0.000  0.007
    5  0.006  0.000  0.000  0.007
    6  0.006  0.000  0.000  0.007
    7  0.006  0.000  0.000  0.007
    8  0.006  0.000  0.000  0.007
    9  0.006  0.000  0.000  0.007
   10  0.011  0.001  0.016  0.028
   11  0.010  0.001  0.018  0.028
   12  0.011  0.001  0.016  0.028
   13  0.010  0.001  0.018  0.028
   14  0.010  0.001  0.018  0.028
   15  0.009  0.001  0.015  0.025
   16  0.011  0.001  0.016  0.028
   17  0.009  0.001  0.015  0.025
   18  0.009  0.001  0.015  0.025
   19  0.013  0.001  0.020  0.034
   20  0.013  0.001  0.028  0.042
   21  0.013  0.001  0.028  0.042
   22  0.014  0.001  0.019  0.034
   23  0.013  0.001  0.028  0.042
   24  0.014  0.001  0.019  0.034
   25  0.013  0.001  0.020  0.034
   26  0.013  0.001  0.020  0.034
   27  0.014  0.001  0.019  0.034
   28  0.006  0.000  0.000  0.006
   29  0.004  0.000  0.001  0.005
   30  0.004  0.000  0.001  0.005
   31  0.004  0.000  0.001  0.005
   32  0.004  0.000  0.001  0.005
   33  0.004  0.000  0.001  0.005
   34  0.004  0.000  0.001  0.005
   35  0.005  0.000  0.000  0.006
   36  0.000  0.003  0.001  0.004
   37  0.004  0.000  0.000  0.004
tot    0.303  0.024  0.356  0.683
 
band     4 # energy   -5.72912087 # occ.  2.00000000
 
ion      s      p      d    tot
    1  0.019  0.000  0.026  0.046
    2  0.017  0.000  0.026  0.044
    3  0.017  0.000  0.026  0.044
    4  0.017  0.000  0.026  0.044
    5  0.016  0.000  0.028  0.044
    6  0.017  0.000  0.026  0.044
    7  0.017  0.000  0.026  0.044
    8  0.017  0.000  0.026  0.044
    9  0.017  0.000  0.025  0.042
   10  0.000  0.001  0.022  0.023
   11  0.001  0.001  0.019  0.021
   12  0.000  0.001  0.022  0.023
   13  0.001  0.001  0.019  0.021
   14  0.001  0.001  0.019  0.021
   15  0.001  0.001  0.017  0.019
   16  0.000  0.001  0.022  0.023
   17  0.001  0.001  0.017  0.019
   18  0.001  0.001  0.017  0.019
   19  0.000  0.000  0.005  0.006
   20  0.000  0.000  0.009  0.009
   21  0.000  0.000  0.009  0.009
   22  0.001  0.000  0.007  0.008
   23  0.000  0.000  0.009  0.009
   24  0.001  0.000  0.007  0.008
   25  0.000  0.000  0.005  0.006
   26  0.000  0.000  0.005  0.006
   27  0.001  0.000  0.007  0.008
   28  0.006  0.000  0.005  0.011
   29  0.005  0.000  0.006  0.012
   30  0.005  0.000  0.006  0.012
   31  0.005  0.000  0.006  0.012
   32  0.005  0.000  0.006  0.012
   33  0.005  0.000  0.006  0.012
   34  0.005  0.000  0.006  0.012
   35  0.008  0.000  0.006  0.014
   36  0.001  0.000  0.004  0.005
   37  0.002  0.000  0.000  0.002
tot    0.210  0.008  0.534  0.752
 
band     5 # energy   -5.64529104 # occ.  2.00000000
 
ion      s      p      d    tot
    1  0.001  0.000  0.002  0.003
    2  0.000  0.000  0.004  0.005
    3  0.000  0.000  0.004  0.005
    4  0.000  0.000  0.004  0.005
    5  0.002  0.000  0.000  0.003
    6  0.000  0.000  0.004  0.005
    7  0.000  0.000  0.004  0.005
    8  0.000  0.000  0.004  0.005
    9  0.001  0.000  0.000  0.001
   10  0.002  0.000  0.022  0.024
   11  0.001  0.001  0.022  0.024
   12  0.002  0.000  0.022  0.024
   13  0.001  0.001  0.022  0.024
   14  0.001  0.001  0.022  0.024
   15  0.004  0.001  0.015  0.021
   16  0.002  0.000  0.022  0.024
   17  0.004  0.001  0.015  0.021
   18  0.005  0.001  0.015  0.021
   19  0.003  0.001  0.027  0.031
   20  0.006  0.000  0.105  0.111
   21  0.006  0.000  0.105  0.111
   22  0.013  0.001  0.022  0.036
   23  0.006  0.000  0.105  0.111
   24  0.013  0.001  0.022  0.036
   25  0.003  0.001  0.027  0.031
   26  0.003  0.001  0.027  0.031
   27  0.013  0.001  0.022  0.036
   28  0.000  0.000  0.000  0.000
   29  0.000  0.000  0.005  0.005
   30  0.000  0.000  0.005  0.005
   31  0.000  0.000  0.005  0.005
   32  0.000  0.000  0.005  0.005
   33  0.000  0.000  0.005  0.005
   34  0.000  0.000  0.005  0.005
   35  0.003  0.001  0.004  0.008
   36  0.000  0.003  0.001  0.004
   37  0.001  0.000  0.000  0.001
tot    0.099  0.015  0.705  0.820
 
band     6 # energy   -5.63532468 # occ.  2.00000000
 
ion      s      p      d    tot
    1  0.000  0.000  0.008  0.008
    2  0.001  0.000  0.003  0.004
    3  0.001  0.000  0.003  0.004
    4  0.001  0.000  0.003  0.004
    5  0.000  0.000  0.005  0.005
    6  0.000  0.000  0.003  0.003
    7  0.001  0.000  0.003  0.004
    8  0.000  0.000  0.003  0.003
    9  0.000  0.000  0.001  0.001
   10  0.000  0.000  0.023  0.023
   11  0.003  0.000  0.027  0.030
   12  0.009  0.001  0.015  0.025
   13  0.003  0.000  0.027  0.030
   14  0.000  0.001  0.018  0.019
   15  0.002  0.000  0.013  0.016
   16  0.009  0.001  0.015  0.025
   17  0.002  0.000  0.013  0.016
   18  0.000  0.000  0.024  0.024
   19  0.015  0.001  0.033  0.049
   20  0.000  0.000  0.153  0.153
   21  0.020  0.001  0.044  0.065
   22  0.000  0.001  0.037  0.038
   23  0.021  0.001  0.041  0.062
   24  0.000  0.001  0.057  0.058
   25  0.000  0.001  0.016  0.017
   26  0.014  0.001  0.033  0.048
   27  0.000  0.000  0.036  0.037
   28  0.000  0.000  0.004  0.004
   29  0.000  0.000  0.006  0.007
   30  0.000  0.000  0.002  0.003
   31  0.000  0.000  0.006  0.007
   32  0.001  0.001  0.006  0.008
   33  0.000  0.000  0.002  0.003
   34  0.001  0.001  0.006  0.008
   35  0.000  0.000  0.001  0.001
   36  0.000  0.001  0.002  0.003
   37  0.000  0.000  0.000  0.000
tot    0.108  0.015  0.691  0.814
 
band     7 # energy   -5.63530278 # occ.  2.00000000
 
ion      s      p      d    tot
    1  0.000  0.000  0.008  0.008
    2  0.001  0.000  0.003  0.003
    3  0.000  0.000  0.002  0.003
    4  0.001  0.000  0.003  0.003
    5  0.000  0.000  0.005  0.005
    6  0.001  0.000  0.003  0.005
    7  0.000  0.000  0.002  0.003
    8  0.001  0.000  0.003  0.004
    9  0.000  0.000  0.001  0.001
   10  0.012  0.001  0.012  0.026
   11  0.001  0.001  0.021  0.023
   12  0.003  0.001  0.020  0.024
   13  0.001  0.001  0.021  0.023
   14  0.004  0.000  0.030  0.034
   15  0.001  0.000  0.021  0.022
   16  0.003  0.001  0.020  0.024
   17  0.001  0.000  0.020  0.021
   18  0.003  0.000  0.009  0.013
   19  0.005  0.001  0.021  0.027
   20  0.027  0.001  0.006  0.034
   21  0.007  0.000  0.114  0.122
   22  0.000  0.001  0.050  0.051
   23  0.007  0.000  0.118  0.124
   24  0.000  0.000  0.030  0.031
   25  0.020  0.000  0.039  0.059
   26  0.005  0.001  0.022  0.028
   27  0.000  0.001  0.050  0.051
   28  0.000  0.000  0.004  0.004
   29  0.001  0.000  0.003  0.005
   30  0.001  0.001  0.007  0.009
   31  0.001  0.000  0.003  0.005
   32  0.000  0.000  0.003  0.004
   33  0.001  0.001  0.007  0.009
   34  0.000  0.000  0.004  0.004
   35  0.000  0.000  0.001  0.001
   36  0.000  0.001  0.002  0.003
   37  0.000  0.000  0.000  0.000
tot    0.108  0.015  0.691  0.814
 
band     8 # energy   -5.62577027 # occ.  2.00000000
 
ion      s      p      d    tot
    1  0.000  0.000  0.001  0.001
    2  0.000  0.000  0.003  0.003
    3  0.001  0.000  0.006  0.008
    4  0.000  0.000  0.003  0.003
    5  0.000  0.000  0.009  0.009
    6  0.001  0.000  0.004  0.005
    7  0.001  0.000  0.006  0.007
    8  0.001  0.000  0.004  0.005
    9  0.000  0.000  0.004  0.004
   10  0.001  0.000  0.024  0.025
   11  0.007  0.000  0.071  0.079
   12  0.000  0.001  0.054  0.055
   13  0.007  0.000  0.073  0.080
   14  0.027  0.001  0.007  0.035
   15  0.004  0.001  0.016  0.022
   16  0.000  0.001  0.053  0.054
   17  0.004  0.001  0.016  0.021
   18  0.015  0.000  0.035  0.050
   19  0.001  0.000  0.040  0.041
   20  0.006  0.000  0.039  0.046
   21  0.001  0.001  0.027  0.030
   22  0.005  0.001  0.031  0.037
   23  0.002  0.001  0.027  0.030
   24  0.019  0.001  0.012  0.032
   25  0.004  0.000  0.011  0.016
   26  0.001  0.000  0.040  0.042
   27  0.005  0.001  0.031  0.036
   28  0.000  0.000  0.002  0.002
   29  0.001  0.000  0.004  0.005
   30  0.000  0.000  0.002  0.002
   31  0.001  0.000  0.004  0.005
   32  0.001  0.000  0.003  0.003
   33  0.000  0.000  0.002  0.003
   34  0.001  0.000  0.003  0.004
   35  0.000  0.000  0.007  0.008
   36  0.000  0.000  0.001  0.001
   37  0.000  0.000  0.000  0.000
tot    0.118  0.016  0.672  0.806
 
band     9 # energy   -5.62576553 # occ.  2.00000000
 
ion      s      p      d    tot
    1  0.000  0.000  0.001  0.001
    2  0.001  0.001  0.005  0.007
    3  0.000  0.000  0.002  0.003
    4  0.001  0.001  0.005  0.007
    5  0.000  0.000  0.009  0.009
    6  0.001  0.000  0.004  0.005
    7  0.000  0.000  0.002  0.003
    8  0.001  0.000  0.004  0.005
    9  0.000  0.000  0.004  0.004
   10  0.000  0.001  0.064  0.064
   11  0.020  0.001  0.030  0.050
   12  0.001  0.000  0.033  0.034
   13  0.021  0.001  0.028  0.049
   14  0.000  0.000  0.094  0.094
   15  0.011  0.001  0.028  0.040
   16  0.001  0.000  0.034  0.035
   17  0.011  0.001  0.029  0.041
   18  0.000  0.002  0.010  0.012
   19  0.003  0.000  0.021  0.025
   20  0.000  0.001  0.023  0.025
   21  0.005  0.001  0.035  0.040
   22  0.015  0.001  0.018  0.033
   23  0.005  0.001  0.035  0.040
   24  0.000  0.001  0.038  0.038
   25  0.000  0.000  0.050  0.050
   26  0.003  0.000  0.020  0.024
   27  0.014  0.001  0.019  0.034
   28  0.000  0.000  0.002  0.002
   29  0.000  0.000  0.002  0.002
   30  0.001  0.000  0.003  0.005
   31  0.000  0.000  0.002  0.002
   32  0.001  0.000  0.003  0.004
   33  0.001  0.000  0.003  0.005
   34  0.001  0.000  0.003  0.004
   35  0.000  0.000  0.007  0.008
   36  0.000  0.000  0.001  0.001
   37  0.000  0.000  0.000  0.000
tot    0.118  0.016  0.672  0.806
 
band    10 # energy   -5.62384493 # occ.  2.00000000
 
ion      s      p      d    tot
    1  0.000  0.000  0.001  0.001
    2  0.000  0.000  0.006  0.006
    3  0.000  0.000  0.006  0.006
    4  0.000  0.000  0.006  0.006
    5  0.005  0.001  0.003  0.008
    6  0.000  0.000  0.006  0.006
    7  0.000  0.000  0.006  0.006
    8  0.000  0.000  0.006  0.006
    9  0.001  0.000  0.004  0.005
   10  0.008  0.001  0.005  0.014
   11  0.012  0.001  0.040  0.053
   12  0.008  0.001  0.005  0.014
   13  0.012  0.001  0.040  0.053
   14  0.013  0.001  0.040  0.053
   15  0.001  0.000  0.046  0.047
   16  0.008  0.001  0.005  0.014
   17  0.001  0.000  0.046  0.047
   18  0.001  0.000  0.045  0.046
   19  0.013  0.001  0.030  0.044
   20  0.005  0.001  0.017  0.023
   21  0.006  0.001  0.017  0.024
   22  0.000  0.000  0.054  0.054
   23  0.006  0.001  0.017  0.024
   24  0.001  0.000  0.053  0.054
   25  0.014  0.001  0.030  0.044
   26  0.013  0.001  0.030  0.044
   27  0.000  0.000  0.054  0.054
   28  0.004  0.001  0.005  0.010
   29  0.000  0.000  0.004  0.004
   30  0.000  0.000  0.004  0.004
   31  0.000  0.000  0.004  0.004
   32  0.000  0.000  0.004  0.004
   33  0.000  0.000  0.004  0.004
   34  0.000  0.000  0.004  0.004
   35  0.002  0.000  0.004  0.006
   36  0.000  0.000  0.000  0.000
   37  0.000  0.000  0.000  0.000
tot    0.134  0.018  0.646  0.798
 
band    11 # energy   -5.60459097 # occ.  2.00000000
 
ion      s      p      d    tot
    1  0.000  0.001  0.021  0.022
    2  0.001  0.000  0.008  0.009
    3  0.001  0.000  0.008  0.009
    4  0.001  0.000  0.008  0.009
    5  0.000  0.000  0.001  0.002
    6  0.001  0.000  0.008  0.009
    7  0.001  0.000  0.008  0.009
    8  0.001  0.000  0.008  0.009
    9  0.009  0.001  0.000  0.010
   10  0.006  0.000  0.070  0.076
   11  0.001  0.000  0.056  0.058
   12  0.006  0.000  0.070  0.076
   13  0.001  0.000  0.056  0.058
   14  0.001  0.000  0.056  0.058
   15  0.008  0.001  0.003  0.012
   16  0.006  0.000  0.070  0.076
   17  0.008  0.001  0.003  0.012
   18  0.008  0.001  0.003  0.012
   19  0.001  0.000  0.013  0.014
   20  0.003  0.000  0.026  0.029
   21  0.003  0.000  0.026  0.029
   22  0.000  0.000  0.026  0.026
   23  0.003  0.000  0.026  0.029
   24  0.000  0.000  0.026  0.026
   25  0.001  0.000  0.013  0.014
   26  0.001  0.000  0.013  0.014
   27  0.000  0.000  0.026  0.026
   28  0.008  0.001  0.001  0.009
   29  0.001  0.000  0.012  0.013
   30  0.001  0.000  0.012  0.013
   31  0.001  0.000  0.012  0.013
   32  0.001  0.000  0.012  0.013
   33  0.001  0.000  0.012  0.013
   34  0.001  0.000  0.012  0.013
   35  0.001  0.000  0.009  0.010
   36  0.002  0.001  0.000  0.003
   37  0.000  0.000  0.000  0.000
tot    0.088  0.010  0.732  0.830
 
band    12 # energy   -5.58387382 # occ.  2.00000000
 
ion      s      p      d    tot
    1  0.000  0.000  0.014  0.014
    2  0.002  0.001  0.009  0.012
    3  0.003  0.001  0.005  0.009
    4  0.001  0.001  0.010  0.012
    5  0.000  0.000  0.006  0.006
    6  0.000  0.000  0.010  0.010
    7  0.003  0.001  0.005  0.008
    8  0.001  0.000  0.008  0.009
    9  0.000  0.000  0.007  0.008
   10  0.018  0.000  0.030  0.048
   11  0.000  0.001  0.021  0.021
   12  0.007  0.000  0.051  0.059
   13  0.000  0.000  0.028  0.029
   14  0.000  0.000  0.046  0.046
   15  0.002  0.000  0.108  0.110
   16  0.002  0.000  0.060  0.063
   17  0.006  0.000  0.076  0.083
   18  0.015  0.000  0.007  0.022
   19  0.000  0.000  0.031  0.031
   20  0.002  0.000  0.011  0.013
   21  0.001  0.000  0.023  0.024
   22  0.001  0.000  0.018  0.019
   23  0.000  0.000  0.029  0.029
   24  0.002  0.000  0.024  0.026
   25  0.000  0.000  0.023  0.023
   26  0.000  0.000  0.028  0.028
   27  0.000  0.000  0.016  0.016
   28  0.000  0.000  0.014  0.014
   29  0.001  0.000  0.004  0.006
   30  0.000  0.000  0.005  0.005
   31  0.002  0.000  0.004  0.006
   32  0.003  0.000  0.004  0.007
   33  0.000  0.000  0.005  0.005
   34  0.002  0.000  0.005  0.007
   35  0.000  0.000  0.006  0.006
   36  0.000  0.000  0.001  0.001
   37  0.000  0.000  0.000  0.000
tot    0.074  0.010  0.749  0.833
 
band    13 # energy   -5.58387188 # occ.  2.00000000
 
ion      s      p      d    tot
    1  0.000  0.000  0.014  0.014
    2  0.001  0.000  0.006  0.008
    3  0.000  0.000  0.011  0.011
    4  0.002  0.000  0.005  0.008
    5  0.000  0.000  0.006  0.006
    6  0.003  0.001  0.006  0.010
    7  0.000  0.000  0.011  0.012
    8  0.002  0.001  0.008  0.011
    9  0.000  0.000  0.008  0.008
   10  0.000  0.000  0.064  0.065
   11  0.000  0.000  0.042  0.043
   12  0.011  0.000  0.043  0.055
   13  0.000  0.000  0.035  0.035
   14  0.000  0.001  0.017  0.018
   15  0.013  0.000  0.020  0.033
   16  0.016  0.000  0.034  0.050
   17  0.009  0.000  0.051  0.060
   18  0.000  0.000  0.120  0.121
   19  0.000  0.000  0.024  0.024
   20  0.000  0.000  0.031  0.031
   21  0.001  0.000  0.019  0.020
   22  0.001  0.000  0.020  0.022
   23  0.001  0.000  0.013  0.015
   24  0.000  0.000  0.015  0.015
   25  0.000  0.000  0.032  0.032
   26  0.000  0.000  0.026  0.027
   27  0.002  0.000  0.023  0.025
   28  0.000  0.000  0.014  0.014
   29  0.001  0.000  0.005  0.006
   30  0.003  0.000  0.004  0.007
   31  0.001  0.000  0.005  0.006
   32  0.000  0.000  0.004  0.005
   33  0.003  0.000  0.004  0.007
   34  0.001  0.000  0.004  0.005
   35  0.000  0.000  0.006  0.006
   36  0.000  0.000  0.001  0.001
   37  0.000  0.000  0.000  0.000
tot    0.074  0.010  0.749  0.833
 
band    14 # energy   -5.57895735 # occ.  2.00000000
 
ion      s      p      d    tot
    1  0.002  0.000  0.000  0.002
    2  0.000  0.000  0.010  0.011
    3  0.000  0.000  0.010  0.010
    4  0.000  0.000  0.010  0.011
    5  0.004  0.000  0.000  0.004
    6  0.000  0.000  0.010  0.011
    7  0.000  0.000  0.010  0.010
    8  0.000  0.000  0.010  0.011
    9  0.001  0.000  0.016  0.018
   10  0.002  0.000  0.035  0.037
   11  0.002  0.000  0.004  0.006
   12  0.002  0.000  0.035  0.037
   13  0.002  0.000  0.004  0.006
   14  0.002  0.000  0.004  0.006
   15  0.002  0.000  0.063  0.065
   16  0.002  0.000  0.035  0.037
   17  0.002  0.000  0.063  0.065
   18  0.002  0.000  0.063  0.066
   19  0.001  0.000  0.049  0.050
   20  0.004  0.000  0.023  0.026
   21  0.003  0.000  0.023  0.026
   22  0.000  0.000  0.036  0.036
   23  0.003  0.000  0.023  0.026
   24  0.000  0.000  0.036  0.036
   25  0.001  0.000  0.049  0.049
   26  0.001  0.000  0.049  0.050
   27  0.000  0.000  0.036  0.036
   28  0.000  0.000  0.003  0.003
   29  0.001  0.000  0.010  0.012
   30  0.001  0.000  0.010  0.012
   31  0.001  0.000  0.010  0.012
   32  0.001  0.000  0.010  0.012
   33  0.001  0.000  0.010  0.012
   34  0.001  0.000  0.010  0.012
   35  0.008  0.000  0.008  0.016
   36  0.000  0.001  0.002  0.003
   37  0.000  0.000  0.000  0.000
tot    0.059  0.008  0.778  0.844
 
band    15 # energy   -5.57259628 # occ.  2.00000000
 
ion      s      p      d    tot
    1  0.000  0.000  0.006  0.006
    2  0.003  0.000  0.006  0.009
    3  0.000  0.000  0.009  0.009
    4  0.003  0.000  0.006  0.009
    5  0.000  0.000  0.009  0.009
    6  0.002  0.000  0.006  0.009
    7  0.000  0.000  0.009  0.009
    8  0.002  0.000  0.006  0.009
    9  0.000  0.000  0.018  0.018
   10  0.004  0.000  0.023  0.027
   11  0.002  0.000  0.046  0.048
   12  0.001  0.000  0.026  0.027
   13  0.002  0.000  0.045  0.047
   14  0.007  0.000  0.008  0.015
   15  0.000  0.000  0.027  0.027
   16  0.001  0.000  0.026  0.027
   17  0.000  0.000  0.028  0.028
   18  0.000  0.000  0.038  0.039
   19  0.002  0.000  0.068  0.070
   20  0.000  0.000  0.052  0.052
   21  0.000  0.000  0.025  0.025
   22  0.003  0.000  0.056  0.060
   23  0.000  0.000  0.024  0.024
   24  0.012  0.000  0.023  0.035
   25  0.008  0.000  0.007  0.015
   26  0.002  0.000  0.066  0.068
   27  0.003  0.000  0.058  0.061
   28  0.000  0.000  0.004  0.004
   29  0.000  0.000  0.008  0.008
   30  0.002  0.000  0.002  0.004
   31  0.000  0.000  0.008  0.008
   32  0.001  0.001  0.008  0.010
   33  0.002  0.000  0.002  0.004
   34  0.001  0.001  0.008  0.009
   35  0.000  0.000  0.010  0.010
   36  0.000  0.000  0.001  0.001
   37  0.000  0.000  0.000  0.000
tot    0.062  0.008  0.773  0.842
 
band    16 # energy   -5.57256217 # occ.  2.00000000
 
ion      s      p      d    tot
    1  0.000  0.000  0.006  0.006
    2  0.000  0.000  0.008  0.009
    3  0.003  0.000  0.005  0.009
    4  0.000  0.000  0.008  0.009
    5  0.000  0.000  0.009  0.009
    6  0.001  0.000  0.008  0.009
    7  0.003  0.000  0.005  0.009
    8  0.002  0.000  0.008  0.010
    9  0.000  0.000  0.018  0.018
   10  0.000  0.000  0.027  0.027
   11  0.005  0.000  0.020  0.025
   12  0.003  0.000  0.024  0.027
   13  0.005  0.000  0.021  0.026
   14  0.000  0.000  0.058  0.058
   15  0.000  0.000  0.035  0.035
   16  0.003  0.000  0.024  0.027
   17  0.000  0.000  0.035  0.035
   18  0.000  0.000  0.024  0.024
   19  0.006  0.000  0.026  0.032
   20  0.000  0.000  0.015  0.015
   21  0.000  0.000  0.042  0.043
   22  0.009  0.000  0.035  0.044
   23  0.000  0.000  0.043  0.044
   24  0.000  0.000  0.068  0.068
   25  0.000  0.000  0.087  0.087
   26  0.006  0.000  0.028  0.034
   27  0.009  0.000  0.034  0.043
   28  0.000  0.000  0.004  0.004
   29  0.002  0.001  0.004  0.007
   30  0.000  0.000  0.010  0.010
   31  0.002  0.001  0.004  0.006
   32  0.001  0.000  0.004  0.005
   33  0.000  0.000  0.010  0.010
   34  0.001  0.000  0.004  0.005
   35  0.000  0.000  0.010  0.010
   36  0.000  0.000  0.001  0.001
   37  0.000  0.000  0.000  0.000
tot    0.062  0.008  0.773  0.842
 
band    17 # energy   -5.52567920 # occ.  2.00000000
 
ion      s      p      d    tot
    1  0.007  0.000  0.003  0.010
    2  0.002  0.000  0.009  0.011
    3  0.002  0.000  0.009  0.011
    4  0.002  0.000  0.009  0.011
    5  0.001  0.000  0.018  0.019
    6  0.002  0.000  0.009  0.011
    7  0.002  0.000  0.009  0.011
    8  0.002  0.000  0.009  0.011
    9  0.000  0.000  0.005  0.005
   10  0.000  0.000  0.009  0.009
   11  0.003  0.000  0.022  0.024
   12  0.000  0.000  0.009  0.009
   13  0.003  0.000  0.022  0.024
   14  0.003  0.000  0.022  0.024
   15  0.003  0.000  0.009  0.012
   16  0.000  0.000  0.009  0.009
   17  0.003  0.000  0.009  0.012
   18  0.003  0.000  0.009  0.012
   19  0.001  0.000  0.020  0.021
   20  0.000  0.001  0.018  0.019
   21  0.000  0.001  0.018  0.019
   22  0.001  0.001  0.014  0.015
   23  0.000  0.001  0.018  0.019
   24  0.001  0.001  0.014  0.015
   25  0.001  0.000  0.020  0.021
   26  0.001  0.000  0.020  0.021
   27  0.001  0.001  0.014  0.015
   28  0.016  0.000  0.043  0.059
   29  0.014  0.000  0.030  0.043
   30  0.014  0.000  0.030  0.043
   31  0.014  0.000  0.030  0.043
   32  0.014  0.000  0.030  0.043
   33  0.014  0.000  0.030  0.043
   34  0.014  0.000  0.030  0.043
   35  0.014  0.000  0.028  0.042
   36  0.005  0.003  0.010  0.018
   37  0.007  0.000  0.000  0.007
tot    0.165  0.011  0.615  0.791
 
band    18 # energy   -5.43212262 # occ.  2.00000000
 
ion      s      p      d    tot
    1  0.001  0.000  0.000  0.002
    2  0.000  0.000  0.006  0.007
    3  0.000  0.000  0.006  0.007
    4  0.000  0.000  0.006  0.007
    5  0.001  0.000  0.013  0.014
    6  0.000  0.000  0.006  0.007
    7  0.000  0.000  0.006  0.007
    8  0.000  0.000  0.006  0.007
    9  0.003  0.001  0.005  0.009
   10  0.001  0.000  0.017  0.017
   11  0.000  0.001  0.070  0.071
   12  0.001  0.000  0.017  0.017
   13  0.000  0.001  0.070  0.071
   14  0.000  0.001  0.070  0.071
   15  0.000  0.000  0.035  0.035
   16  0.001  0.000  0.017  0.017
   17  0.000  0.000  0.035  0.035
   18  0.000  0.000  0.034  0.035
   19  0.000  0.000  0.028  0.028
   20  0.001  0.000  0.069  0.070
   21  0.001  0.000  0.069  0.070
   22  0.001  0.000  0.020  0.021
   23  0.001  0.000  0.069  0.070
   24  0.001  0.000  0.020  0.021
   25  0.000  0.000  0.028  0.028
   26  0.000  0.000  0.028  0.028
   27  0.001  0.000  0.020  0.021
   28  0.003  0.001  0.004  0.007
   29  0.000  0.000  0.010  0.010
   30  0.000  0.000  0.010  0.010
   31  0.000  0.000  0.010  0.010
   32  0.000  0.000  0.010  0.010
   33  0.000  0.000  0.010  0.010
   34  0.000  0.000  0.010  0.010
   35  0.003  0.000  0.001  0.004
   36  0.000  0.002  0.001  0.003
   37  0.001  0.000  0.000  0.001
tot    0.021  0.015  0.833  0.869
 
band    19 # energy   -5.43013657 # occ.  2.00000000
 
ion      s      p      d    tot
    1  0.000  0.000  0.001  0.001
    2  0.000  0.000  0.008  0.008
    3  0.001  0.001  0.005  0.007
    4  0.000  0.000  0.008  0.008
    5  0.000  0.001  0.016  0.017
    6  0.001  0.000  0.008  0.009
    7  0.001  0.001  0.005  0.007
    8  0.001  0.000  0.008  0.009
    9  0.000  0.000  0.010  0.010
   10  0.000  0.000  0.035  0.036
   11  0.001  0.000  0.055  0.057
   12  0.000  0.001  0.025  0.026
   13  0.001  0.000  0.057  0.059
   14  0.000  0.000  0.090  0.091
   15  0.002  0.001  0.028  0.031
   16  0.000  0.001  0.024  0.026
   17  0.002  0.001  0.027  0.030
   18  0.000  0.000  0.006  0.006
   19  0.002  0.001  0.026  0.029
   20  0.000  0.000  0.099  0.099
   21  0.002  0.000  0.063  0.065
   22  0.000  0.001  0.023  0.023
   23  0.002  0.000  0.061  0.064
   24  0.000  0.000  0.028  0.028
   25  0.000  0.000  0.006  0.006
   26  0.002  0.001  0.025  0.028
   27  0.000  0.001  0.022  0.023
   28  0.000  0.000  0.009  0.009
   29  0.001  0.001  0.008  0.009
   30  0.002  0.001  0.005  0.008
   31  0.001  0.001  0.008  0.009
   32  0.000  0.000  0.006  0.007
   33  0.002  0.001  0.005  0.008
   34  0.000  0.000  0.006  0.007
   35  0.000  0.000  0.001  0.001
   36  0.000  0.002  0.003  0.005
   37  0.000  0.000  0.000  0.000
tot    0.026  0.017  0.822  0.864
 
band    20 # energy   -5.43012294 # occ.  2.00000000
 
ion      s      p      d    tot
    1  0.000  0.000  0.001  0.001
    2  0.001  0.001  0.006  0.008
    3  0.000  0.000  0.009  0.009
    4  0.001  0.001  0.006  0.008
    5  0.000  0.001  0.016  0.017
    6  0.001  0.000  0.005  0.007
    7  0.000  0.000  0.009  0.009
    8  0.001  0.000  0.006  0.007
    9  0.000  0.000  0.010  0.010
   10  0.000  0.001  0.021  0.023
   11  0.000  0.000  0.080  0.081
   12  0.000  0.000  0.031  0.032
   13  0.001  0.000  0.078  0.079
   14  0.002  0.000  0.045  0.046
   15  0.001  0.000  0.013  0.014
   16  0.000  0.000  0.032  0.033
   17  0.001  0.000  0.014  0.015
   18  0.002  0.001  0.035  0.039
   19  0.001  0.000  0.012  0.013
   20  0.003  0.000  0.050  0.053
   21  0.001  0.000  0.086  0.087
   22  0.000  0.000  0.026  0.027
   23  0.001  0.000  0.087  0.088
   24  0.000  0.001  0.020  0.021
   25  0.003  0.001  0.033  0.036
   26  0.001  0.000  0.013  0.014
   27  0.000  0.000  0.027  0.027
   28  0.000  0.000  0.009  0.009
   29  0.001  0.000  0.005  0.006
   30  0.000  0.000  0.008  0.008
   31  0.001  0.000  0.005  0.007
   32  0.002  0.001  0.007  0.009
   33  0.000  0.000  0.008  0.008
   34  0.002  0.001  0.007  0.009
   35  0.000  0.000  0.001  0.001
   36  0.000  0.002  0.003  0.005
   37  0.000  0.000  0.000  0.000
tot    0.026  0.017  0.822  0.864
 
band    21 # energy   -5.41159755 # occ.  2.00000000
 
ion      s      p      d    tot
    1  0.001  0.000  0.006  0.007
    2  0.000  0.000  0.011  0.012
    3  0.000  0.000  0.011  0.012
    4  0.000  0.000  0.011  0.012
    5  0.004  0.001  0.000  0.005
    6  0.000  0.000  0.011  0.012
    7  0.000  0.000  0.011  0.012
    8  0.000  0.000  0.011  0.012
    9  0.001  0.000  0.005  0.006
   10  0.001  0.001  0.054  0.056
   11  0.000  0.000  0.018  0.019
   12  0.001  0.001  0.054  0.056
   13  0.000  0.000  0.018  0.019
   14  0.000  0.000  0.019  0.019
   15  0.002  0.000  0.035  0.037
   16  0.001  0.001  0.054  0.056
   17  0.002  0.000  0.035  0.037
   18  0.002  0.000  0.035  0.037
   19  0.001  0.000  0.044  0.045
   20  0.001  0.000  0.017  0.018
   21  0.001  0.000  0.017  0.018
   22  0.001  0.001  0.049  0.051
   23  0.001  0.000  0.017  0.018
   24  0.001  0.001  0.050  0.051
   25  0.001  0.000  0.044  0.045
   26  0.001  0.000  0.044  0.045
   27  0.001  0.001  0.049  0.051
   28  0.001  0.000  0.010  0.011
   29  0.000  0.000  0.011  0.011
   30  0.000  0.000  0.011  0.011
   31  0.000  0.000  0.011  0.011
   32  0.000  0.000  0.011  0.011
   33  0.000  0.000  0.011  0.011
   34  0.000  0.000  0.011  0.011
   35  0.002  0.001  0.005  0.008
   36  0.003  0.002  0.000  0.005