PROCAR new format
# of k-points:   10         # of bands:  252         # of ions:   38

 k-point     1 :    0.00000000 0.00000000 0.00000000     weight = 0.01562500

band     1 # energy  -21.80661774 # occ.  2.00000000
 
ion      s      p      d    tot
    1  0.000  0.000  0.000  0.000
    2  0.000  0.000  0.000  0.000
    3  0.000  0.000  0.000  0.000
    4  0.000  0.000  0.000  0.000
    5  0.000  0.000  0.000  0.000
    6  0.000  0.000  0.000  0.000
    7  0.000  0.000  0.000  0.000
    8  0.000  0.000  0.000  0.000
    9  0.000  0.000  0.000  0.000
   10  0.000  0.000  0.000  0.000
   11  0.000  0.000  0.000  0.000
   12  0.000  0.000  0.000  0.000
   13  0.000  0.000  0.000  0.000
   14  0.000  0.000  0.000  0.000
   15  0.000  0.000  0.000  0.000
   16  0.000  0.000  0.000  0.000
   17  0.000  0.000  0.000  0.000
   18  0.000  0.000  0.000  0.000
   19  0.000  0.000  0.000  0.000
   20  0.000  0.000  0.000  0.000
   21  0.000  0.000  0.000  0.000
   22  0.000  0.000  0.000  0.000
   23  0.000  0.000  0.000  0.000
   24  0.000  0.000  0.000  0.000
   25  0.000  0.000  0.000  0.000
   26  0.000  0.000  0.000  0.000
   27  0.000  0.000  0.000  0.000
   28  0.000  0.000  0.000  0.000
   29  0.000  0.000  0.000  0.000
   30  0.000  0.000  0.000  0.000
   31  0.000  0.000  0.000  0.000
   32  0.000  0.000  0.000  0.000
   33  0.000  0.000  0.000  0.000
   34  0.000  0.000  0.000  0.000
   35  0.000  0.000  0.000  0.000
   36  0.000  0.000  0.000  0.001
   37  0.155  0.109  0.000  0.264
   38  0.634  0.091  0.000  0.725
tot    0.790  0.201  0.000  0.990
 
band     2 # energy   -8.35118077 # occ.  2.00000000
 
ion      s      p      d    tot
    1  0.000  0.000  0.000  0.000
    2  0.000  0.000  0.000  0.000
    3  0.000  0.000  0.000  0.000
    4  0.000  0.000  0.000  0.000
    5  0.000  0.000  0.000  0.000
    6  0.000  0.000  0.000  0.000
    7  0.000  0.000  0.000  0.000
    8  0.000  0.000  0.000  0.000
    9  0.000  0.000  0.000  0.000
   10  0.000  0.000  0.000  0.000
   11  0.000  0.000  0.000  0.000
   12  0.000  0.000  0.000  0.000
   13  0.000  0.000  0.000  0.000
   14  0.000  0.000  0.000  0.000
   15  0.000  0.000  0.000  0.000
   16  0.000  0.000  0.000  0.000
   17  0.000  0.000  0.000  0.000
   18  0.000  0.000  0.000  0.000
   19  0.000  0.000  0.000  0.000
   20  0.002  0.001  0.002  0.004
   21  0.002  0.001  0.002  0.004
   22  0.000  0.000  0.000  0.000
   23  0.002  0.001  0.002  0.004
   24  0.000  0.000  0.000  0.000
   25  0.000  0.000  0.000  0.000
   26  0.000  0.000  0.000  0.000
   27  0.000  0.000  0.000  0.000
   28  0.000  0.000  0.000  0.000
   29  0.001  0.000  0.001  0.002
   30  0.001  0.000  0.001  0.002
   31  0.001  0.000  0.001  0.002
   32  0.001  0.000  0.001  0.002
   33  0.001  0.000  0.001  0.002
   34  0.001  0.000  0.001  0.002
   35  0.000  0.000  0.000  0.000
   36  0.094  0.035  0.122  0.251
   37  0.288  0.032  0.000  0.320
   38  0.107  0.107  0.000  0.214
tot    0.501  0.178  0.133  0.812
 
band     3 # energy   -6.37278475 # occ.  2.00000000
 
ion      s      p      d    tot
    1  0.005  0.001  0.000  0.006
    2  0.005  0.001  0.000  0.006
    3  0.005  0.001  0.000  0.006
    4  0.005  0.001  0.000  0.006
    5  0.005  0.001  0.000  0.006
    6  0.005  0.001  0.000  0.006
    7  0.005  0.001  0.000  0.006
    8  0.005  0.001  0.000  0.006
    9  0.005  0.000  0.000  0.006
   10  0.021  0.000  0.000  0.022
   11  0.021  0.000  0.000  0.022
   12  0.021  0.000  0.000  0.022
   13  0.021  0.000  0.000  0.022
   14  0.021  0.000  0.000  0.022
   15  0.020  0.000  0.000  0.021
   16  0.021  0.000  0.000  0.022
   17  0.020  0.000  0.000  0.021
   18  0.020  0.000  0.000  0.021
   19  0.020  0.000  0.000  0.021
   20  0.026  0.000  0.001  0.026
   21  0.026  0.000  0.001  0.026
   22  0.021  0.000  0.000  0.021
   23  0.026  0.000  0.001  0.026
   24  0.021  0.000  0.000  0.021
   25  0.020  0.000  0.000  0.021
   26  0.020  0.000  0.000  0.021
   27  0.021  0.000  0.000  0.021
   28  0.005  0.000  0.000  0.005
   29  0.005  0.001  0.000  0.006
   30  0.005  0.001  0.000  0.006
   31  0.005  0.001  0.000  0.006
   32  0.005  0.001  0.000  0.006
   33  0.005  0.001  0.000  0.006
   34  0.005  0.001  0.000  0.006
   35  0.005  0.000  0.000  0.005
   36  0.015  0.001  0.000  0.017
   37  0.004  0.008  0.000  0.012
   38  0.009  0.037  0.000  0.047
tot    0.505  0.057  0.008  0.571
 
band     4 # energy   -5.80492819 # occ.  2.00000000
 
ion      s      p      d    tot
    1  0.003  0.000  0.000  0.003
    2  0.004  0.000  0.000  0.004
    3  0.004  0.000  0.000  0.004
    4  0.004  0.000  0.000  0.004
    5  0.004  0.000  0.000  0.004
    6  0.004  0.000  0.000  0.004
    7  0.004  0.000  0.000  0.004
    8  0.004  0.000  0.000  0.004
    9  0.004  0.000  0.000  0.005
   10  0.005  0.000  0.004  0.009
   11  0.007  0.000  0.001  0.008
   12  0.005  0.000  0.004  0.009
   13  0.007  0.000  0.001  0.008
   14  0.007  0.000  0.001  0.008
   15  0.009  0.000  0.001  0.010
   16  0.005  0.000  0.004  0.009
   17  0.009  0.000  0.001  0.010
   18  0.009  0.000  0.001  0.010
   19  0.000  0.000  0.002  0.002
   20  0.002  0.002  0.017  0.022
   21  0.002  0.002  0.017  0.022
   22  0.001  0.000  0.001  0.002
   23  0.002  0.002  0.017  0.022
   24  0.001  0.000  0.001  0.002
   25  0.000  0.000  0.002  0.002
   26  0.000  0.000  0.002  0.002
   27  0.001  0.000  0.001  0.002
   28  0.000  0.000  0.001  0.001
   29  0.001  0.000  0.002  0.004
   30  0.001  0.000  0.002  0.004
   31  0.001  0.000  0.002  0.004
   32  0.001  0.000  0.002  0.004
   33  0.001  0.000  0.002  0.004
   34  0.001  0.000  0.002  0.004
   35  0.000  0.000  0.000  0.001
   36  0.069  0.003  0.057  0.129
   37  0.001  0.130  0.000  0.130
   38  0.045  0.289  0.000  0.334
tot    0.226  0.435  0.151  0.812
 
band     5 # energy   -5.40867573 # occ.  2.00000000
 
ion      s      p      d    tot
    1  0.006  0.000  0.000  0.007
    2  0.004  0.000  0.000  0.005
    3  0.004  0.000  0.000  0.005
    4  0.004  0.000  0.000  0.005
    5  0.004  0.000  0.000  0.004
    6  0.004  0.000  0.000  0.005
    7  0.004  0.000  0.000  0.005
    8  0.004  0.000  0.000  0.005
    9  0.004  0.000  0.000  0.004
   10  0.010  0.001  0.013  0.023
   11  0.006  0.001  0.018  0.025
   12  0.010  0.001  0.013  0.023
   13  0.006  0.001  0.018  0.025
   14  0.006  0.001  0.018  0.025
   15  0.005  0.001  0.017  0.022
   16  0.010  0.001  0.013  0.023
   17  0.005  0.001  0.017  0.022
   18  0.005  0.001  0.017  0.022
   19  0.014  0.001  0.021  0.036
   20  0.007  0.000  0.032  0.039
   21  0.007  0.000  0.032  0.039
   22  0.018  0.000  0.020  0.039
   23  0.007  0.000  0.032  0.039
   24  0.018  0.000  0.020  0.039
   25  0.014  0.001  0.021  0.036
   26  0.014  0.001  0.021  0.036
   27  0.018  0.000  0.020  0.039
   28  0.006  0.001  0.001  0.007
   29  0.003  0.001  0.001  0.005
   30  0.003  0.001  0.001  0.005
   31  0.003  0.001  0.001  0.005
   32  0.003  0.001  0.001  0.005
   33  0.003  0.001  0.001  0.005
   34  0.003  0.001  0.001  0.005
   35  0.006  0.001  0.000  0.007
   36  0.003  0.003  0.017  0.023
   37  0.001  0.022  0.000  0.022
   38  0.004  0.032  0.000  0.036
tot    0.258  0.075  0.387  0.721
 
band     6 # energy   -5.19109998 # occ.  2.00000000
 
ion      s      p      d    tot
    1  0.018  0.000  0.026  0.044
    2  0.015  0.000  0.023  0.038
    3  0.015  0.000  0.023  0.038
    4  0.015  0.000  0.023  0.038
    5  0.012  0.000  0.021  0.033
    6  0.015  0.000  0.023  0.038
    7  0.015  0.000  0.023  0.038
    8  0.015  0.000  0.023  0.038
    9  0.016  0.000  0.023  0.038
   10  0.000  0.000  0.026  0.027
   11  0.001  0.001  0.014  0.016
   12  0.000  0.000  0.026  0.027
   13  0.001  0.001  0.014  0.016
   14  0.001  0.001  0.014  0.016
   15  0.000  0.001  0.014  0.016
   16  0.000  0.000  0.026  0.027
   17  0.000  0.001  0.014  0.016
   18  0.000  0.001  0.014  0.016
   19  0.000  0.000  0.008  0.008
   20  0.000  0.000  0.021  0.021
   21  0.000  0.000  0.021  0.021
   22  0.001  0.000  0.006  0.007
   23  0.000  0.000  0.021  0.021
   24  0.001  0.000  0.006  0.007
   25  0.000  0.000  0.008  0.008
   26  0.000  0.000  0.008  0.008
   27  0.001  0.000  0.006  0.007
   28  0.006  0.000  0.005  0.011
   29  0.007  0.000  0.007  0.013
   30  0.007  0.000  0.007  0.013
   31  0.007  0.000  0.007  0.013
   32  0.007  0.000  0.007  0.013
   33  0.007  0.000  0.007  0.013
   34  0.007  0.000  0.007  0.013
   35  0.008  0.000  0.005  0.013
   36  0.003  0.000  0.019  0.022
   37  0.001  0.003  0.000  0.003
   38  0.000  0.002  0.000  0.002
tot    0.201  0.013  0.546  0.760
 
band     7 # energy   -5.11322622 # occ.  2.00000000
 
ion      s      p      d    tot
    1  0.000  0.000  0.006  0.006
    2  0.000  0.000  0.002  0.002
    3  0.000  0.000  0.001  0.001
    4  0.000  0.000  0.002  0.002
    5  0.000  0.000  0.001  0.001
    6  0.001  0.000  0.002  0.002
    7  0.000  0.000  0.001  0.001
    8  0.001  0.000  0.002  0.002
    9  0.000  0.000  0.002  0.002
   10  0.011  0.001  0.011  0.023
   11  0.000  0.001  0.014  0.015
   12  0.003  0.001  0.014  0.017
   13  0.000  0.001  0.014  0.015
   14  0.001  0.000  0.011  0.013
   15  0.001  0.000  0.015  0.016
   16  0.003  0.001  0.014  0.017
   17  0.001  0.000  0.015  0.016
   18  0.004  0.000  0.004  0.008
   19  0.003  0.001  0.018  0.021
   20  0.019  0.000  0.010  0.029
   21  0.005  0.000  0.054  0.059
   22  0.000  0.000  0.022  0.023
   23  0.005  0.000  0.055  0.059
   24  0.000  0.000  0.014  0.014
   25  0.012  0.000  0.018  0.030
   26  0.003  0.001  0.018  0.021
   27  0.000  0.000  0.022  0.023
   28  0.000  0.000  0.003  0.003
   29  0.000  0.000  0.008  0.008
   30  0.000  0.000  0.004  0.005
   31  0.000  0.000  0.008  0.008
   32  0.000  0.000  0.009  0.009
   33  0.000  0.000  0.004  0.005
   34  0.000  0.000  0.009  0.009
   35  0.000  0.000  0.001  0.001
   36  0.000  0.000  0.046  0.046
   37  0.000  0.072  0.000  0.072
   38  0.000  0.142  0.000  0.142
tot    0.074  0.224  0.454  0.752
 
band     8 # energy   -5.11318236 # occ.  2.00000000
 
ion      s      p      d    tot
    1  0.000  0.000  0.006  0.006
    2  0.000  0.000  0.001  0.002
    3  0.001  0.000  0.002  0.003
    4  0.000  0.000  0.001  0.002
    5  0.000  0.000  0.001  0.001
    6  0.000  0.000  0.002  0.002
    7  0.001  0.000  0.002  0.003
    8  0.000  0.000  0.002  0.002
    9  0.000  0.000  0.002  0.002
   10  0.000  0.000  0.015  0.015
   11  0.001  0.000  0.012  0.014
   12  0.009  0.001  0.012  0.021
   13  0.001  0.000  0.012  0.014
   14  0.000  0.001  0.015  0.016
   15  0.003  0.000  0.008  0.011
   16  0.009  0.001  0.012  0.021
   17  0.003  0.000  0.008  0.011
   18  0.000  0.000  0.019  0.019
   19  0.009  0.000  0.018  0.027
   20  0.000  0.000  0.069  0.069
   21  0.014  0.000  0.025  0.039
   22  0.000  0.000  0.017  0.017
   23  0.014  0.000  0.025  0.039
   24  0.000  0.001  0.025  0.026
   25  0.000  0.001  0.018  0.018
   26  0.009  0.000  0.018  0.027
   27  0.000  0.000  0.017  0.017
   28  0.000  0.000  0.003  0.003
   29  0.001  0.000  0.006  0.007
   30  0.000  0.000  0.010  0.010
   31  0.001  0.000  0.006  0.007
   32  0.000  0.000  0.005  0.005
   33  0.000  0.000  0.009  0.010
   34  0.000  0.000  0.005  0.006
   35  0.000  0.000  0.001  0.001
   36  0.000  0.000  0.046  0.046
   37  0.000  0.072  0.000  0.072
   38  0.000  0.142  0.000  0.142
tot    0.074  0.223  0.454  0.752
 
band     9 # energy   -5.06517291 # occ.  2.00000000
 
ion      s      p      d    tot
    1  0.000  0.000  0.003  0.003
    2  0.001  0.001  0.006  0.008
    3  0.000  0.000  0.003  0.003
    4  0.001  0.001  0.006  0.008
    5  0.000  0.000  0.009  0.009
    6  0.000  0.000  0.005  0.005
    7  0.000  0.000  0.002  0.003
    8  0.000  0.000  0.004  0.005
    9  0.000  0.000  0.003  0.003
   10  0.000  0.001  0.084  0.085
   11  0.023  0.001  0.029  0.053
   12  0.003  0.000  0.038  0.041
   13  0.021  0.001  0.034  0.055
   14  0.000  0.000  0.093  0.093
   15  0.009  0.001  0.032  0.042
   16  0.003  0.000  0.035  0.038
   17  0.009  0.001  0.030  0.039
   18  0.000  0.002  0.007  0.009
   19  0.002  0.000  0.019  0.022
   20  0.000  0.001  0.023  0.025
   21  0.005  0.001  0.031  0.036
   22  0.012  0.001  0.017  0.030
   23  0.005  0.001  0.031  0.037
   24  0.000  0.000  0.034  0.034
   25  0.000  0.000  0.041  0.041
   26  0.002  0.000  0.021  0.023
   27  0.012  0.001  0.016  0.029
   28  0.000  0.000  0.002  0.002
   29  0.000  0.000  0.002  0.002
   30  0.001  0.000  0.003  0.004
   31  0.000  0.000  0.002  0.002
   32  0.001  0.000  0.003  0.003
   33  0.001  0.000  0.003  0.004
   34  0.001  0.000  0.003  0.004
   35  0.000  0.000  0.006  0.006
   36  0.000  0.000  0.002  0.002
   37  0.000  0.000  0.000  0.000
   38  0.000  0.001  0.000  0.001
tot    0.113  0.017  0.679  0.809
 
band    10 # energy   -5.06516713 # occ.  2.00000000
 
ion      s      p      d    tot
    1  0.000  0.000  0.003  0.003
    2  0.000  0.000  0.003  0.003
    3  0.001  0.000  0.006  0.008
    4  0.000  0.000  0.002  0.003
    5  0.000  0.000  0.009  0.009
    6  0.001  0.000  0.004  0.006
    7  0.001  0.000  0.006  0.008
    8  0.001  0.001  0.005  0.006
    9  0.000  0.000  0.003  0.003
   10  0.003  0.000  0.021  0.025
   11  0.007  0.000  0.075  0.082
   12  0.001  0.001  0.066  0.068
   13  0.008  0.001  0.070  0.079
   14  0.029  0.001  0.011  0.041
   15  0.003  0.001  0.014  0.018
   16  0.001  0.001  0.070  0.071
   17  0.003  0.001  0.016  0.020
   18  0.012  0.000  0.039  0.052
   19  0.001  0.000  0.035  0.036
   20  0.007  0.000  0.034  0.041
   21  0.002  0.001  0.026  0.029
   22  0.004  0.001  0.027  0.032
   23  0.001  0.001  0.025  0.028
   24  0.016  0.001  0.011  0.028
   25  0.003  0.000  0.013  0.016
   26  0.001  0.000  0.033  0.034
   27  0.004  0.001  0.029  0.033
   28  0.000  0.000  0.002  0.002
   29  0.001  0.000  0.003  0.004
   30  0.000  0.000  0.002  0.002
   31  0.001  0.000  0.003  0.004
   32  0.000  0.000  0.002  0.003
   33  0.000  0.000  0.002  0.002
   34  0.000  0.000  0.002  0.003
   35  0.000  0.000  0.006  0.006
   36  0.000  0.000  0.002  0.002
   37  0.000  0.000  0.000  0.000
   38  0.000  0.001  0.000  0.001
tot    0.113  0.017  0.679  0.809
 
band    11 # energy   -5.05978990 # occ.  2.00000000
 
ion      s      p      d    tot
    1  0.000  0.000  0.001  0.001
    2  0.000  0.000  0.006  0.006
    3  0.000  0.000  0.006  0.006
    4  0.000  0.000  0.006  0.006
    5  0.004  0.001  0.003  0.007
    6  0.000  0.000  0.006  0.006
    7  0.000  0.000  0.006  0.006
    8  0.000  0.000  0.006  0.006
    9  0.003  0.001  0.007  0.011
   10  0.003  0.001  0.024  0.028
   11  0.016  0.001  0.017  0.034
   12  0.003  0.001  0.024  0.028
   13  0.016  0.001  0.017  0.034
   14  0.016  0.001  0.017  0.034
   15  0.006  0.000  0.069  0.075
   16  0.003  0.001  0.024  0.028
   17  0.006  0.000  0.069  0.075
   18  0.006  0.000  0.069  0.075
   19  0.006  0.000  0.034  0.041
   20  0.009  0.001  0.012  0.022
   21  0.009  0.001  0.012  0.022
   22  0.000  0.000  0.032  0.033
   23  0.009  0.001  0.012  0.022
   24  0.000  0.001  0.032  0.033
   25  0.007  0.000  0.034  0.041
   26  0.006  0.000  0.034  0.041
   27  0.000  0.000  0.032  0.033
   28  0.004  0.001  0.003  0.008
   29  0.000  0.000  0.004  0.004
   30  0.000  0.000  0.004  0.004
   31  0.000  0.000  0.004  0.004
   32  0.000  0.000  0.004  0.004
   33  0.000  0.000  0.004  0.004
   34  0.000  0.000  0.004  0.004
   35  0.001  0.000  0.003  0.004
   36  0.000  0.001  0.001  0.002
   37  0.000  0.001  0.000  0.001
   38  0.000  0.001  0.000  0.002
tot    0.133  0.021  0.645  0.799
 
band    12 # energy   -5.05578845 # occ.  2.00000000
 
ion      s      p      d    tot
    1  0.001  0.000  0.004  0.005
    2  0.002  0.000  0.010  0.012
    3  0.002  0.000  0.010  0.012
    4  0.002  0.000  0.010  0.012
    5  0.008  0.000  0.009  0.017
    6  0.002  0.000  0.010  0.012
    7  0.002  0.000  0.010  0.012
    8  0.002  0.000  0.010  0.012
    9  0.000  0.000  0.004  0.004
   10  0.002  0.001  0.003  0.005
   11  0.000  0.000  0.029  0.029
   12  0.002  0.001  0.003  0.005
   13  0.000  0.000  0.029  0.029
   14  0.000  0.000  0.029  0.029
   15  0.000  0.000  0.019  0.019
   16  0.002  0.001  0.003  0.005
   17  0.000  0.000  0.019  0.019
   18  0.000  0.000  0.019  0.019
   19  0.011  0.001  0.007  0.019
   20  0.001  0.000  0.076  0.077
   21  0.001  0.000  0.076  0.077
   22  0.005  0.000  0.052  0.058
   23  0.001  0.000  0.076  0.077
   24  0.005  0.000  0.052  0.058
   25  0.011  0.001  0.007  0.019
   26  0.011  0.001  0.007  0.019
   27  0.005  0.000  0.052  0.058
   28  0.000  0.001  0.006  0.007
   29  0.002  0.000  0.009  0.011
   30  0.002  0.000  0.010  0.011
   31  0.002  0.000  0.009  0.011
   32  0.001  0.000  0.009  0.011
   33  0.002  0.000  0.010  0.011
   34  0.001  0.000  0.009  0.011
   35  0.004  0.001  0.002  0.007
   36  0.007  0.000  0.008  0.016
   37  0.000  0.000  0.000  0.000
   38  0.000  0.001  0.000  0.001
tot    0.100  0.012  0.705  0.818
 
band    13 # energy   -5.04784801 # occ.  2.00000000
 
ion      s      p      d    tot
    1  0.001  0.001  0.014  0.017
    2  0.000  0.000  0.005  0.005
    3  0.000  0.000  0.005  0.005
    4  0.000  0.000  0.005  0.005
    5  0.000  0.000  0.006  0.007
    6  0.000  0.000  0.005  0.005
    7  0.000  0.000  0.005  0.005
    8  0.000  0.000  0.005  0.005
    9  0.002  0.001  0.003  0.005
   10  0.008  0.000  0.088  0.096
   11  0.000  0.000  0.070  0.070
   12  0.008  0.000  0.088  0.096
   13  0.000  0.000  0.070  0.070
   14  0.000  0.000  0.070  0.070
   15  0.011  0.001  0.009  0.021
   16  0.008  0.000  0.088  0.096
   17  0.011  0.001  0.009  0.021
   18  0.011  0.001  0.009  0.022
   19  0.001  0.000  0.019  0.021
   20  0.000  0.000  0.021  0.022
   21  0.000  0.000  0.021  0.022
   22  0.001  0.000  0.016  0.017
   23  0.000  0.000  0.021  0.022
   24  0.001  0.000  0.016  0.017
   25  0.001  0.000  0.019  0.021
   26  0.001  0.000  0.019  0.021
   27  0.001  0.000  0.016  0.017
   28  0.000  0.000  0.001  0.002
   29  0.000  0.000  0.004  0.004
   30  0.000  0.000  0.004  0.004
   31  0.000  0.000  0.004  0.004
   32  0.000  0.000  0.004  0.004
   33  0.000  0.000  0.004  0.004
   34  0.000  0.000  0.004  0.004
   35  0.000  0.000  0.000  0.000
   36  0.001  0.001  0.006  0.008
   37  0.000  0.003  0.000  0.003
   38  0.000  0.003  0.000  0.003
tot    0.068  0.017  0.755  0.840
 
band    14 # energy   -5.02532356 # occ.  2.00000000
 
ion      s      p      d    tot
    1  0.000  0.000  0.014  0.014
    2  0.002  0.000  0.005  0.007
    3  0.000  0.000  0.011  0.012
    4  0.002  0.000  0.005  0.007
    5  0.000  0.000  0.005  0.005
    6  0.003  0.001  0.008  0.012
    7  0.000  0.000  0.011  0.012
    8  0.003  0.001  0.008  0.012
    9  0.000  0.001  0.008  0.009
   10  0.000  0.001  0.052  0.053
   11  0.000  0.000  0.038  0.038
   12  0.013  0.000  0.041  0.054
   13  0.000  0.000  0.038  0.038
   14  0.000  0.001  0.031  0.031
   15  0.014  0.000  0.039  0.053
   16  0.012  0.000  0.042  0.054
   17  0.014  0.000  0.034  0.048
   18  0.000  0.000  0.135  0.135
   19  0.000  0.000  0.019  0.019
   20  0.000  0.000  0.022  0.022
   21  0.001  0.000  0.009  0.011
   22  0.002  0.000  0.021  0.023
   23  0.001  0.000  0.010  0.012
   24  0.000  0.000  0.012  0.012
   25  0.000  0.000  0.024  0.024
   26  0.000  0.000  0.019  0.019
   27  0.002  0.000  0.021  0.023
   28  0.000  0.000  0.008  0.008
   29  0.001  0.000  0.003  0.004
   30  0.002  0.000  0.004  0.007
   31  0.001  0.000  0.003  0.004
   32  0.000  0.000  0.003  0.004
   33  0.002  0.000  0.004  0.007
   34  0.000  0.000  0.003  0.003
   35  0.000  0.000  0.004  0.004
   36  0.000  0.000  0.006  0.006
   37  0.000  0.007  0.000  0.007
   38  0.000  0.014  0.000  0.014
tot    0.075  0.031  0.721  0.826
 
band    15 # energy   -5.02530803 # occ.  2.00000000
 
ion      s      p      d    tot
    1  0.000  0.000  0.014  0.014
    2  0.001  0.001  0.011  0.013
    3  0.003  0.001  0.005  0.009
    4  0.001  0.001  0.011  0.013
    5  0.000  0.000  0.005  0.005
    6  0.000  0.000  0.008  0.009
    7  0.003  0.001  0.005  0.009
    8  0.000  0.000  0.008  0.009
    9  0.000  0.001  0.008  0.009
   10  0.017  0.000  0.038  0.055
   11  0.000  0.000  0.033  0.033
   12  0.004  0.001  0.049  0.053
   13  0.000  0.000  0.033  0.033
   14  0.000  0.000  0.040  0.040
   15  0.005  0.000  0.099  0.105
   16  0.005  0.001  0.048  0.053
   17  0.004  0.000  0.105  0.109
   18  0.019  0.000  0.003  0.022
   19  0.000  0.000  0.022  0.022
   20  0.002  0.000  0.005  0.008
   21  0.000  0.000  0.018  0.019
   22  0.001  0.000  0.015  0.015
   23  0.001  0.000  0.018  0.018
   24  0.003  0.000  0.024  0.027
   25  0.000  0.000  0.017  0.018
   26  0.000  0.000  0.022  0.022
   27  0.001  0.000  0.015  0.016
   28  0.000  0.000  0.008  0.008
   29  0.001  0.000  0.004  0.006
   30  0.000  0.000  0.003  0.003
   31  0.001  0.000  0.004  0.005
   32  0.002  0.000  0.004  0.006
   33  0.000  0.000  0.003  0.003
   34  0.002  0.000  0.004  0.006
   35  0.000  0.000  0.004  0.004
   36  0.000  0.000  0.006  0.006
   37  0.000  0.007  0.000  0.007
   38  0.000  0.014  0.000  0.014
tot    0.075  0.031  0.721  0.826
 
band    16 # energy   -5.01174668 # occ.  2.00000000
 
ion      s      p      d    tot
    1  0.000  0.001  0.008  0.009
    2  0.002  0.000  0.013  0.015
    3  0.002  0.000  0.012  0.015
    4  0.002  0.000  0.013  0.015
    5  0.003  0.000  0.000  0.003
    6  0.002  0.000  0.013  0.015
    7  0.002  0.000  0.012  0.015
    8  0.002  0.000  0.013  0.015
    9  0.009  0.000  0.019  0.028
   10  0.005  0.000  0.009  0.014
   11  0.000  0.000  0.013  0.013
   12  0.005  0.000  0.008  0.014
   13  0.000  0.000  0.013  0.013
   14  0.000  0.000  0.013  0.013
   15  0.000  0.000  0.039  0.039
   16  0.005  0.000  0.008  0.014
   17  0.000  0.000  0.039  0.039
   18  0.000  0.000  0.039  0.039
   19  0.000  0.001  0.022  0.023
   20  0.005  0.000  0.020  0.025
   21  0.005  0.000  0.019  0.024
   22  0.000  0.000  0.045  0.045
   23  0.005  0.000  0.019  0.024
   24  0.000  0.000  0.045  0.045
   25  0.000  0.001  0.021  0.022
   26  0.000  0.001  0.022  0.023
   27  0.000  0.000  0.045  0.045
   28  0.010  0.000  0.002  0.012
   29  0.007  0.000  0.017  0.024
   30  0.007  0.000  0.016  0.023
   31  0.007  0.000  0.017  0.024
   32  0.007  0.000  0.016  0.023
   33  0.007  0.000  0.016  0.023
   34  0.007  0.000  0.016  0.023
   35  0.011  0.000  0.030  0.041
   36  0.002  0.001  0.006  0.009
   37  0.000  0.000  0.000  0.000
   38  0.000  0.001  0.000  0.001
tot    0.123  0.009  0.676  0.808
 
band    17 # energy   -5.01075670 # occ.  2.00000000
 
ion      s      p      d    tot
    1  0.000  0.000  0.003  0.003
    2  0.003  0.000  0.006  0.009
    3  0.001  0.000  0.009  0.010
    4  0.003  0.000  0.006  0.009
    5  0.000  0.000  0.011  0.012
    6  0.001  0.000  0.006  0.007
    7  0.001  0.000  0.009  0.010
    8  0.001  0.000  0.006  0.007
    9  0.000  0.000  0.018  0.018
   10  0.002  0.000  0.020  0.022
   11  0.001  0.000  0.045  0.045
   12  0.000  0.000  0.020  0.021
   13  0.001  0.000  0.044  0.045
   14  0.003  0.000  0.013  0.016
   15  0.000  0.000  0.027  0.027
   16  0.000  0.000  0.020  0.021
   17  0.000  0.000  0.027  0.027
   18  0.000  0.000  0.043  0.044
   19  0.001  0.000  0.057  0.058
   20  0.002  0.000  0.055  0.058
   21  0.001  0.000  0.020  0.021
   22  0.004  0.000  0.076  0.080
   23  0.001  0.000  0.020  0.021
   24  0.014  0.000  0.015  0.030
   25  0.004  0.000  0.015  0.019
   26  0.001  0.000  0.056  0.057
   27  0.003  0.000  0.077  0.081
   28  0.000  0.000  0.003  0.003
   29  0.000  0.000  0.007  0.007
   30  0.001  0.000  0.002  0.003
   31  0.000  0.000  0.007  0.007
   32  0.001  0.000  0.006  0.008
   33  0.001  0.000  0.002  0.003
   34  0.001  0.000  0.006  0.008
   35  0.000  0.000  0.008  0.008
   36  0.000  0.000  0.003  0.003
   37  0.000  0.005  0.000  0.005
   38  0.000  0.011  0.000  0.011
tot    0.051  0.022  0.772  0.844
 
band    18 # energy   -5.01068995 # occ.  2.00000000
 
ion      s      p      d    tot
    1  0.000  0.000  0.003  0.004
    2  0.000  0.000  0.008  0.008
    3  0.002  0.000  0.005  0.008
    4  0.000  0.000  0.008  0.008
    5  0.000  0.000  0.011  0.012
    6  0.002  0.000  0.008  0.010
    7  0.002  0.000  0.005  0.008
    8  0.002  0.000  0.008  0.010
    9  0.000  0.000  0.019  0.019
   10  0.000  0.000  0.020  0.020
   11  0.002  0.000  0.023  0.026
   12  0.002  0.000  0.021  0.022
   13  0.002  0.000  0.024  0.026
   14  0.000  0.000  0.055  0.055
   15  0.000  0.000  0.038  0.038
   16  0.002  0.000  0.021  0.022
   17  0.000  0.000  0.038  0.038
   18  0.000  0.000  0.022  0.022
   19  0.003  0.000  0.028  0.031
   20  0.000  0.000  0.008  0.008
   21  0.002  0.000  0.044  0.045
   22  0.010  0.000  0.036  0.047
   23  0.002  0.000  0.044  0.046
   24  0.000  0.000  0.097  0.097
   25  0.000  0.000  0.071  0.072
   26  0.003  0.000  0.029  0.032
   27  0.011  0.000  0.035  0.046
   28  0.000  0.000  0.003  0.003
   29  0.002  0.000  0.003  0.005
   30  0.001  0.000  0.008  0.009
   31  0.002  0.000  0.003  0.005
   32  0.000  0.000  0.004  0.004
   33  0.001  0.000  0.008  0.009
   34  0.000  0.000  0.004  0.004
   35  0.000  0.000  0.008  0.008
   36  0.000  0.000  0.003  0.003
   37  0.000  0.005  0.000  0.005
   38  0.000  0.010  0.000  0.010
tot    0.051  0.021  0.772  0.844
 
band    19 # energy   -4.99972609 # occ.  2.00000000
 
ion      s      p      d    tot
    1  0.000  0.000  0.009  0.009
    2  0.001  0.000  0.002  0.004
    3  0.001  0.000  0.003  0.003
    4  0.001  0.000  0.002  0.003
    5  0.000  0.000  0.004  0.004
    6  0.002  0.000  0.003  0.006
    7  0.000  0.000  0.003  0.003
    8  0.002  0.000  0.003  0.006
    9  0.000  0.000  0.002  0.003
   10  0.003  0.000  0.007  0.010
   11  0.001  0.000  0.007  0.009
   12  0.001  0.000  0.015  0.016
   13  0.001  0.000  0.004  0.005
   14  0.003  0.000  0.022  0.025
   15  0.000  0.000  0.009  0.009
   16  0.001  0.000  0.014  0.015
   17  0.000  0.000  0.010  0.010
   18  0.000  0.000  0.003  0.004
   19  0.005  0.000  0.026  0.031
   20  0.007  0.000  0.010  0.017
   21  0.001  0.000  0.073  0.074
   22  0.000  0.000  0.016  0.016
   23  0.002  0.000  0.061  0.064
   24  0.001  0.000  0.023  0.024
   25  0.014  0.000  0.018  0.032
   26  0.002  0.000  0.028  0.030
   27  0.000  0.000  0.017  0.018
   28  0.000  0.000  0.006  0.006
   29  0.002  0.000  0.003  0.006
   30  0.001  0.001  0.006  0.008
   31  0.003  0.000  0.003  0.006
   32  0.000  0.001  0.005  0.006
   33  0.002  0.001  0.006  0.008
   34  0.000  0.001  0.005  0.006
   35  0.000  0.000  0.002  0.002
   36  0.000  0.003  0.017  0.020
   37  0.000  0.076  0.000  0.076
   38  0.000  0.165  0.000  0.165
tot    0.057  0.253  0.450  0.759
 
band    20 # energy   -4.99972455 # occ.  2.00000000
 
ion      s      p      d    tot
    1  0.000  0.000  0.009  0.009
    2  0.001  0.000  0.003  0.004
    3  0.002  0.000  0.003  0.005
    4  0.002  0.000  0.003  0.005
    5  0.000  0.000  0.004  0.004
    6  0.000  0.000  0.002  0.003
    7  0.002  0.000  0.003  0.005
    8  0.000  0.000  0.002  0.002
    9  0.000  0.000  0.002  0.002
   10  0.000  0.000  0.017  0.017
   11  0.002  0.000  0.015  0.017
   12  0.002  0.000  0.009  0.011
   13  0.002  0.000  0.018  0.021
   14  0.000  0.000  0.000  0.001
   15  0.000  0.000  0.006  0.006
   16  0.002  0.000  0.010  0.012
   17  0.000  0.000  0.005  0.005
   18  0.000  0.000  0.011  0.011
   19  0.009  0.000  0.022  0.031
   20  0.000  0.000  0.086  0.086
   21  0.006  0.000  0.024  0.029
   22  0.000  0.000  0.022  0.022
   23  0.005  0.000  0.035  0.040
   24  0.000  0.001  0.014  0.015
   25  0.000  0.001  0.029  0.030
   26  0.011  0.000  0.020  0.032
   27  0.000  0.000  0.020  0.021
   28  0.000  0.000  0.006  0.006
   29  0.000  0.001  0.006  0.008
   30  0.002  0.000  0.003  0.005
   31  0.000  0.001  0.006  0.007
   32  0.003  0.000  0.004  0.007
   33  0.001  0.000  0.004  0.005
   34  0.002  0.000  0.005  0.008
   35  0.000  0.000  0.002  0.002
   36  0.000  0.003  0.017  0.020
   37  0.000  0.077  0.000  0.077
   38  0.000  0.166  0.000  0.166
tot    0.056  0.254  0.449  0.759
 
band    21 # energy   -4.96536150 # occ.  2.00000000
 
ion      s      p      d    tot
    1  0.009  0.000  0.003  0.012
    2  0.000  0.000  0.010  0.010
    3  0.000  0.000  0.010  0.010
    4  0.000  0.000  0.010  0.010
    5  0.002  0.001  0.010  0.013
    6  0.000  0.000  0.010  0.010
    7  0.000  0.000  0.010  0.010
    8  0.000  0.000  0.010  0.010
    9  0.000  0.000  0.000  0.000
   10  0.001  0.000  0.016  0.017
   11  0.003  0.000  0.034  0.037
   12  0.001  0.000  0.016  0.017
   13  0.003  0.000  0.034  0.037
   14  0.003  0.000  0.034  0.037
   15  0.002  0.000  0.016  0.018
   16  0.001  0.000  0.016  0.017