 vasp.6.2.0 18Jan21 (build Jun 12 2021 23:27:24) complex                        
  
 executed on             LinuxIFC date 2022.05.27  06:01:02
 running on   28 total cores
 distrk:  each k-point on   28 cores,    1 groups
 distr:  one band on NCORE=   1 cores,   28 groups


--------------------------------------------------------------------------------------------------------


 INCAR:
   ISMEAR = -5
   SIGMA = 0.1
   ISPIN = 1
   EDIFF = 1.d-5
   EDIFFG = -0.01
   NSW = 0
   NELM = 150
   ENCUT = 500
   ISIF = 2
   IBRION = 2
   LREAL = Auto
   ALGO = Fast
   ICHARG = 11
   LORBIT = 10
   LCHARG = .F.
   LWAVE = .F.

 POTCAR:    PAW_PBE Cu 22Jun2005                  
 POTCAR:    PAW_PBE Mn 06Sep2000                  
 POTCAR:    PAW_PBE H 15Jun2001                   
 -----------------------------------------------------------------------------
|                                                                             |
|           W    W    AA    RRRRR   N    N  II  N    N   GGGG   !!!           |
|           W    W   A  A   R    R  NN   N  II  NN   N  G    G  !!!           |
|           W    W  A    A  R    R  N N  N  II  N N  N  G       !!!           |
|           W WW W  AAAAAA  RRRRR   N  N N  II  N  N N  G  GGG   !            |
|           WW  WW  A    A  R   R   N   NN  II  N   NN  G    G                |
|           W    W  A    A  R    R  N    N  II  N    N   GGGG   !!!           |
|                                                                             |
|     For optimal performance we recommend to set                             |
|       NCORE = 2 up to number-of-cores-per-socket                            |
|     NCORE specifies how many cores store one orbital (NPAR=cpu/NCORE).      |
|     This setting can greatly improve the performance of VASP for DFT.       |
|     The default, NCORE=1 might be grossly inefficient on modern             |
|     multi-core architectures or massively parallel machines. Do your        |
|     own testing! More info at https://www.vasp.at/wiki/index.php/NCORE      |
|     Unfortunately you need to use the default for GW and RPA                |
|     calculations (for HF NCORE is supported but not extensively tested      |
|     yet).                                                                   |
|                                                                             |
 -----------------------------------------------------------------------------

 POTCAR:    PAW_PBE Cu 22Jun2005                  
   VRHFIN =Cu: d10 p1                                                                               
   LEXCH  = PE                                                                                      
   EATOM  =  1390.9808 eV,  102.2342 Ry                                                             
                                                                                                    
   TITEL  = PAW_PBE Cu 22Jun2005                                                                    
   LULTRA =        F    use ultrasoft PP ?                                                          
   IUNSCR =        1    unscreen: 0-lin 1-nonlin 2-no                                               
   RPACOR =    2.000    partial core radius                                                         
   POMASS =   63.546; ZVAL   =   11.000    mass and valenz                                          
   RCORE  =    2.300    outmost cutoff radius                                                       
   RWIGS  =    2.200; RWIGS  =    1.164    wigner-seitz radius (au A)                               
   ENMAX  =  295.446; ENMIN  =  221.585 eV                                                          
   ICORE  =        3    local potential                                                             
   LCOR   =        T    correct aug charges                                                         
   LPAW   =        T    paw PP                                                                      
   EAUG   =  586.980                                                                                
   DEXC   =    0.000                                                                                
   RMAX   =    2.344    core radius for proj-oper                                                   
   RAUG   =    1.300    factor for augmentation sphere                                              
   RDEP   =    2.302    radius for radial grids                                                     
   RDEPT  =    1.771    core radius for aug-charge                                                  
                                                                                                    
   Atomic configuration                                                                             
    9 entries                                                                                       
     n  l   j            E        occ.                                                              
     1  0  0.50     -8850.2468   2.0000                                                             
     2  0  0.50     -1062.3498   2.0000                                                             
     2  1  1.50      -916.8226   6.0000                                                             
     3  0  0.50      -114.6929   2.0000                                                             
     3  1  1.50       -72.1325   6.0000                                                             
     3  2  2.50        -5.0394  10.0000                                                             
     4  0  0.50        -4.6097   1.0000                                                             
     4  1  0.50        -4.0817   0.0000                                                             
     4  3  2.50        -1.3606   0.0000                                                             
   Description                                                                                      
     l       E           TYP  RCUT    TYP  RCUT                                                     
     2     -5.0393973     23  2.200                                                                 
     2     10.8846608     23  2.200                                                                 
     0     -4.6097109     23  2.200                                                                 
     0      8.2520465     23  2.200                                                                 
     1     -2.7211652     23  2.200                                                                 
     1     21.7055443     23  2.200                                                                 
     3      2.7211652     23  2.300                                                                 
  local pseudopotential read in
  partial core-charges read in
  partial kinetic energy density read in
  atomic valenz-charges read in
  non local Contribution for L=           2  read in
    real space projection operators read in
  non local Contribution for L=           2  read in
    real space projection operators read in
  non local Contribution for L=           0  read in
    real space projection operators read in
  non local Contribution for L=           0  read in
    real space projection operators read in
  non local Contribution for L=           1  read in
    real space projection operators read in
  non local Contribution for L=           1  read in
    real space projection operators read in
    PAW grid and wavefunctions read in
 
   number of l-projection  operators is LMAX  =           6
   number of lm-projection operators is LMMAX =          18
 
 POTCAR:    PAW_PBE Mn 06Sep2000                  
   VRHFIN =Mn: d6 s1                                                                                
   LEXCH  = PE                                                                                      
   EATOM  =   416.7541 eV,   30.6306 Ry                                                             
                                                                                                    
   TITEL  = PAW_PBE Mn 06Sep2000                                                                    
   LULTRA =        F    use ultrasoft PP ?                                                          
   IUNSCR =        1    unscreen: 0-lin 1-nonlin 2-no                                               
   RPACOR =    2.000    partial core radius                                                         
   POMASS =   54.938; ZVAL   =    7.000    mass and valenz                                          
   RCORE  =    2.300    outmost cutoff radius                                                       
   RWIGS  =    2.500; RWIGS  =    1.323    wigner-seitz radius (au A)                               
   ENMAX  =  269.864; ENMIN  =  202.398 eV                                                          
   RCLOC  =    1.725    cutoff for local pot                                                        
   LCOR   =        T    correct aug charges                                                         
   LPAW   =        T    paw PP                                                                      
   EAUG   =  500.711                                                                                
   DEXC   =    0.000                                                                                
   RMAX   =    2.343    core radius for proj-oper                                                   
   RAUG   =    1.300    factor for augmentation sphere                                              
   RDEP   =    2.338    radius for radial grids                                                     
   RDEPT  =    1.911    core radius for aug-charge                                                  
                                                                                                    
   Atomic configuration                                                                             
    9 entries                                                                                       
     n  l   j            E        occ.                                                              
     1  0  0.50     -6424.8288   2.0000                                                             
     2  0  0.50      -739.1154   2.0000                                                             
     2  1  1.50      -625.3949   6.0000                                                             
     3  0  0.50       -81.6100   2.0000                                                             
     3  1  1.50       -50.4667   6.0000                                                             
     3  2  2.50        -3.3745   6.0000                                                             
     4  0  0.50        -4.1331   1.0000                                                             
     4  1  0.50        -4.0817   0.0000                                                             
     4  3  2.50        -1.3606   0.0000                                                             
   Description                                                                                      
     l       E           TYP  RCUT    TYP  RCUT                                                     
     2     -3.3744664     23  2.300                                                                 
     2     -4.7350490     23  2.300                                                                 
     0     -4.1331408     23  2.300                                                                 
     0      7.6656614     23  2.300                                                                 
     1     -2.7211652     23  2.300                                                                 
     1     20.4087390     23  2.300                                                                 
  local pseudopotential read in
  partial core-charges read in
  partial kinetic energy density read in
  atomic valenz-charges read in
  non local Contribution for L=           2  read in
    real space projection operators read in
  non local Contribution for L=           2  read in
    real space projection operators read in
  non local Contribution for L=           0  read in
    real space projection operators read in
  non local Contribution for L=           0  read in
    real space projection operators read in
  non local Contribution for L=           1  read in
    real space projection operators read in
  non local Contribution for L=           1  read in
    real space projection operators read in
    PAW grid and wavefunctions read in
 
   number of l-projection  operators is LMAX  =           6
   number of lm-projection operators is LMMAX =          18
 
 POTCAR:    PAW_PBE H 15Jun2001                   
   VRHFIN =H: ultrasoft test                                                                        
   LEXCH  = PE                                                                                      
   EATOM  =    12.4884 eV,    0.9179 Ry                                                             
                                                                                                    
   TITEL  = PAW_PBE H 15Jun2001                                                                     
   LULTRA =        F    use ultrasoft PP ?                                                          
   IUNSCR =        0    unscreen: 0-lin 1-nonlin 2-no                                               
   RPACOR =    0.000    partial core radius                                                         
   POMASS =    1.000; ZVAL   =    1.000    mass and valenz                                          
   RCORE  =    1.100    outmost cutoff radius                                                       
   RWIGS  =    0.700; RWIGS  =    0.370    wigner-seitz radius (au A)                               
   ENMAX  =  250.000; ENMIN  =  200.000 eV                                                          
   RCLOC  =    0.701    cutoff for local pot                                                        
   LCOR   =        T    correct aug charges                                                         
   LPAW   =        T    paw PP                                                                      
   EAUG   =  400.000                                                                                
   RMAX   =    1.123    core radius for proj-oper                                                   
   RAUG   =    1.200    factor for augmentation sphere                                              
   RDEP   =    1.112    radius for radial grids                                                     
   RDEPT  =    0.926    core radius for aug-charge                                                  
                                                                                                    
   Atomic configuration                                                                             
    2 entries                                                                                       
     n  l   j            E        occ.                                                              
     1  0  0.50        -6.4927   1.0000                                                             
     2  1  0.50        -3.4015   0.0000                                                             
   Description                                                                                      
     l       E           TYP  RCUT    TYP  RCUT                                                     
     0     -6.4927494     23  1.100                                                                 
     0      6.8029130     23  1.100                                                                 
     1     -4.0817478     23  1.100                                                                 
  local pseudopotential read in
  atomic valenz-charges read in
  non local Contribution for L=           0  read in
    real space projection operators read in
  non local Contribution for L=           0  read in
    real space projection operators read in
  non local Contribution for L=           1  read in
    real space projection operators read in
    PAW grid and wavefunctions read in
 
   number of l-projection  operators is LMAX  =           3
   number of lm-projection operators is LMMAX =           5
 
 Optimization of the real space projectors (new method)

 maximal supplied QI-value         = 16.25
 optimisation between [QCUT,QGAM] = [ 11.38, 22.75] = [ 36.24,144.96] Ry 
 Optimized for a Real-space Cutoff    1.52 Angstroem

   l    n(q)    QCUT    max X(q) W(low)/X(q) W(high)/X(q)  e(spline) 
   2      9    11.376     4.610    0.21E-03    0.10E-03    0.26E-06
   2      9    11.376     8.522    0.33E-03    0.16E-03    0.37E-06
   0     10    11.376    51.609    0.62E-04    0.20E-04    0.13E-06
   0     10    11.376    27.747    0.54E-04    0.20E-04    0.13E-06
   1     10    11.376    20.408    0.13E-04    0.99E-04    0.19E-06
   1     10    11.376    13.425    0.12E-04    0.87E-04    0.17E-06
 Optimization of the real space projectors (new method)

 maximal supplied QI-value         = 16.25
 optimisation between [QCUT,QGAM] = [ 11.38, 22.75] = [ 36.24,144.96] Ry 
 Optimized for a Real-space Cutoff    1.39 Angstroem

   l    n(q)    QCUT    max X(q) W(low)/X(q) W(high)/X(q)  e(spline) 
   2      8    11.376   110.144    0.49E-03    0.27E-04    0.26E-06
   2      8    11.376   103.200    0.49E-03    0.28E-04    0.27E-06
   0      9    11.376    68.437    0.57E-04    0.92E-04    0.15E-06
   0      9    11.376    33.971    0.51E-04    0.83E-04    0.14E-06
   1      9    11.376    17.065    0.34E-03    0.68E-04    0.14E-06
   1      9    11.376    12.540    0.27E-03    0.59E-04    0.11E-06
 Optimization of the real space projectors (new method)

 maximal supplied QI-value         = 34.20
 optimisation between [QCUT,QGAM] = [ 11.29, 22.57] = [ 35.68,142.71] Ry 
 Optimized for a Real-space Cutoff    1.16 Angstroem

   l    n(q)    QCUT    max X(q) W(low)/X(q) W(high)/X(q)  e(spline) 
   0      8    11.287    19.460    0.40E-03    0.73E-03    0.16E-06
   0      8    11.287    12.209    0.38E-03    0.70E-03    0.15E-06
   1      7    11.287     4.655    0.22E-03    0.25E-04    0.22E-06
  PAW_PBE Cu 22Jun2005                  :
 energy of atom  1       EATOM=-1390.9808
 kinetic energy error for atom=    0.0043 (will be added to EATOM!!)
  PAW_PBE Mn 06Sep2000                  :
 energy of atom  2       EATOM= -416.7541
 kinetic energy error for atom=    0.0024 (will be added to EATOM!!)
  PAW_PBE H 15Jun2001                   :
 energy of atom  3       EATOM=  -12.4884
 kinetic energy error for atom=    0.0020 (will be added to EATOM!!)
 
 
 POSCAR: Cu-Mn-H2
  positions in direct lattice
  velocities in cartesian coordinates
 exchange correlation table for  LEXCH =        8
   RHO(1)=    0.500       N(1)  =     2000
   RHO(2)=  100.500       N(2)  =     4000

 VTST: version 3.2, (02/03/18)

 CHAIN: initializing optimizer
 
 OPT: Using VASP Conjugate-Gradient optimizer
 CHAIN: Read ICHAIN            0
 
 POSCAR: Cu-Mn-H2
  positions in direct lattice
  velocities in cartesian coordinates
 


--------------------------------------------------------------------------------------------------------


 ion  position               nearest neighbor table
   1  0.000  0.000  0.252-   7 2.57   3 2.57   4 2.57   2 2.57   6 2.57   8 2.57  12 2.57  10 2.57
                            16 2.57
   2  0.333  0.000  0.252-   8 2.57   9 2.57   5 2.57   1 2.57   3 2.57  11 2.57   4 2.57  10 2.57
                            17 2.57
   3  0.667  0.000  0.252-   1 2.57   7 2.57   6 2.57   9 2.57   2 2.57  12 2.57   5 2.57  18 2.57
                            11 2.57
   4  0.000  0.333  0.252-   5 2.57   6 2.57   1 2.57   7 2.57   2 2.57  13 2.57   9 2.57  10 2.57
                            15 2.57
   5  0.333  0.333  0.252-   4 2.57   2 2.57   7 2.57  13 2.57   8 2.57   6 2.57   3 2.57  11 2.57
                            14 2.57
   6  0.667  0.333  0.252-   4 2.57   9 2.57  15 2.57   3 2.57   1 2.57   8 2.57  14 2.57   5 2.57
                            12 2.57
   7  0.000  0.667  0.252-   1 2.57   3 2.57  16 2.57  18 2.57   4 2.57   5 2.57   8 2.57   9 2.57
                            13 2.57
   8  0.333  0.667  0.252-   9 2.57   2 2.57  17 2.57   6 2.57   1 2.57   7 2.57   5 2.57  14 2.57
                            16 2.57
   9  0.667  0.667  0.252-   8 2.57   6 2.57   2 2.57  17 2.57   3 2.57   7 2.57   4 2.57  15 2.57
                            18 2.57
  10  0.111  0.111  0.351-  20 2.55  26 2.56  19 2.56  11 2.57  12 2.57  13 2.57   1 2.57   2 2.57
                             4 2.57  15 2.57  16 2.57  17 2.57
  11  0.444  0.111  0.351-  20 2.55  21 2.55  27 2.56  10 2.57  13 2.57   2 2.57  17 2.57  14 2.57
                            12 2.57   5 2.57   3 2.57  18 2.57
  12  0.778  0.111  0.351-  21 2.55  19 2.56  25 2.56  15 2.57  10 2.57  14 2.57  18 2.57   3 2.57
                             1 2.57  16 2.57  11 2.57   6 2.57
  13  0.111  0.444  0.351-  23 2.55  20 2.55  22 2.56  16 2.57  18 2.57  10 2.57  11 2.57  14 2.57
                             5 2.57   4 2.57   7 2.57  15 2.57
  14  0.444  0.444  0.351-  21 2.55  23 2.55  24 2.56  15 2.57  17 2.57  12 2.57  16 2.57  13 2.57
                            11 2.57   6 2.57   8 2.57   5 2.57
  15  0.778  0.444  0.351-  19 2.56  24 2.56  22 2.56  14 2.57  17 2.57  12 2.57   6 2.57  18 2.57
                            10 2.57   9 2.57  13 2.57   4 2.57
  16  0.111  0.778  0.351-  23 2.55  25 2.56  26 2.56  18 2.57  13 2.57   7 2.57  14 2.57  17 2.57
                            12 2.57  10 2.57   8 2.57   1 2.57
  17  0.444  0.778  0.351-  26 2.56  27 2.56  24 2.56  14 2.57  15 2.57   8 2.57   9 2.57  11 2.57
                            16 2.57  18 2.57  10 2.57   2 2.57
  18  0.778  0.778  0.351-  25 2.56  22 2.56  27 2.56  16 2.57  13 2.57   7 2.57  15 2.57  12 2.57
                            17 2.57   9 2.57   3 2.57  11 2.57
  19  0.889  0.222  0.449-  28 2.55  15 2.56  12 2.56  10 2.56  22 2.56  24 2.56  21 2.57  20 2.57
                            25 2.57  26 2.57  32 2.57  31 2.57
  20  0.222  0.222  0.448-  36 2.48  11 2.55  13 2.55  10 2.55  29 2.56  31 2.56  23 2.56  21 2.56
                            26 2.57  19 2.57  27 2.57  22 2.57
  21  0.555  0.222  0.448-  36 2.48  14 2.55  11 2.55  12 2.55  32 2.56  30 2.56  20 2.56  23 2.56
                            19 2.57  25 2.57  24 2.57  27 2.57
  22  0.888  0.556  0.449-  35 2.55  24 2.56  27 2.56  31 2.56  33 2.56  18 2.56  15 2.56  13 2.56
                            19 2.56  25 2.56  23 2.57  20 2.57
  23  0.222  0.555  0.448-  36 2.48  13 2.55  14 2.55  16 2.55  33 2.56  34 2.56  20 2.56  21 2.56
                            25 2.57  26 2.57  22 2.57  24 2.57
  24  0.556  0.556  0.449-  35 2.55  22 2.56  27 2.56  32 2.56  34 2.56  15 2.56  17 2.56  14 2.56
                            19 2.56  26 2.56  21 2.57  23 2.57
  25  0.889  0.889  0.449-  28 2.55  18 2.56  16 2.56  12 2.56  22 2.56  27 2.56  21 2.57  23 2.57
                            19 2.57  26 2.57  33 2.57  30 2.57
  26  0.222  0.889  0.449-  28 2.55  17 2.56  10 2.56  16 2.56  27 2.56  24 2.56  20 2.57  23 2.57
                            25 2.57  19 2.57  29 2.57  34 2.57
  27  0.556  0.888  0.449-  35 2.55  24 2.56  22 2.56  29 2.56  30 2.56  17 2.56  18 2.56  11 2.56
                            26 2.56  25 2.56  20 2.57  21 2.57
  28  0.000  0.000  0.547-  25 2.55  19 2.55  26 2.55  33 2.58  30 2.58  31 2.58  29 2.58  32 2.58
                            34 2.58
  29  0.333  0.003  0.547-  31 2.54  36 2.55  30 2.55  20 2.56  27 2.56  26 2.57  28 2.58  35 2.58
                            34 2.61
  30  0.664  0.003  0.547-  32 2.54  36 2.55  29 2.55  21 2.56  27 2.56  25 2.57  28 2.58  35 2.58
                            33 2.61
  31  0.003  0.333  0.547-  29 2.54  36 2.55  33 2.55  20 2.56  22 2.56  19 2.57  28 2.58  35 2.58
                            32 2.61
  32  0.664  0.333  0.547-  30 2.54  36 2.55  34 2.55  21 2.56  24 2.56  19 2.57  28 2.58  35 2.58
                            31 2.61
  33  0.003  0.664  0.547-  34 2.54  36 2.55  31 2.55  23 2.56  22 2.56  25 2.57  28 2.58  35 2.58
                            30 2.61
  34  0.333  0.664  0.547-  33 2.54  36 2.55  32 2.55  23 2.56  24 2.56  26 2.57  28 2.58  35 2.58
                            29 2.61
  35  0.667  0.667  0.547-  24 2.55  27 2.55  22 2.55  34 2.58  32 2.58  29 2.58  30 2.58  33 2.58
                            31 2.58
  36  0.333  0.333  0.542-  37 1.62  38 1.62  23 2.48  20 2.48  21 2.48  31 2.55  29 2.55  33 2.55
                            34 2.55  32 2.55  30 2.55
  37  0.275  0.328  0.615-  36 1.62
  38  0.398  0.328  0.615-  36 1.62
 
  LATTYP: Found a hexagonal cell.
 ALAT       =     7.6967864036
 C/A-ratio  =     2.7653617908
  
  Lattice vectors:
  
 A1 = (  -3.8483927580,  -6.6656128093,   0.0000000000)
 A2 = (   7.6967864037,   0.0000000000,   0.0000000000)
 A3 = (   0.0000000000,   0.0000000000,  21.2843990326)


Analysis of symmetry for initial positions (statically):
=====================================================================
 Subroutine PRICEL returns:
 Original cell was already a primitive cell.
 

 Routine SETGRP: Setting up the symmetry group for a 
 hexagonal supercell.


 Subroutine GETGRP returns: Found  2 space group operations
 (whereof  2 operations were pure point group operations)
 out of a pool of 24 trial point group operations.


The static configuration has the point symmetry C_1h.


Analysis of symmetry for dynamics (positions and initial velocities):
=====================================================================
 Subroutine PRICEL returns:
 Original cell was already a primitive cell.
 

 Routine SETGRP: Setting up the symmetry group for a 
 hexagonal supercell.


 Subroutine GETGRP returns: Found  2 space group operations
 (whereof  2 operations were pure point group operations)
 out of a pool of 24 trial point group operations.


The dynamic configuration has the point symmetry C_1h.


Analysis of constrained symmetry for selective dynamics:
=====================================================================
 Subroutine PRICEL returns:
 Original cell was already a primitive cell.
 

 Routine SETGRP: Setting up the symmetry group for a 
 hexagonal supercell.


 Subroutine GETGRP returns: Found  2 space group operations
 (whereof  2 operations were pure point group operations)
 out of a pool of 24 trial point group operations.


The constrained configuration has the point symmetry C_1h.


 Subroutine INISYM returns: Found  2 space group operations
 (whereof  2 operations are pure point group operations),
 and found     1 'primitive' translations


----------------------------------------------------------------------------------------

                                     Primitive cell                                     

  volume of cell :    1091.9705

  direct lattice vectors                    reciprocal lattice vectors
     7.696786404  0.000000000  0.000000000     0.129924354 -0.075011849  0.000000000
     3.848392758  6.665612809  0.000000000     0.000000000  0.150023716  0.000000000
     0.000000000  0.000000000 21.284399033     0.000000000  0.000000000  0.046982769

  length of vectors
     7.696786404  7.696786404 21.284399033     0.150023716  0.150023716  0.046982769

  position of ions in fractional coordinates (direct lattice)
     0.000000000  0.000000000  0.252370745
     0.333333343  0.000000000  0.252370745
     0.666666687  0.000000000  0.252370745
     1.000000000  0.333333343  0.252370745
     0.333333313  0.333333343  0.252370745
     0.666666687  0.333333343  0.252370745
     1.000000000  0.666666687  0.252370745
     0.333333373  0.666666687  0.252370745
     0.666666627  0.666666687  0.252370745
     0.111111119  0.111111112  0.350790262
     0.444444418  0.111111112  0.350790262
     0.777777791  0.111111112  0.350790262
     0.111111119  0.444444448  0.350790262
     0.444444478  0.444444448  0.350790262
     0.777777731  0.444444448  0.350790262
     0.111111112  0.777777731  0.350790262
     0.444444478  0.777777731  0.350790262
     0.777777851  0.777777731  0.350790262
     0.888776270  0.222447477  0.448839029
     0.222356541  0.222356526  0.448338169
     0.555286979  0.222356526  0.448338169
     0.888337319  0.555831311  0.449008239
     0.222356511  0.555286919  0.448338169
     0.555831371  0.555831311  0.449008239
     0.888776270  0.888776270  0.448839029
     0.222447492  0.888776270  0.448839029
     0.555831311  0.888337319  0.449008239
     0.000000000  0.000000000  0.546511688
     0.333090090  0.002964472  0.547023975
     0.663945468  0.002964472  0.547023975
     0.002964472  0.333090090  0.547023975
     0.663945468  0.333090090  0.547023975
     0.002964472  0.663945468  0.547023975
     0.333090120  0.663945468  0.547023975
     0.666666627  0.666666687  0.546599055
     0.333333313  0.333333343  0.541665393
     0.274736178  0.327664795  0.614588828
     0.397598996  0.327664795  0.614588828

  ion indices of the primitive-cell ions
   primitive index   ion index
                 1           1
                 2           2
                 3           3
                 4           4
                 5           5
                 6           6
                 7           7
                 8           8
                 9           9
                10          10
                11          11
                12          12
                13          13
                14          14
                15          15
                16          16
                17          17
                18          18
                19          19
                20          20
                21          21
                22          22
                23          23
                24          24
                25          25
                26          26
                27          27
                28          28
                29          29
                30          30
                31          31
                32          32
                33          33
                34          34
                35          35
                36          36
                37          37
                38          38

----------------------------------------------------------------------------------------

 
 
 KPOINTS: Automatic mesh                          

Automatic generation of k-mesh.
 Grid dimensions read from file:
 generate k-points for:    8    8    1

 Generating k-lattice:

  Cartesian coordinates                     Fractional coordinates (reciprocal lattice)
     0.016240544 -0.009376481  0.000000000     0.125000000 -0.000000000  0.000000000
     0.000000000  0.018752964  0.000000000     0.000000000  0.125000000  0.000000000
     0.000000000  0.000000000  0.046982769     0.000000000  0.000000000  1.000000000

  Length of vectors
     0.018752964  0.018752964  0.046982769

  Shift w.r.t. Gamma in fractional coordinates (k-lattice)
     0.000000000  0.000000000  0.000000000

 TETIRR: Found    100 inequivalent tetrahedra from      384
 
 Subroutine IBZKPT returns following result:
 ===========================================
 
 Found     21 irreducible k-points:
 
 Following reciprocal coordinates:
            Coordinates               Weight
  0.000000  0.000000  0.000000      1.000000
  0.125000 -0.000000  0.000000      4.000000
  0.000000  0.125000  0.000000      2.000000
  0.250000 -0.000000  0.000000      4.000000
  0.000000  0.250000  0.000000      2.000000
  0.375000 -0.000000  0.000000      4.000000
  0.000000  0.375000  0.000000      2.000000
  0.500000 -0.000000  0.000000      2.000000
  0.000000  0.500000  0.000000      1.000000
  0.250000  0.125000  0.000000      2.000000
  0.125000  0.250000  0.000000      4.000000
  0.375000  0.125000  0.000000      4.000000
  0.250000  0.375000  0.000000      4.000000
 -0.125000  0.250000  0.000000      4.000000
  0.500000  0.125000  0.000000      4.000000
  0.375000  0.500000  0.000000      4.000000
 -0.125000  0.375000  0.000000      4.000000
  0.500000  0.250000  0.000000      2.000000
  0.250000  0.500000  0.000000      4.000000
 -0.375000  0.250000  0.000000      4.000000
 -0.250000  0.375000  0.000000      2.000000
 
 Following cartesian coordinates:
            Coordinates               Weight
  0.000000  0.000000  0.000000      1.000000
  0.016241 -0.009376  0.000000      4.000000
  0.000000  0.018753  0.000000      2.000000
  0.032481 -0.018753  0.000000      4.000000
  0.000000  0.037506  0.000000      2.000000
  0.048722 -0.028129  0.000000      4.000000
  0.000000  0.056259  0.000000      2.000000
  0.064962 -0.037506  0.000000      2.000000
  0.000000  0.075012  0.000000      1.000000
  0.032481  0.000000  0.000000      2.000000
  0.016241  0.028129  0.000000      4.000000
  0.048722 -0.009376  0.000000      4.000000
  0.032481  0.037506  0.000000      4.000000
 -0.016241  0.046882  0.000000      4.000000
  0.064962 -0.018753  0.000000      4.000000
  0.048722  0.046882  0.000000      4.000000
 -0.016241  0.065635  0.000000      4.000000
  0.064962  0.000000  0.000000      2.000000
  0.032481  0.056259  0.000000      4.000000
 -0.048722  0.065635  0.000000      4.000000
 -0.032481  0.075012  0.000000      2.000000
 


--------------------------------------------------------------------------------------------------------




 Dimension of arrays:
   k-points           NKPTS =     21   k-points in BZ     NKDIM =     21   number of bands    NBANDS=    252
   number of dos      NEDOS =    301   number of ions     NIONS =     38
   non local maximal  LDIM  =      6   non local SUM 2l+1 LMDIM =     18
   total plane-waves  NPLWV = 211680
   max r-space proj   IRMAX =   2893   max aug-charges    IRDMAX=   7326
   dimension x,y,z NGX =    42 NGY =   42 NGZ =  120
   dimension x,y,z NGXF=    84 NGYF=   84 NGZF=  240
   support grid    NGXF=    84 NGYF=   84 NGZF=  240
   ions per type =              35   1   2
   NGX,Y,Z   is equivalent  to a cutoff of   9.07,  9.07,  9.37 a.u.
   NGXF,Y,Z  is equivalent  to a cutoff of  18.14, 18.14, 18.75 a.u.

 SYSTEM =  unknown system                          
 POSCAR =  Cu-Mn-H2                                

 Startparameter for this run:
   NWRITE =      2    write-flag & timer
   PREC   = normal    normal or accurate (medium, high low for compatibility)
   ISTART =      0    job   : 0-new  1-cont  2-samecut
   ICHARG =     11    charge: 1-file 2-atom 10-const
   ISPIN  =      1    spin polarized calculation?
   LNONCOLLINEAR =      F non collinear calculations
   LSORBIT =      F    spin-orbit coupling
   INIWAV =      1    electr: 0-lowe 1-rand  2-diag
   LASPH  =      F    aspherical Exc in radial PAW
   METAGGA=      F    non-selfconsistent MetaGGA calc.

 Electronic Relaxation 1
   ENCUT  =  500.0 eV  36.75 Ry    6.06 a.u.  14.03 14.03 38.81*2*pi/ulx,y,z
   ENINI  =  500.0     initial cutoff
   ENAUG  =  587.0 eV  augmentation charge cutoff
   NELM   =    150;   NELMIN=  2; NELMDL= -5     # of ELM steps 
   EDIFF  = 0.1E-04   stopping-criterion for ELM
   LREAL  =      T    real-space projection
   NLSPLINE    = F    spline interpolate recip. space projectors
   LCOMPAT=      F    compatible to vasp.4.4
   GGA_COMPAT  = T    GGA compatible to vasp.4.4-vasp.4.6
   LMAXPAW     = -100 max onsite density
   LMAXMIX     =    2 max onsite mixed and CHGCAR
   VOSKOWN=      0    Vosko Wilk Nusair interpolation
   ROPT   =   -0.00050  -0.00050  -0.00050
 Ionic relaxation
   EDIFFG = -.1E-01   stopping-criterion for IOM
   NSW    =      0    number of steps for IOM
   NBLOCK =      1;   KBLOCK =      1    inner block; outer block 
   IBRION =     -1    ionic relax: 0-MD 1-quasi-New 2-CG
   NFREE  =      1    steps in history (QN), initial steepest desc. (CG)
   ISIF   =      2    stress and relaxation
   IWAVPR =     10    prediction:  0-non 1-charg 2-wave 3-comb
   ISYM   =      2    0-nonsym 1-usesym 2-fastsym
   LCORR  =      T    Harris-Foulkes like correction to forces

   POTIM  = 0.5000    time-step for ionic-motion
   TEIN   =    0.0    initial temperature
   TEBEG  =    0.0;   TEEND  =   0.0 temperature during run
   SMASS  =  -3.00    Nose mass-parameter (am)
   estimated Nose-frequenzy (Omega)   =  0.10E-29 period in steps = 0.13E+47 mass=  -0.135E-26a.u.
   SCALEE = 1.0000    scale energy and forces
   NPACO  =    256;   APACO  = 16.0  distance and # of slots for P.C.
   PSTRESS=    0.0 pullay stress

  Mass of Ions in am
   POMASS =  63.55 54.94  1.00
  Ionic Valenz
   ZVAL   =  11.00  7.00  1.00
  Atomic Wigner-Seitz radii
   RWIGS  =  -1.00 -1.00 -1.00
  virtual crystal weights 
   VCA    =   1.00  1.00  1.00
   NELECT =     394.0000    total number of electrons
   NUPDOWN=      -1.0000    fix difference up-down

 DOS related values:
   EMIN   =  10.00;   EMAX   =-10.00  energy-range for DOS
   EFERMI =   0.00
   ISMEAR =    -5;   SIGMA  =   0.10  broadening in eV -4-tet -1-fermi 0-gaus

 Electronic relaxation 2 (details)
   IALGO  =     68    algorithm
   LDIAG  =      T    sub-space diagonalisation (order eigenvalues)
   LSUBROT=      F    optimize rotation matrix (better conditioning)
   TURBO    =      0    0=normal 1=particle mesh
   IRESTART =      0    0=no restart 2=restart with 2 vectors
   NREBOOT  =      0    no. of reboots
   NMIN     =      0    reboot dimension
   EREF     =   0.00    reference energy to select bands
   IMIX   =      4    mixing-type and parameters
     AMIX     =   0.40;   BMIX     =  1.00
     AMIX_MAG =   1.60;   BMIX_MAG =  1.00
     AMIN     =   0.10
     WC   =   100.;   INIMIX=   1;  MIXPRE=   1;  MAXMIX= -45

 Intra band minimization:
   WEIMIN = 0.0000     energy-eigenvalue tresh-hold
   EBREAK =  0.99E-08  absolut break condition
   DEPER  =   0.30     relativ break condition  

   TIME   =   0.40     timestep for ELM

  volume/ion in A,a.u.               =      28.74       193.92
  Fermi-wavevector in a.u.,A,eV,Ry     =   1.165476  2.202430 18.481255  1.358334
  Thomas-Fermi vector in A             =   2.302001
 
 Write flags
   LWAVE        =      F    write WAVECAR
   LDOWNSAMPLE  =      F    k-point downsampling of WAVECAR
   LCHARG       =      F    write CHGCAR
   LVTOT        =      F    write LOCPOT, total local potential
   LVHAR        =      F    write LOCPOT, Hartree potential only
   LELF         =      F    write electronic localiz. function (ELF)
   LORBIT       =     10    0 simple, 1 ext, 2 COOP (PROOUT), +10 PAW based schemes


 Dipole corrections
   LMONO  =      F    monopole corrections only (constant potential shift)
   LDIPOL =      F    correct potential (dipole corrections)
   IDIPOL =      0    1-x, 2-y, 3-z, 4-all directions 
   EPSILON=  1.0000000 bulk dielectric constant

 Exchange correlation treatment:
   GGA     =    --    GGA type
   LEXCH   =     8    internal setting for exchange type
   VOSKOWN=      0    Vosko Wilk Nusair interpolation
   LHFCALC =     F    Hartree Fock is set to
   LHFONE  =     F    Hartree Fock one center treatment
   AEXX    =    0.0000 exact exchange contribution

 Linear response parameters
   LEPSILON=     F    determine dielectric tensor
   LRPA    =     F    only Hartree local field effects (RPA)
   LNABLA  =     F    use nabla operator in PAW spheres
   LVEL    =     F    velocity operator in full k-point grid
   LINTERFAST=   F  fast interpolation
   KINTER  =     0    interpolate to denser k-point grid
   CSHIFT  =0.1000    complex shift for real part using Kramers Kronig
   OMEGAMAX=  -1.0    maximum frequency
   DEG_THRESHOLD= 0.2000000E-02 threshold for treating states as degnerate
   RTIME   =   -0.100 relaxation time in fs
  (WPLASMAI=    0.000 imaginary part of plasma frequency in eV, 0.658/RTIME)
   DFIELD  = 0.0000000 0.0000000 0.0000000 field for delta impulse in time
 
 Orbital magnetization related:
   ORBITALMAG=     F  switch on orbital magnetization
   LCHIMAG   =     F  perturbation theory with respect to B field
   DQ        =  0.001000  dq finite difference perturbation B field
   LLRAUG    =     F  two centre corrections for induced B field



--------------------------------------------------------------------------------------------------------


 Static calculation
 charge density and potential remain constant during run
 non-spin polarized calculation
 RMM-DIIS sequential band-by-band and
  variant of blocked Davidson during initial phase
 perform sub-space diagonalisation
    before iterative eigenvector-optimisation
 no mixing
 using additional bands           55
 real space projection scheme for non local part
 use partial core corrections
 calculate Harris-corrections to forces 
   (improved forces if not selfconsistent)
 use gradient corrections 
 WARNING: stress and forces are not correct
  (second derivative of E(xc) not defined)
 use of overlap-Matrix (Vanderbilt PP)
 Fermi weights with tetrahedron method with Bloechl corrections


--------------------------------------------------------------------------------------------------------


  energy-cutoff  :      500.00
  volume of cell :     1091.97
      direct lattice vectors                 reciprocal lattice vectors
     7.696786404  0.000000000  0.000000000     0.129924354 -0.075011849  0.000000000
     3.848392758  6.665612809  0.000000000     0.000000000  0.150023716  0.000000000
     0.000000000  0.000000000 21.284399033     0.000000000  0.000000000  0.046982769

  length of vectors
     7.696786404  7.696786404 21.284399033     0.150023716  0.150023716  0.046982769


 
 k-points in units of 2pi/SCALE and weight: Automatic mesh                          
   0.00000000  0.00000000  0.00000000       0.016
   0.01624054 -0.00937648  0.00000000       0.062
   0.00000000  0.01875296  0.00000000       0.031
   0.03248109 -0.01875296  0.00000000       0.062
   0.00000000  0.03750593  0.00000000       0.031
   0.04872163 -0.02812944  0.00000000       0.062
   0.00000000  0.05625889  0.00000000       0.031
   0.06496218 -0.03750592  0.00000000       0.031
   0.00000000  0.07501186  0.00000000       0.016
   0.03248109  0.00000000  0.00000000       0.031
   0.01624054  0.02812945  0.00000000       0.062
   0.04872163 -0.00937648  0.00000000       0.062
   0.03248109  0.03750593  0.00000000       0.062
  -0.01624054  0.04688241  0.00000000       0.062
   0.06496218 -0.01875296  0.00000000       0.062
   0.04872163  0.04688241  0.00000000       0.062
  -0.01624054  0.06563537  0.00000000       0.062
   0.06496218  0.00000000  0.00000000       0.031
   0.03248109  0.05625890  0.00000000       0.062
  -0.04872163  0.06563537  0.00000000       0.062
  -0.03248109  0.07501186  0.00000000       0.031
 
 k-points in reciprocal lattice and weights: Automatic mesh                          
   0.00000000  0.00000000  0.00000000       0.016
   0.12500000 -0.00000000  0.00000000       0.062
   0.00000000  0.12500000  0.00000000       0.031
   0.25000000 -0.00000000  0.00000000       0.062
   0.00000000  0.25000000  0.00000000       0.031
   0.37500000 -0.00000000  0.00000000       0.062
   0.00000000  0.37500000  0.00000000       0.031
   0.50000000 -0.00000000  0.00000000       0.031
   0.00000000  0.50000000  0.00000000       0.016
   0.25000000  0.12500000  0.00000000       0.031
   0.12500000  0.25000000  0.00000000       0.062
   0.37500000  0.12500000  0.00000000       0.062
   0.25000000  0.37500000  0.00000000       0.062
  -0.12500000  0.25000000  0.00000000       0.062
   0.50000000  0.12500000  0.00000000       0.062
   0.37500000  0.50000000  0.00000000       0.062
  -0.12500000  0.37500000  0.00000000       0.062
   0.50000000  0.25000000  0.00000000       0.031
   0.25000000  0.50000000  0.00000000       0.062
  -0.37500000  0.25000000  0.00000000       0.062
  -0.25000000  0.37500000  0.00000000       0.031
 
 position of ions in fractional coordinates (direct lattice) 
   0.00000000  0.00000000  0.25237075
   0.33333334  0.00000000  0.25237075
   0.66666669  0.00000000  0.25237075
   0.00000000  0.33333334  0.25237075
   0.33333331  0.33333334  0.25237075
   0.66666669  0.33333334  0.25237075
   0.00000000  0.66666669  0.25237075
   0.33333337  0.66666669  0.25237075
   0.66666663  0.66666669  0.25237075
   0.11111112  0.11111111  0.35079026
   0.44444442  0.11111111  0.35079026
   0.77777779  0.11111111  0.35079026
   0.11111112  0.44444445  0.35079026
   0.44444448  0.44444445  0.35079026
   0.77777773  0.44444445  0.35079026
   0.11111111  0.77777773  0.35079026
   0.44444448  0.77777773  0.35079026
   0.77777785  0.77777773  0.35079026
   0.88877627  0.22244748  0.44883903
   0.22235654  0.22235653  0.44833817
   0.55528698  0.22235653  0.44833817
   0.88833732  0.55583131  0.44900824
   0.22235651  0.55528692  0.44833817
   0.55583137  0.55583131  0.44900824
   0.88877627  0.88877627  0.44883903
   0.22244749  0.88877627  0.44883903
   0.55583131  0.88833732  0.44900824
   0.00000000  0.00000000  0.54651169
   0.33309009  0.00296447  0.54702398
   0.66394547  0.00296447  0.54702398
   0.00296447  0.33309009  0.54702398
   0.66394547  0.33309009  0.54702398
   0.00296447  0.66394547  0.54702398
   0.33309012  0.66394547  0.54702398
   0.66666663  0.66666669  0.54659906
   0.33333331  0.33333334  0.54166539
   0.27473618  0.32766480  0.61458883
   0.39759900  0.32766480  0.61458883
 
 position of ions in cartesian coordinates  (Angst):
   0.00000000  0.00000000  5.37155964
   2.56559554  0.00000000  5.37155964
   5.13119109  0.00000000  5.37155964
   1.28279762  2.22187100  5.37155964
   3.84839293  2.22187100  5.37155964
   6.41398872  2.22187100  5.37155964
   2.56559525  4.44374201  5.37155964
   5.13119102  4.44374201  5.37155964
   7.69678588  4.44374201  5.37155964
   1.28279775  0.74062365  7.46635991
   3.84839295  0.74062365  7.46635991
   6.41398873  0.74062365  7.46635991
   2.56559535  2.96249461  7.46635991
   5.13119101  2.96249461  7.46635991
   7.69678586  2.96249461  7.46635991
   3.84839268  5.18436521  7.46635991
   6.41398840  5.18436521  7.46635991
   8.97958418  5.18436521  7.46635991
   7.69678637  1.48274875  9.55326900
   2.56714604  1.48214251  9.54260849
   5.12964051  1.48214251  9.54260849
   8.97639979  3.70495630  9.55687053
   3.84839272  3.70132760  9.54260849
   6.41717253  3.70495630  9.55687053
  10.26108127  5.92423849  9.55326900
   5.13249099  5.92423849  9.55326900
   7.69678578  5.92131261  9.55687053
   0.00000000  0.00000000 11.63217284
   2.57513173  0.01976003 11.64307657
   5.12165490  0.01976003 11.64307657
   1.30467840  2.22024957 11.64307657
   6.39210794  2.22024957 11.64307657
   2.57793984  4.42560341 11.64307657
   5.11884644  4.42560341 11.64307657
   7.69678588  4.44374201 11.63403240
   3.84839293  2.22187100 11.52902236
   3.37556851  2.18408666 13.08115386
   4.32121737  2.18408666 13.08115386
 


--------------------------------------------------------------------------------------------------------


 k-point   1 :   0.0000 0.0000 0.0000  plane waves:   27671
 k-point   2 :   0.1250-0.0000 0.0000  plane waves:   27649
 k-point   3 :   0.0000 0.1250 0.0000  plane waves:   27649
 k-point   4 :   0.2500-0.0000 0.0000  plane waves:   27714
 k-point   5 :   0.0000 0.2500 0.0000  plane waves:   27714
 k-point   6 :   0.3750-0.0000 0.0000  plane waves:   27740
 k-point   7 :   0.0000 0.3750 0.0000  plane waves:   27740
 k-point   8 :   0.5000-0.0000 0.0000  plane waves:   27782
 k-point   9 :   0.0000 0.5000 0.0000  plane waves:   27782
 k-point  10 :   0.2500 0.1250 0.0000  plane waves:   27698
 k-point  11 :   0.1250 0.2500 0.0000  plane waves:   27698
 k-point  12 :   0.3750 0.1250 0.0000  plane waves:   27702
 k-point  13 :   0.2500 0.3750 0.0000  plane waves:   27702
 k-point  14 :  -0.1250 0.2500 0.0000  plane waves:   27702
 k-point  15 :   0.5000 0.1250 0.0000  plane waves:   27747
 k-point  16 :   0.3750 0.5000 0.0000  plane waves:   27747
 k-point  17 :  -0.1250 0.3750 0.0000  plane waves:   27747
 k-point  18 :   0.5000 0.2500 0.0000  plane waves:   27734
 k-point  19 :   0.2500 0.5000 0.0000  plane waves:   27734
 k-point  20 :  -0.3750 0.2500 0.0000  plane waves:   27782
 k-point  21 :  -0.2500 0.3750 0.0000  plane waves:   27782

 maximum and minimum number of plane-waves per node :     27782    27649

 maximum number of plane-waves:     27782
 maximum index in each direction: 
   IXMAX=   14   IYMAX=   14   IZMAX=   38
   IXMIN=  -14   IYMIN=  -14   IZMIN=  -38


 serial   3D FFT for wavefunctions
 parallel 3D FFT for charge:
    minimum data exchange during FFTs selected (reduces bandwidth)


 total amount of memory used by VASP MPI-rank0   149637. kBytes
=======================================================================

   base      :      30000. kBytes
   nonlr-proj:      17630. kBytes
   fftplans  :       2916. kBytes
   grid      :      12390. kBytes
   one-center:        590. kBytes
   wavefun   :      86111. kBytes
 
     INWAV:  cpu time    0.0000: real time    0.0000
 initial charge density was supplied:
 number of electron     394.0000052 magnetization 
 keeping initial charge density in first step


--------------------------------------------------------------------------------------------------------


 Maximum index for non-local projection operator         2777
 Maximum index for augmentation-charges          405 (set IRDMAX)


--------------------------------------------------------------------------------------------------------


 First call to EWALD:  gamma=   0.172
 Maximum number of real-space cells 4x 4x 2
 Maximum number of reciprocal cells 2x 2x 5

    FEWALD:  cpu time    0.0013: real time    0.0013


--------------------------------------- Iteration      1(   1)  ---------------------------------------


    POTLOK:  cpu time    0.0285: real time    0.0289
    SETDIJ:  cpu time    0.0040: real time    0.0041
     EDDAV:  cpu time   11.9993: real time   12.0011
 BZINTS: Fermi energy:   13.419190;  394.000000 electrons
         Band energy: 0.258544E+04;  BLOECHL correction:   -0.016716
       DOS:  cpu time    0.0297: real time    0.0297
    --------------------------------------------
      LOOP:  cpu time   12.0616: real time   12.0639

 eigenvalue-minimisations  : 10584
 total energy-change (2. order) : 0.3510427E+04  (-0.1685458E+05)
 number of electron     394.0000052 magnetization 
 augmentation part      394.0000052 magnetization 

 Free energy of the ion-electron system (eV)
  ---------------------------------------------------
  alpha Z        PSCENC =       869.81559769
  Ewald energy   TEWEN  =    147007.56869501
  -Hartree energ DENC   =   -193875.73652284
  -exchange      EXHF   =         0.00000000
  -V(xc)+E(xc)   XCENC  =      1550.82157756
  PAW double counting   =     46161.51037020   -49914.89209054
  entropy T*S    EENTRO =         0.00000000
  eigenvalues    EBANDS =      2585.43609729
  atomic energy  EATOM  =     49125.90365311
  Solvation  Ediel_sol  =         0.00000000
  ---------------------------------------------------
  free energy    TOTEN  =      3510.42737748 eV

  energy without entropy =     3510.42737748  energy(sigma->0) =     3510.42737748


--------------------------------------------------------------------------------------------------------




--------------------------------------- Iteration      1(   2)  ---------------------------------------


     EDDAV:  cpu time   11.9810: real time   11.9812
 BZINTS: Fermi energy:    2.900519;  394.000000 electrons
         Band energy:-0.602563E+03;  BLOECHL correction:   -0.016114
       DOS:  cpu time    0.0286: real time    0.0286
    --------------------------------------------
      LOOP:  cpu time   12.0096: real time   12.0098

 eigenvalue-minimisations  : 10584
 total energy-change (2. order) :-0.3187999E+04  (-0.3054175E+04)
 number of electron     394.0000052 magnetization 
 augmentation part      394.0000052 magnetization 

 Free energy of the ion-electron system (eV)
  ---------------------------------------------------
  alpha Z        PSCENC =       869.81559769
  Ewald energy   TEWEN  =    147007.56869501
  -Hartree energ DENC   =   -193875.73652284
  -exchange      EXHF   =         0.00000000
  -V(xc)+E(xc)   XCENC  =      1550.82157756
  PAW double counting   =     46161.51037020   -49914.89209054
  entropy T*S    EENTRO =         0.00000000
  eigenvalues    EBANDS =      -602.56271818
  atomic energy  EATOM  =     49125.90365311
  Solvation  Ediel_sol  =         0.00000000
  ---------------------------------------------------
  free energy    TOTEN  =       322.42856200 eV

  energy without entropy =      322.42856200  energy(sigma->0) =      322.42856200


--------------------------------------------------------------------------------------------------------




--------------------------------------- Iteration      1(   3)  ---------------------------------------


     EDDAV:  cpu time   12.6561: real time   12.6563
 BZINTS: Fermi energy:    0.188706;  394.000000 electrons
         Band energy:-0.104088E+04;  BLOECHL correction:   -0.026225
       DOS:  cpu time    0.0284: real time    0.0284
    --------------------------------------------
      LOOP:  cpu time   12.6845: real time   12.6847

 eigenvalue-minimisations  : 11340
 total energy-change (2. order) :-0.4383215E+03  (-0.4047930E+03)
 number of electron     394.0000052 magnetization 
 augmentation part      394.0000052 magnetization 

 Free energy of the ion-electron system (eV)
  ---------------------------------------------------
  alpha Z        PSCENC =       869.81559769
  Ewald energy   TEWEN  =    147007.56869501
  -Hartree energ DENC   =   -193875.73652284
  -exchange      EXHF   =         0.00000000
  -V(xc)+E(xc)   XCENC  =      1550.82157756
  PAW double counting   =     46161.51037020   -49914.89209054
  entropy T*S    EENTRO =         0.00000000
  eigenvalues    EBANDS =     -1040.88420056
  atomic energy  EATOM  =     49125.90365311
  Solvation  Ediel_sol  =         0.00000000
  ---------------------------------------------------
  free energy    TOTEN  =      -115.89292038 eV

  energy without entropy =     -115.89292038  energy(sigma->0) =     -115.89292038


--------------------------------------------------------------------------------------------------------




--------------------------------------- Iteration      1(   4)  ---------------------------------------


     EDDAV:  cpu time   13.0811: real time   13.0814
 BZINTS: Fermi energy:    0.108760;  394.000000 electrons
         Band energy:-0.106126E+04;  BLOECHL correction:   -0.027353
       DOS:  cpu time    0.0307: real time    0.0307
    --------------------------------------------
      LOOP:  cpu time   13.1118: real time   13.1121

 eigenvalue-minimisations  : 11788
 total energy-change (2. order) :-0.2038025E+02  (-0.2023929E+02)
 number of electron     394.0000052 magnetization 
 augmentation part      394.0000052 magnetization 

 Free energy of the ion-electron system (eV)
  ---------------------------------------------------
  alpha Z        PSCENC =       869.81559769
  Ewald energy   TEWEN  =    147007.56869501
  -Hartree energ DENC   =   -193875.73652284
  -exchange      EXHF   =         0.00000000
  -V(xc)+E(xc)   XCENC  =      1550.82157756
  PAW double counting   =     46161.51037020   -49914.89209054
  entropy T*S    EENTRO =         0.00000000
  eigenvalues    EBANDS =     -1061.26444849
  atomic energy  EATOM  =     49125.90365311
  Solvation  Ediel_sol  =         0.00000000
  ---------------------------------------------------
  free energy    TOTEN  =      -136.27316830 eV

  energy without entropy =     -136.27316830  energy(sigma->0) =     -136.27316830


--------------------------------------------------------------------------------------------------------




--------------------------------------- Iteration      1(   5)  ---------------------------------------


     EDDAV:  cpu time   13.1253: real time   13.1340
 BZINTS: Fermi energy:    0.107174;  394.000000 electrons
         Band energy:-0.106168E+04;  BLOECHL correction:   -0.027391
       DOS:  cpu time    0.0306: real time    0.0306
    --------------------------------------------
      LOOP:  cpu time   13.1559: real time   13.1646

 eigenvalue-minimisations  : 11844
 total energy-change (2. order) :-0.4116071E+00  (-0.4114856E+00)
 number of electron     394.0000052 magnetization 
 augmentation part      394.0000052 magnetization 

 Free energy of the ion-electron system (eV)
  ---------------------------------------------------
  alpha Z        PSCENC =       869.81559769
  Ewald energy   TEWEN  =    147007.56869501
  -Hartree energ DENC   =   -193875.73652284
  -exchange      EXHF   =         0.00000000
  -V(xc)+E(xc)   XCENC  =      1550.82157756
  PAW double counting   =     46161.51037020   -49914.89209054
  entropy T*S    EENTRO =         0.00000000
  eigenvalues    EBANDS =     -1061.67605562
  atomic energy  EATOM  =     49125.90365311
  Solvation  Ediel_sol  =         0.00000000
  ---------------------------------------------------
  free energy    TOTEN  =      -136.68477544 eV

  energy without entropy =     -136.68477544  energy(sigma->0) =     -136.68477544


--------------------------------------------------------------------------------------------------------




--------------------------------------- Iteration      1(   6)  ---------------------------------------


    EDDIAG:  cpu time    2.2030: real time    2.2033
  RMM-DIIS:  cpu time    6.4515: real time    6.4516
    ORTHCH:  cpu time    0.4364: real time    0.4364
 BZINTS: Fermi energy:    0.107120;  394.000000 electrons
         Band energy:-0.106169E+04;  BLOECHL correction:   -0.027388
       DOS:  cpu time    0.0306: real time    0.0306
    --------------------------------------------
      LOOP:  cpu time    9.1214: real time    9.1219

 eigenvalue-minimisations  : 11359
 total energy-change (2. order) :-0.1326642E-01  (-0.1326857E-01)
 number of electron     394.0000052 magnetization 
 augmentation part      394.0000052 magnetization 

 Free energy of the ion-electron system (eV)
  ---------------------------------------------------
  alpha Z        PSCENC =       869.81559769
  Ewald energy   TEWEN  =    147007.56869501
  -Hartree energ DENC   =   -193875.73652284
  -exchange      EXHF   =         0.00000000
  -V(xc)+E(xc)   XCENC  =      1550.82157756
  PAW double counting   =     46161.51037020   -49914.89209054
  entropy T*S    EENTRO =         0.00000000
  eigenvalues    EBANDS =     -1061.68932205
  atomic energy  EATOM  =     49125.90365311
  Solvation  Ediel_sol  =         0.00000000
  ---------------------------------------------------
  free energy    TOTEN  =      -136.69804186 eV

  energy without entropy =     -136.69804186  energy(sigma->0) =     -136.69804186


--------------------------------------------------------------------------------------------------------




--------------------------------------- Iteration      1(   7)  ---------------------------------------


    EDDIAG:  cpu time    2.2047: real time    2.2049
  RMM-DIIS:  cpu time    9.3395: real time    9.3396
    ORTHCH:  cpu time    0.4354: real time    0.4355
 BZINTS: Fermi energy:    0.107099;  394.000000 electrons
         Band energy:-0.106170E+04;  BLOECHL correction:   -0.027387
       DOS:  cpu time    0.0307: real time    0.0307
    --------------------------------------------
      LOOP:  cpu time   12.0103: real time   12.0106

 eigenvalue-minimisations  : 16489
 total energy-change (2. order) :-0.6026702E-02  (-0.6001561E-02)
 number of electron     394.0000052 magnetization 
 augmentation part      394.0000052 magnetization 

 Free energy of the ion-electron system (eV)
  ---------------------------------------------------
  alpha Z        PSCENC =       869.81559769
  Ewald energy   TEWEN  =    147007.56869501
  -Hartree energ DENC   =   -193875.73652284
  -exchange      EXHF   =         0.00000000
  -V(xc)+E(xc)   XCENC  =      1550.82157756
  PAW double counting   =     46161.51037020   -49914.89209054
  entropy T*S    EENTRO =         0.00000000
  eigenvalues    EBANDS =     -1061.69534875
  atomic energy  EATOM  =     49125.90365311
  Solvation  Ediel_sol  =         0.00000000
  ---------------------------------------------------
  free energy    TOTEN  =      -136.70406856 eV

  energy without entropy =     -136.70406856  energy(sigma->0) =     -136.70406856


--------------------------------------------------------------------------------------------------------




--------------------------------------- Iteration      1(   8)  ---------------------------------------


    EDDIAG:  cpu time    2.2043: real time    2.2045
  RMM-DIIS:  cpu time    7.1169: real time    7.1169
    ORTHCH:  cpu time    0.4364: real time    0.4364
 BZINTS: Fermi energy:    0.107099;  394.000000 electrons
         Band energy:-0.106170E+04;  BLOECHL correction:   -0.027387
       DOS:  cpu time    0.0273: real time    0.0273
    --------------------------------------------
      LOOP:  cpu time    9.7848: real time    9.7851

 eigenvalue-minimisations  : 12536
 total energy-change (2. order) :-0.2861155E-03  (-0.2851810E-03)
 number of electron     394.0000052 magnetization 
 augmentation part      394.0000052 magnetization 

 Free energy of the ion-electron system (eV)
  ---------------------------------------------------
  alpha Z        PSCENC =       869.81559769
  Ewald energy   TEWEN  =    147007.56869501
  -Hartree energ DENC   =   -193875.73652284
  -exchange      EXHF   =         0.00000000
  -V(xc)+E(xc)   XCENC  =      1550.82157756
  PAW double counting   =     46161.51037020   -49914.89209054
  entropy T*S    EENTRO =         0.00000000
  eigenvalues    EBANDS =     -1061.69563486
  atomic energy  EATOM  =     49125.90365311
  Solvation  Ediel_sol  =         0.00000000
  ---------------------------------------------------
  free energy    TOTEN  =      -136.70435468 eV

  energy without entropy =     -136.70435468  energy(sigma->0) =     -136.70435468


--------------------------------------------------------------------------------------------------------




--------------------------------------- Iteration      1(   9)  ---------------------------------------


    EDDIAG:  cpu time    2.2034: real time    2.2036
  RMM-DIIS:  cpu time    9.1911: real time    9.1912
    ORTHCH:  cpu time    0.4357: real time    0.4358
 BZINTS: Fermi energy:    0.107099;  394.000000 electrons
         Band energy:-0.106170E+04;  BLOECHL correction:   -0.027387
       DOS:  cpu time    0.0306: real time    0.0306
    --------------------------------------------
      LOOP:  cpu time   11.8608: real time   11.8611

 eigenvalue-minimisations  : 16479
 total energy-change (2. order) :-0.1210747E-03  (-0.1204857E-03)
 number of electron     394.0000052 magnetization 
 augmentation part      394.0000052 magnetization 

 Free energy of the ion-electron system (eV)
  ---------------------------------------------------
  alpha Z        PSCENC =       869.81559769
  Ewald energy   TEWEN  =    147007.56869501
  -Hartree energ DENC   =   -193875.73652284
  -exchange      EXHF   =         0.00000000
  -V(xc)+E(xc)   XCENC  =      1550.82157756
  PAW double counting   =     46161.51037020   -49914.89209054
  entropy T*S    EENTRO =         0.00000000
  eigenvalues    EBANDS =     -1061.69575594
  atomic energy  EATOM  =     49125.90365311
  Solvation  Ediel_sol  =         0.00000000
  ---------------------------------------------------
  free energy    TOTEN  =      -136.70447575 eV

  energy without entropy =     -136.70447575  energy(sigma->0) =     -136.70447575


--------------------------------------------------------------------------------------------------------




--------------------------------------- Iteration      1(  10)  ---------------------------------------


    EDDIAG:  cpu time    2.2038: real time    2.2039
  RMM-DIIS:  cpu time    5.4741: real time    5.4741
    ORTHCH:  cpu time    0.4366: real time    0.4366
 BZINTS: Fermi energy:    0.107099;  394.000000 electrons
         Band energy:-0.106170E+04;  BLOECHL correction:   -0.027387
       DOS:  cpu time    0.0299: real time    0.0299
    --------------------------------------------
      LOOP:  cpu time    8.1443: real time    8.1445

 eigenvalue-minimisations  :  8775
 total energy-change (2. order) :-0.5649752E-05  (-0.5591464E-05)
 number of electron     394.0000052 magnetization 
 augmentation part      394.0000052 magnetization 

 Free energy of the ion-electron system (eV)
  ---------------------------------------------------
  alpha Z        PSCENC =       869.81559769
  Ewald energy   TEWEN  =    147007.56869501
  -Hartree energ DENC   =   -193875.73652284
  -exchange      EXHF   =         0.00000000
  -V(xc)+E(xc)   XCENC  =      1550.82157756
  PAW double counting   =     46161.51037020   -49914.89209054
  entropy T*S    EENTRO =         0.00000000
  eigenvalues    EBANDS =     -1061.69576159
  atomic energy  EATOM  =     49125.90365311
  Solvation  Ediel_sol  =         0.00000000
  ---------------------------------------------------
  free energy    TOTEN  =      -136.70448140 eV

  energy without entropy =     -136.70448140  energy(sigma->0) =     -136.70448140


--------------------------------------------------------------------------------------------------------




 average (electrostatic) potential at core
  the test charge radii are     0.9430  1.0210  0.5201
  (the norm of the test charge is              1.0000)
       1 -70.8719       2 -70.8547       3 -70.8546       4 -70.8545       5 -70.8686
       6 -70.8542       7 -70.8528       8 -70.8526       9 -70.8600      10 -71.1425
      11 -71.0919      12 -71.1424      13 -71.0940      14 -71.0939      15 -71.1260
      16 -71.1419      17 -71.1235      18 -71.1235      19 -71.1081      20 -71.2108
      21 -71.2111      22 -71.0962      23 -71.2128      24 -71.0964      25 -71.0992
      26 -71.0992      27 -71.0893      28 -70.8542      29 -70.8523      30 -70.8524
      31 -70.8708      32 -70.8708      33 -70.8558      34 -70.8558      35 -70.8415
      36 -49.2371      37 -37.5166      38 -37.5166
 
 
 
 E-fermi :   0.1071     XC(G=0):  -5.8865     alpha+bet : -5.2871

 Fermi energy:         0.1070987513

 k-point     1 :       0.0000    0.0000    0.0000
  band No.  band energies     occupation 
      1      -8.7076      2.00000
      2      -7.6956      2.00000
      3      -7.0247      2.00000
      4      -5.7176      2.00000
      5      -5.6928      2.00000
      6      -5.6907      2.00000
      7      -5.6780      2.00000
      8      -5.6698      2.00000
      9      -5.6690      2.00000
     10      -5.5358      2.00000
     11      -4.9169      2.00000
     12      -4.9103      2.00000
     13      -4.9079      2.00000
     14      -4.9038      2.00000
     15      -4.8990      2.00000
     16      -4.8988      2.00000
     17      -4.7240      2.00000
     18      -4.2243      2.00000
     19      -4.2177      2.00000
     20      -4.2147      2.00000
     21      -4.2135      2.00000
     22      -4.2123      2.00000
     23      -4.1021      2.00000
     24      -3.9446      2.00000
     25      -3.9327      2.00000
     26      -3.9321      2.00000
     27      -3.9160      2.00000
     28      -3.9149      2.00000
     29      -3.9000      2.00000
     30      -3.7562      2.00000
     31      -3.7553      2.00000
     32      -3.7505      2.00000
     33      -3.7494      2.00000
     34      -3.7475      2.00000
     35      -3.7458      2.00000
     36      -3.6989      2.00000
     37      -3.6966      2.00000
     38      -3.6912      2.00000
     39      -3.6722      2.00000
     40      -3.6718      2.00000
     41      -3.6548      2.00000
     42      -3.6094      2.00000
     43      -3.6092      2.00000
     44      -3.6037      2.00000
     45      -3.6023      2.00000
     46      -3.4889      2.00000
     47      -3.4884      2.00000
     48      -3.4102      2.00000
     49      -3.4083      2.00000
     50      -3.4019      2.00000
     51      -3.3844      2.00000
     52      -3.3812      2.00000
     53      -3.3746      2.00000
     54      -3.3578      2.00000
     55      -3.3560      2.00000
     56      -3.0634      2.00000
     57      -3.0627      2.00000
     58      -3.0626      2.00000
     59      -3.0538      2.00000
     60      -3.0502      2.00000
     61      -3.0381      2.00000
     62      -2.9645      2.00000
     63      -2.9643      2.00000
     64      -2.9327      2.00000
     65      -2.9289      2.00000
     66      -2.9280      2.00000
     67      -2.9210      2.00000
     68      -2.9154      2.00000
     69      -2.9044      2.00000
     70      -2.9031      2.00000
     71      -2.9005      2.00000
     72      -2.8981      2.00000
     73      -2.8238      2.00000
     74      -2.8238      2.00000
     75      -2.8184      2.00000
     76      -2.7731      2.00000
     77      -2.7727      2.00000
     78      -2.7167      2.00000
     79      -2.7149      2.00000
     80      -2.7122      2.00000
     81      -2.7011      2.00000
     82      -2.6995      2.00000
     83      -2.6871      2.00000
     84      -2.6474      2.00000
     85      -2.6438      2.00000
     86      -2.6427      2.00000
     87      -2.6174      2.00000
     88      -2.6171      2.00000
     89      -2.6126      2.00000
     90      -2.6049      2.00000
     91      -2.5850      2.00000
     92      -2.5810      2.00000
     93      -2.5682      2.00000
     94      -2.5480      2.00000
     95      -2.5447      2.00000
     96      -2.5445      2.00000
     97      -2.5299      2.00000
     98      -2.5197      2.00000
     99      -2.5076      2.00000
    100      -2.5065      2.00000
    101      -2.4722      2.00000
    102      -2.4672      2.00000
    103      -2.4598      2.00000
    104      -2.4571      2.00000
    105      -2.4176      2.00000
    106      -2.3644      2.00000
    107      -2.3636      2.00000
    108      -2.3537      2.00000
    109      -2.2563      2.00000
    110      -2.2220      2.00000
    111      -2.2213      2.00000
    112      -2.2181      2.00000
    113      -2.2111      2.00000
    114      -2.2103      2.00000
    115      -2.1994      2.00000
    116      -2.1921      2.00000
    117      -2.1819      2.00000
    118      -2.1785      2.00000
    119      -2.1730      2.00000
    120      -2.1729      2.00000
    121      -2.1676      2.00000
    122      -2.1559      2.00000
    123      -2.0535      2.00000
    124      -2.0281      2.00000
    125      -2.0279      2.00000
    126      -2.0090      2.00000
    127      -1.9895      2.00000
    128      -1.9887      2.00000
    129      -1.9882      2.00000
    130      -1.9729      2.00000
    131      -1.9719      2.00000
    132      -1.9528      2.00000
    133      -1.9445      2.00000
    134      -1.9149      2.00000
    135      -1.9044      2.00000
    136      -1.9033      2.00000
    137      -1.8920      2.00000
    138      -1.8862      2.00000
    139      -1.8856      2.00000
    140      -1.8605      2.00000
    141      -1.8394      2.00000
    142      -1.8331      2.00000
    143      -1.7686      2.00000
    144      -1.7686      2.00000
    145      -1.7615      2.00000
    146      -1.7588      2.00000
    147      -1.7558      2.00000
    148      -1.7517      2.00000
    149      -1.7489      2.00000
    150      -1.7485      2.00000
    151      -1.7332      2.00000
    152      -1.7301      2.00000
    153      -1.7275      2.00000
    154      -1.6993      2.00000
    155      -1.6311      2.00000
    156      -1.6293      2.00000
    157      -1.6252      2.00000
    158      -1.6251      2.00000
    159      -1.6179      2.00000
    160      -1.6142      2.00000
    161      -1.6103      2.00000
    162      -1.6102      2.00000
    163      -1.6022      2.00000
    164      -1.5967      2.00000
    165      -1.5932      2.00000
    166      -1.5847      2.00000
    167      -1.5782      2.00000
    168      -1.5766      2.00000
    169      -1.5718      2.00000
    170      -1.5663      2.00000
    171      -1.5596      2.00000
    172      -1.5589      2.00000
    173      -1.5540      2.00000
    174      -1.5455      2.00000
    175      -1.5451      2.00000
    176      -1.5403      2.00000
    177      -1.5400      2.00000
    178      -1.5399      2.00000
    179      -1.5362      2.00000
    180      -1.5360      2.00000
    181      -1.5317      2.00000
    182      -1.5076      2.00000
    183      -1.5045      2.00000
    184      -1.4892      2.00000
    185      -1.4858      2.00000
    186      -1.4330      2.00000
    187      -1.4304      2.00000
    188      -1.4195      2.00000
    189      -1.4133      2.00000
    190      -1.4126      2.00000
    191      -1.4049      2.00000
    192      -0.9049      2.00000
    193      -0.7390      2.00000
    194      -0.4756      2.00000
    195      -0.3971      2.00000
    196      -0.2678      2.00000
    197      -0.2668      2.00000
    198      -0.2063      2.00000
    199      -0.0071      2.00000
    200       0.0293      2.40562
    201       0.0604      1.04376
    202       0.1489      0.00000
    203       0.1588      0.00000
    204       1.2384      0.00000
    205       2.1073      0.00000
    206       2.1228      0.00000
    207       2.1261      0.00000
    208       2.2602      0.00000
    209       2.3056      0.00000
    210       3.5228      0.00000
    211       3.5337      0.00000
    212       3.6216      0.00000
    213       3.7132      0.00000
    214       3.7795      0.00000
    215       3.8046      0.00000
    216       3.8518      0.00000
    217       4.2983      0.00000
    218       4.3098      0.00000
    219       4.4822      0.00000
    220       4.5737      0.00000
    221       4.6063      0.00000
    222       4.6096      0.00000
    223       4.6126      0.00000
    224       4.6144      0.00000
    225       4.6360      0.00000
    226       4.7893      0.00000
    227       4.8195      0.00000
    228       5.2977      0.00000
    229       5.4623      0.00000
    230       5.7146      0.00000
    231       5.8915      0.00000
    232       6.1553      0.00000
    233       6.2080      0.00000
    234       6.4065      0.00000
    235       6.4326      0.00000
    236       6.5151      0.00000
    237       6.7772      0.00000
    238       6.8686      0.00000
    239       6.8956      0.00000
    240       6.8987      0.00000
    241       6.9255      0.00000
    242       7.1302      0.00000
    243       7.3854      0.00000
    244       7.4635      0.00000
    245       7.5008      0.00000
    246       7.5130      0.00000
    247       7.5239      0.00000
    248       7.5339      0.00000
    249       7.5807      0.00000
    250       7.8512      0.00000
    251       7.8904      0.00000
    252       7.9587      0.00000

 k-point     2 :       0.1250   -0.0000    0.0000
  band No.  band energies     occupation 
      1      -8.6533      2.00000
      2      -7.6680      2.00000
      3      -7.0060      2.00000
      4      -6.2355      2.00000
      5      -5.9259      2.00000
      6      -5.9103      2.00000
      7      -5.5865      2.00000
      8      -5.3892      2.00000
      9      -5.3729      2.00000
     10      -5.2278      2.00000
     11      -5.1832      2.00000
     12      -5.0338      2.00000
     13      -4.9830      2.00000
     14      -4.8476      2.00000
     15      -4.7484      2.00000
     16      -4.7113      2.00000
     17      -4.6461      2.00000
     18      -4.2617      2.00000
     19      -4.2164      2.00000
     20      -4.2077      2.00000
     21      -4.1920      2.00000
     22      -4.1891      2.00000
     23      -4.0943      2.00000
     24      -3.9899      2.00000
     25      -3.9449      2.00000
     26      -3.9413      2.00000
     27      -3.8929      2.00000
     28      -3.8831      2.00000
     29      -3.8722      2.00000
     30      -3.8657      2.00000
     31      -3.8638      2.00000
     32      -3.8230      2.00000
     33      -3.8214      2.00000
     34      -3.7599      2.00000
     35      -3.7227      2.00000
     36      -3.7186      2.00000
     37      -3.7027      2.00000
     38      -3.6983      2.00000
     39      -3.6281      2.00000
     40      -3.6234      2.00000
     41      -3.6138      2.00000
     42      -3.6077      2.00000
     43      -3.6012      2.00000
     44      -3.5417      2.00000
     45      -3.5409      2.00000
     46      -3.4985      2.00000
     47      -3.4966      2.00000
     48      -3.4789      2.00000
     49      -3.4352      2.00000
     50      -3.4295      2.00000
     51      -3.3472      2.00000
     52      -3.3445      2.00000
     53      -3.3335      2.00000
     54      -3.3330      2.00000
     55      -3.3011      2.00000
     56      -3.1522      2.00000
     57      -3.1234      2.00000
     58      -3.1222      2.00000
     59      -3.0589      2.00000
     60      -3.0480      2.00000
     61      -3.0293      2.00000
     62      -2.9871      2.00000
     63      -2.9857      2.00000
     64      -2.9485      2.00000
     65      -2.9462      2.00000
     66      -2.9332      2.00000
     67      -2.9236      2.00000
     68      -2.9220      2.00000
     69      -2.9086      2.00000
     70      -2.8897      2.00000
     71      -2.8827      2.00000
     72      -2.8698      2.00000
     73      -2.8390      2.00000
     74      -2.8238      2.00000
     75      -2.8055      2.00000
     76      -2.7582      2.00000
     77      -2.7457      2.00000
     78      -2.7362      2.00000
     79      -2.7344      2.00000
     80      -2.7174      2.00000
     81      -2.6915      2.00000
     82      -2.6892      2.00000
     83      -2.6748      2.00000
[...]
  0.000   0.000   0.000   0.000   0.000   0.000   0.000   0.000   0.000   0.000   0.000   0.000   0.000   0.000   0.000   0.000
  0.000   0.000   0.000   0.000   0.000   0.000   0.000   0.000   0.000   0.000   0.000   0.000   0.000   0.000   0.000   0.000
  0.000   0.000   0.000   0.000   0.000   0.000   0.000   0.000   0.000   0.000   1.000   0.000   0.000   0.000   0.000   0.000
  0.000   0.000   0.000   0.000   0.000   0.000   0.000   0.000   0.000   0.000   0.000   0.000   0.000   0.000   0.000   0.000
  0.000   0.000   0.000   0.000   0.000   0.000   0.000   0.000   0.000   0.000   0.000   0.000   0.000   0.000   0.000   0.000
  0.000   0.000   0.000   0.000   0.000   0.000   0.000   0.000   0.000   0.000   0.000   0.000   0.000   0.000   0.000   0.000
  0.000   0.000   0.000   0.000   0.000   0.000   0.000   0.000   0.000   0.000   0.000   0.000   0.000   0.000   0.000   0.000
  0.000   0.000   0.000   0.000   0.000   0.000   0.000   0.000   0.000   0.000   0.000   0.000   0.000   0.000   0.000   0.000
  0.000   0.000   0.000   0.000   0.000   0.000   0.000   0.000   0.000   0.000   0.000   0.000   0.000   0.000   0.000   0.000
  0.000   0.000   0.000   0.000   0.000   0.000   0.000   0.000   0.000   0.000   0.000   0.000   0.000   0.000   0.000   0.000


------------------------ aborting loop because EDIFF is reached ----------------------------------------





 total charge

# of ion       s       p       d       tot
------------------------------------------
    1        0.449   0.283   9.189   9.922
    2        0.449   0.285   9.186   9.920
    3        0.449   0.285   9.186   9.920
    4        0.449   0.285   9.186   9.920
    5        0.449   0.286   9.179   9.914
    6        0.449   0.285   9.186   9.920
    7        0.449   0.285   9.186   9.920
    8        0.449   0.285   9.186   9.920
    9        0.448   0.282   9.191   9.920
   10        0.442   0.372   9.175   9.989
   11        0.445   0.365   9.185   9.995
   12        0.442   0.372   9.175   9.989
   13        0.444   0.366   9.184   9.994
   14        0.444   0.366   9.184   9.994
   15        0.439   0.370   9.177   9.986
   16        0.443   0.372   9.174   9.989
   17        0.438   0.371   9.177   9.986
   18        0.438   0.371   9.177   9.986
   19        0.441   0.369   9.180   9.990
   20        0.460   0.392   9.164  10.016
   21        0.460   0.392   9.164  10.016
   22        0.432   0.376   9.180   9.988
   23        0.461   0.394   9.162  10.017
   24        0.432   0.376   9.180   9.988
   25        0.441   0.368   9.182   9.991
   26        0.441   0.368   9.182   9.991
   27        0.433   0.375   9.181   9.988
   28        0.446   0.284   9.188   9.917
   29        0.458   0.297   9.176   9.931
   30        0.458   0.297   9.176   9.931
   31        0.454   0.303   9.173   9.930
   32        0.454   0.303   9.173   9.930
   33        0.458   0.297   9.175   9.930
   34        0.458   0.297   9.175   9.930
   35        0.442   0.287   9.186   9.915
   36        0.345   0.372   5.188   5.904
   37        0.530   0.030   0.000   0.560
   38        0.530   0.030   0.000   0.560
--------------------------------------------------
tot         17.049  12.095 326.469 355.613
 
    CHARGE:  cpu time    0.4108: real time    0.4108
    FORLOC:  cpu time    0.0075: real time    0.0075
    FORNL :  cpu time    2.4186: real time    2.4188
    STRESS:  cpu time    7.1828: real time    7.1831
    FORCOR:  cpu time    0.0267: real time    0.0268
    FORHAR:  cpu time    0.0116: real time    0.0117
    OFIELD:  cpu time    0.0001: real time    0.0001

  FORCE on cell =-STRESS in cart. coord.  units (eV):
  Direction    XX          YY          ZZ          XY          YZ          ZX
  --------------------------------------------------------------------------------------
  Alpha Z   869.81560   869.81560   869.81560
  Ewald  172813.68241172793.85520************     0.00038    -0.14316     0.00016
  Hartree185746.32347185741.91292************     0.00004     0.40564     0.00006
  E(xc)   -2284.63760 -2284.85294 -2289.71098    -0.00030     0.03026    -0.00004
  Local  ************************371821.47584     0.01949    -0.18971    -0.00069
  n-local  -785.66398  -785.65357  -798.75361     1.67625     0.17787     0.08648
  augment  3336.24022  3336.22743  3357.54860    -0.01818    -0.13260     0.00018
  Kinetic  3212.95102  3217.02324  3241.87677     1.31813    -0.09225    -0.18929
  Fock        0.00000     0.00000     0.00000     0.00000     0.00000     0.00000
  -------------------------------------------------------------------------------------
  Total      -8.53273    -8.55160     0.40173     0.00000     0.05604    -0.00000
  in kB     -12.51953   -12.54721     0.58944     0.00000     0.08223    -0.00000
  external pressure =       -8.16 kB  Pullay stress =        0.00 kB


 VOLUME and BASIS-vectors are now :
 -----------------------------------------------------------------------------
  energy-cutoff  :      500.00
  volume of cell :     1091.97
      direct lattice vectors                 reciprocal lattice vectors
     7.696786404  0.000000000  0.000000000     0.129924354 -0.075011849  0.000000000
     3.848392758  6.665612809  0.000000000     0.000000000  0.150023716  0.000000000
     0.000000000  0.000000000 21.284399033     0.000000000  0.000000000  0.046982769

  length of vectors
     7.696786404  7.696786404 21.284399033     0.150023716  0.150023716  0.046982769


 FORCES acting on ions
    electron-ion (+dipol)            ewald-force                    non-local-force                 convergence-correction
 -----------------------------------------------------------------------------------------------
   -.408E-04 -.349E-01 0.347E+04   0.580E-04 -.483E-02 -.346E+04   -.178E-08 0.267E-01 -.270E+01   -.251E-03 0.157E-01 -.122E+00
   -.338E+00 -.753E-01 0.347E+04   0.904E-01 0.771E-01 -.346E+04   0.126E+00 0.801E-01 -.182E+01   0.126E+00 -.626E-01 -.140E+00
   0.338E+00 -.753E-01 0.347E+04   -.905E-01 0.770E-01 -.346E+04   -.126E+00 0.801E-01 -.182E+01   -.125E+00 -.602E-01 -.140E+00
   -.214E+00 -.244E+00 0.347E+04   0.116E+00 0.402E-01 -.346E+04   0.110E+00 0.439E-01 -.182E+01   0.114E-01 0.153E+00 -.123E+00
   -.615E-04 -.117E-01 0.346E+04   0.116E-03 0.285E-02 -.346E+04   -.139E-08 0.209E-01 -.146E+01   0.120E-01 -.888E-02 -.429E-01
   0.214E+00 -.244E+00 0.347E+04   -.116E+00 0.401E-01 -.346E+04   -.110E+00 0.439E-01 -.182E+01   -.128E-01 0.154E+00 -.122E+00
   0.764E-01 0.312E+00 0.347E+04   0.257E-01 -.117E+00 -.346E+04   0.635E-01 -.132E+00 -.178E+01   -.149E+00 -.765E-01 -.107E+00
   -.763E-01 0.312E+00 0.347E+04   -.260E-01 -.117E+00 -.346E+04   -.635E-01 -.132E+00 -.178E+01   0.152E+00 -.778E-01 -.107E+00
   -.143E-03 0.582E-01 0.347E+04   0.263E-03 0.206E-02 -.346E+04   0.187E-08 -.281E-01 -.236E+01   -.131E-01 -.352E-01 -.174E+00
   0.939E-01 0.163E-01 0.114E+04   0.296E+00 0.147E+00 -.114E+04   -.457E+00 -.212E+00 -.110E+01   0.619E-01 0.520E-01 -.130E+00
   -.903E-04 -.738E+00 0.114E+04   0.189E-03 0.264E+00 -.114E+04   -.208E-07 0.312E+00 -.385E+00   0.113E-01 0.107E+00 -.167E+00
   -.938E-01 0.163E-01 0.114E+04   -.296E+00 0.147E+00 -.114E+04   0.457E+00 -.212E+00 -.110E+01   -.629E-01 0.524E-01 -.132E+00
   -.601E+00 0.408E+00 0.114E+04   0.253E+00 -.110E+00 -.114E+04   0.258E+00 -.221E+00 -.412E+00   0.644E-01 -.550E-01 -.147E+00
   0.601E+00 0.408E+00 0.114E+04   -.253E+00 -.110E+00 -.114E+04   -.258E+00 -.221E+00 -.412E+00   -.414E-01 -.563E-01 -.150E+00
   -.143E-03 -.205E+00 0.114E+04   0.299E-03 -.177E+00 -.114E+04   -.133E-07 0.200E+00 -.983E+00   -.271E-02 0.168E+00 -.898E-01
   -.919E-04 -.137E+00 0.114E+04   0.186E-03 -.354E+00 -.114E+04   -.364E-07 0.547E+00 -.111E+01   -.104E-02 -.606E-01 -.140E+00
   -.691E-01 0.984E-01 0.114E+04   -.181E+00 0.965E-01 -.114E+04   0.128E+00 -.946E-01 -.989E+00   0.108E+00 -.907E-01 -.108E+00
   0.692E-01 0.985E-01 0.114E+04   0.181E+00 0.964E-01 -.114E+04   -.128E+00 -.946E-01 -.989E+00   -.107E+00 -.889E-01 -.107E+00
   -.632E-04 -.252E+01 -.119E+04   0.700E-04 0.227E+01 0.119E+04   -.318E-08 0.478E-01 0.894E+00   0.129E-01 0.198E+00 0.108E+00
   -.205E+02 -.118E+02 -.121E+04   0.217E+02 0.125E+02 0.121E+04   -.129E+01 -.740E+00 -.103E+01   0.410E-01 0.149E-01 0.189E+00
   0.205E+02 -.118E+02 -.121E+04   -.217E+02 0.125E+02 0.121E+04   0.129E+01 -.740E+00 -.103E+01   -.639E-01 0.131E-01 0.188E+00
   -.128E+02 0.723E+01 -.120E+04   0.124E+02 -.695E+01 0.120E+04   0.426E+00 -.307E+00 0.624E+00   -.977E-02 0.174E-02 0.783E-01
   -.794E-04 0.233E+02 -.121E+04   0.146E-03 -.248E+02 0.121E+04   -.109E-06 0.163E+01 -.122E+01   -.143E-01 -.478E-01 0.170E+00
   0.128E+02 0.723E+01 -.120E+04   -.124E+02 -.695E+01 0.120E+04   -.426E+00 -.307E+00 0.624E+00   0.333E-01 0.373E-02 0.789E-01
   0.220E+01 0.145E+01 -.119E+04   -.198E+01 -.134E+01 0.119E+04   -.567E-01 -.153E-01 0.915E+00   -.156E+00 -.894E-01 0.107E+00
   -.220E+01 0.145E+01 -.119E+04   0.198E+01 -.134E+01 0.119E+04   0.567E-01 -.153E-01 0.915E+00   0.177E+00 -.867E-01 0.107E+00
   -.123E-03 -.148E+02 -.120E+04   0.241E-03 0.142E+02 0.120E+04   -.417E-07 0.627E+00 0.604E+00   0.924E-02 0.207E-01 0.808E-01
   -.372E-04 0.910E+00 -.347E+04   0.391E-04 -.892E+00 0.347E+04   0.293E-08 -.439E-01 0.239E+01   -.121E-02 -.459E-02 0.300E+00
   -.161E+02 -.264E+02 -.347E+04   0.168E+02 0.272E+02 0.347E+04   -.798E+00 -.889E+00 0.194E+01   0.527E-01 0.281E-01 0.275E+00
   0.161E+02 -.264E+02 -.347E+04   -.168E+02 0.272E+02 0.347E+04   0.798E+00 -.889E+00 0.194E+01   -.311E-01 0.289E-01 0.275E+00
   -.300E+02 -.473E+00 -.347E+04   0.312E+02 0.541E+00 0.347E+04   -.120E+01 -.139E+00 0.209E+01   0.103E+00 0.749E-01 0.265E+00
   0.300E+02 -.473E+00 -.347E+04   -.312E+02 0.541E+00 0.347E+04   0.120E+01 -.139E+00 0.209E+01   -.804E-01 0.762E-01 0.267E+00
   -.170E+02 0.275E+02 -.347E+04   0.175E+02 -.284E+02 0.347E+04   -.567E+00 0.988E+00 0.190E+01   0.132E-01 -.101E+00 0.288E+00
   0.170E+02 0.275E+02 -.347E+04   -.175E+02 -.284E+02 0.347E+04   0.567E+00 0.988E+00 0.190E+01   0.113E-01 -.101E+00 0.290E+00
   -.127E-03 -.490E+00 -.348E+04   0.251E-03 0.453E+00 0.347E+04   -.665E-08 0.999E-01 0.267E+01   -.141E-01 -.393E-01 0.344E+00
   -.527E-04 -.177E+01 -.211E+04   0.913E-04 0.170E+01 0.211E+04   -.461E-08 0.692E-01 0.251E+00   0.889E-03 0.301E-01 0.131E+00
   0.135E+02 -.451E-01 -.379E+03   -.160E+02 0.355E-02 0.380E+03   0.257E+01 0.341E-01 -.142E+01   -.162E-01 0.625E-02 0.159E-01
   -.135E+02 -.451E-01 -.379E+03   0.160E+02 0.355E-02 0.380E+03   -.257E+01 0.341E-01 -.142E+01   0.162E-01 0.626E-02 0.159E-01
 -----------------------------------------------------------------------------------------------
   -.234E-03 -.368E+00 0.788E+01   0.551E-13 0.481E-13 0.500E-11   -.203E-07 0.305E+00 -.919E+01   0.116E+00 0.625E-01 0.133E+01
 
 
 POSITION                                       TOTAL-FORCE (eV/Angst)
 -----------------------------------------------------------------------------------
      0.00000      0.00000      5.37156        -0.000000      0.002676     -0.027601
      2.56560      0.00000      5.37156         0.004042      0.020492      0.058242
      5.13119      0.00000      5.37156        -0.004042      0.020492      0.058242
      1.28280      2.22187      5.37156         0.024328     -0.006259      0.054686
      3.84839      2.22187      5.37156        -0.000000      0.003077      0.018206
      6.41399      2.22187      5.37156        -0.024328     -0.006259      0.054686
      2.56560      4.44374      5.37156         0.015483     -0.014660      0.058092
      5.13119      4.44374      5.37156        -0.015483     -0.014660      0.058092
      7.69679      4.44374      5.37156         0.000000     -0.002996      0.011655
      1.28280      0.74062      7.46636        -0.004925      0.004162     -0.061157
      3.84839      0.74062      7.46636         0.000000     -0.054197     -0.077220
      6.41399      0.74062      7.46636         0.004925      0.004162     -0.061157
      2.56560      2.96249      7.46636        -0.036456      0.021405     -0.065585
      5.13119      2.96249      7.46636         0.036456      0.021405     -0.065585
      7.69679      2.96249      7.46636         0.000000     -0.014332     -0.027207
      3.84839      5.18437      7.46636         0.000000     -0.004917     -0.057208
      6.41399      5.18437      7.46636        -0.013954      0.010526     -0.021602
      8.97958      5.18437      7.46636         0.013954      0.010526     -0.021602
      7.69679      1.48275      9.55327         0.000000     -0.006666      0.060843
      2.56715      1.48214      9.54261        -0.034444     -0.045457     -0.142771
      5.12964      1.48214      9.54261         0.034444     -0.045457     -0.142771
      8.97640      3.70496      9.55687         0.038704     -0.023328      0.011110
      3.84839      3.70133      9.54261        -0.000000      0.055340     -0.112546
      6.41717      3.70496      9.55687        -0.038704     -0.023328      0.011110
     10.26108      5.92424      9.55327         0.000173      0.003990      0.034560
      5.13249      5.92424      9.55327        -0.000173      0.003990      0.034560
      7.69679      5.92131      9.55687        -0.000000      0.051800      0.007126
      0.00000      0.00000     11.63217         0.000000     -0.030541     -0.052722
      2.57513      0.01976     11.64308        -0.016272     -0.020495     -0.007438
      5.12165      0.01976     11.64308         0.016272     -0.020495     -0.007438
      1.30468      2.22025     11.64308         0.052920      0.004232      0.065250
      6.39211      2.22025     11.64308        -0.052920      0.004232      0.065250
      2.57794      4.42560     11.64308        -0.018150      0.022119     -0.014368
      5.11885      4.42560     11.64308         0.018150      0.022119     -0.014368
      7.69679      4.44374     11.63403        -0.000000      0.022779     -0.042138
      3.84839      2.22187     11.52902        -0.000000      0.026822      0.403585
      3.37557      2.18409     13.08115         0.041357     -0.001152     -0.021407
      4.32122      2.18409     13.08115        -0.041357     -0.001152     -0.021407
 -----------------------------------------------------------------------------------
    total drift:                                0.116078      0.000208      0.009687


--------------------------------------------------------------------------------------------------------



  FREE ENERGIE OF THE ION-ELECTRON SYSTEM (eV)
  ---------------------------------------------------
  free  energy   TOTEN  =      -136.70448140 eV

  energy  without entropy=     -136.70448140  energy(sigma->0) =     -136.70448140
 


--------------------------------------------------------------------------------------------------------


    POTLOK:  cpu time    0.0279: real time    0.0279


--------------------------------------------------------------------------------------------------------


 stress matrix after NEB project (eV)
     -8.53273      0.00000     -0.00000
      0.00000     -8.55160      0.05604
     -0.00000      0.05604      0.40173
  FORCES: max atom, RMS     0.046584    0.010687
  FORCE total and by dimension    0.065879    0.041357
  Stress total and by dimension   12.087394    8.551600
     LOOP+:  cpu time  124.1122: real time  124.1340
 -----------------------------------------------------------------------------
|                                                                             |
|           W    W    AA    RRRRR   N    N  II  N    N   GGGG   !!!           |
|           W    W   A  A   R    R  NN   N  II  NN   N  G    G  !!!           |
|           W    W  A    A  R    R  N N  N  II  N N  N  G       !!!           |
|           W WW W  AAAAAA  RRRRR   N  N N  II  N  N N  G  GGG   !            |
|           WW  WW  A    A  R   R   N   NN  II  N   NN  G    G                |
|           W    W  A    A  R    R  N    N  II  N    N   GGGG   !!!           |
|                                                                             |
|     Tetrahedron method does not include variations of the Fermi             |
|     occupations, so forces and stress will be inaccurate. We suggest        |
|     using a different smearing scheme ISMEAR = 1 or 2 for metals in         |
|     relaxations.                                                            |
|                                                                             |
 -----------------------------------------------------------------------------

    4ORBIT:  cpu time    0.0000: real time    0.0000



 total charge

# of ion       s       p       d       tot
------------------------------------------
    1        0.449   0.283   9.189   9.922
    2        0.449   0.285   9.186   9.920
    3        0.449   0.285   9.186   9.920
    4        0.449   0.285   9.186   9.920
    5        0.449   0.286   9.179   9.914
    6        0.449   0.285   9.186   9.920
    7        0.449   0.285   9.186   9.920
    8        0.449   0.285   9.186   9.920
    9        0.448   0.282   9.191   9.920
   10        0.442   0.372   9.175   9.989
   11        0.445   0.365   9.185   9.995
   12        0.442   0.372   9.175   9.989
   13        0.444   0.366   9.184   9.994
   14        0.444   0.366   9.184   9.994
   15        0.439   0.370   9.177   9.986
   16        0.443   0.372   9.174   9.989
   17        0.438   0.371   9.177   9.986
   18        0.438   0.371   9.177   9.986
   19        0.441   0.369   9.180   9.990
   20        0.460   0.392   9.164  10.016
   21        0.460   0.392   9.164  10.016
   22        0.432   0.376   9.180   9.988
   23        0.461   0.394   9.162  10.017
   24        0.432   0.376   9.180   9.988
   25        0.441   0.368   9.182   9.991
   26        0.441   0.368   9.182   9.991
   27        0.433   0.375   9.181   9.988
   28        0.446   0.284   9.188   9.917
   29        0.458   0.297   9.176   9.931
   30        0.458   0.297   9.176   9.931
   31        0.454   0.303   9.173   9.930
   32        0.454   0.303   9.173   9.930
   33        0.458   0.297   9.175   9.930
   34        0.458   0.297   9.175   9.930
   35        0.442   0.287   9.186   9.915
   36        0.345   0.372   5.188   5.904
   37        0.530   0.030   0.000   0.560
   38        0.530   0.030   0.000   0.560
--------------------------------------------------
tot         17.049  12.095 326.469 355.613
 
 BZINTS: Fermi energy:    0.107099;  394.000000 electrons
         Band energy:-0.106170E+04;  BLOECHL correction:   -0.027387

 total amount of memory used by VASP MPI-rank0   149637. kBytes
=======================================================================

   base      :      30000. kBytes
   nonlr-proj:      17630. kBytes
   fftplans  :       2916. kBytes
   grid      :      12390. kBytes
   one-center:        590. kBytes
   wavefun   :      86111. kBytes
 
  
  
 General timing and accounting informations for this job:
 ========================================================
  
                  Total CPU time used (sec):      135.207
                            User time (sec):      129.939
                          System time (sec):        5.268
                         Elapsed time (sec):      135.564
  
                   Maximum memory used (kb):      398228.
                   Average memory used (kb):          N/A
  
                          Minor page faults:       104837
                          Major page faults:            0
                 Voluntary context switches:         5330
