 vasp.6.2.0 18Jan21 (build Jun 12 2021 23:27:24) complex                        
  
 executed on             LinuxIFC date 2022.05.26  19:17:26
 running on   28 total cores
 distrk:  each k-point on   28 cores,    1 groups
 distr:  one band on NCORE=   1 cores,   28 groups


--------------------------------------------------------------------------------------------------------


 INCAR:
   ISMEAR = -5
   SIGMA = 0.1
   ISPIN = 1
   EDIFF = 1.d-5
   EDIFFG = -0.01
   NSW = 0
   NELM = 150
   ENCUT = 500
   ISIF = 2
   IBRION = 2
   LREAL = Auto
   ALGO = Fast
   ICHARG = 11
   LORBIT = 10
   LCHARG = .F.
   LWAVE = .F.

 POTCAR:    PAW_PBE Au 04Oct2007                  
 POTCAR:    PAW_PBE Ti 08Apr2002                  
 POTCAR:    PAW_PBE N 08Apr2002                   
 -----------------------------------------------------------------------------
|                                                                             |
|           W    W    AA    RRRRR   N    N  II  N    N   GGGG   !!!           |
|           W    W   A  A   R    R  NN   N  II  NN   N  G    G  !!!           |
|           W    W  A    A  R    R  N N  N  II  N N  N  G       !!!           |
|           W WW W  AAAAAA  RRRRR   N  N N  II  N  N N  G  GGG   !            |
|           WW  WW  A    A  R   R   N   NN  II  N   NN  G    G                |
|           W    W  A    A  R    R  N    N  II  N    N   GGGG   !!!           |
|                                                                             |
|     For optimal performance we recommend to set                             |
|       NCORE = 2 up to number-of-cores-per-socket                            |
|     NCORE specifies how many cores store one orbital (NPAR=cpu/NCORE).      |
|     This setting can greatly improve the performance of VASP for DFT.       |
|     The default, NCORE=1 might be grossly inefficient on modern             |
|     multi-core architectures or massively parallel machines. Do your        |
|     own testing! More info at https://www.vasp.at/wiki/index.php/NCORE      |
|     Unfortunately you need to use the default for GW and RPA                |
|     calculations (for HF NCORE is supported but not extensively tested      |
|     yet).                                                                   |
|                                                                             |
 -----------------------------------------------------------------------------

 POTCAR:    PAW_PBE Au 04Oct2007                  
   VRHFIN =Au: s1d10                                                                                
   LEXCH  = PE                                                                                      
   EATOM  =   926.0867 eV,   68.0654 Ry                                                             
                                                                                                    
   TITEL  = PAW_PBE Au 04Oct2007                                                                    
   LULTRA =        F    use ultrasoft PP ?                                                          
   IUNSCR =        1    unscreen: 0-lin 1-nonlin 2-no                                               
   RPACOR =    2.330    partial core radius                                                         
   POMASS =  196.966; ZVAL   =   11.000    mass and valenz                                          
   RCORE  =    2.500    outmost cutoff radius                                                       
   RWIGS  =    2.840; RWIGS  =    1.503    wigner-seitz radius (au A)                               
   ENMAX  =  229.943; ENMIN  =  172.457 eV                                                          
   ICORE  =        3    local potential                                                             
   LCOR   =        T    correct aug charges                                                         
   LPAW   =        T    paw PP                                                                      
   EAUG   =  356.670                                                                                
   DEXC   =    0.000                                                                                
   RMAX   =    2.562    core radius for proj-oper                                                   
   RAUG   =    1.300    factor for augmentation sphere                                              
   RDEP   =    2.598    radius for radial grids                                                     
   RDEPT  =    2.193    core radius for aug-charge                                                  
                                                                                                    
   Atomic configuration                                                                             
   16 entries                                                                                       
     n  l   j            E        occ.                                                              
     1  0  0.50    -80748.5001   2.0000                                                             
     2  0  0.50    -14244.7466   2.0000                                                             
     2  1  1.50    -12310.9591   6.0000                                                             
     3  0  0.50     -3362.1768   2.0000                                                             
     3  1  1.50     -2801.5463   6.0000                                                             
     3  2  2.50     -2203.8206  10.0000                                                             
     4  0  0.50      -729.8168   2.0000                                                             
     4  1  1.50      -546.0527   6.0000                                                             
     4  2  2.50      -325.7302  10.0000                                                             
     4  3  3.50       -81.1472  14.0000                                                             
     5  0  0.50      -108.3201   2.0000                                                             
     5  1  1.50       -59.7479   6.0000                                                             
     5  2  2.50        -6.8783  10.0000                                                             
     6  0  0.50        -5.7602   1.0000                                                             
     6  1  1.50        -6.8029   0.0000                                                             
     5  3  2.50        -1.3606   0.0000                                                             
   Description                                                                                      
     l       E           TYP  RCUT    TYP  RCUT                                                     
     2     -6.8782861     23  2.500                                                                 
     2     -8.2388687     23  2.500                                                                 
     0     -5.7601759     23  2.500                                                                 
     0     -0.8493231     23  2.500                                                                 
     1     -2.7211652     23  2.500                                                                 
     1     27.2116520     23  2.500                                                                 
     3     -1.3605826     23  2.500                                                                 
  local pseudopotential read in
  partial core-charges read in
  partial kinetic energy density read in
  atomic valenz-charges read in
  non local Contribution for L=           2  read in
    real space projection operators read in
  non local Contribution for L=           2  read in
    real space projection operators read in
  non local Contribution for L=           0  read in
    real space projection operators read in
  non local Contribution for L=           0  read in
    real space projection operators read in
  non local Contribution for L=           1  read in
    real space projection operators read in
  non local Contribution for L=           1  read in
    real space projection operators read in
    PAW grid and wavefunctions read in
 
   number of l-projection  operators is LMAX  =           6
   number of lm-projection operators is LMMAX =          18
 
 POTCAR:    PAW_PBE Ti 08Apr2002                  
   VRHFIN =Ti: d3 s1                                                                                
   LEXCH  = PE                                                                                      
   EATOM  =    94.7928 eV,    6.9671 Ry                                                             
                                                                                                    
   TITEL  = PAW_PBE Ti 08Apr2002                                                                    
   LULTRA =        F    use ultrasoft PP ?                                                          
   IUNSCR =        1    unscreen: 0-lin 1-nonlin 2-no                                               
   RPACOR =    2.200    partial core radius                                                         
   POMASS =   47.880; ZVAL   =    4.000    mass and valenz                                          
   RCORE  =    2.800    outmost cutoff radius                                                       
   RWIGS  =    2.500; RWIGS  =    1.323    wigner-seitz radius (au A)                               
   ENMAX  =  178.330; ENMIN  =  133.747 eV                                                          
   RCLOC  =    2.215    cutoff for local pot                                                        
   LCOR   =        T    correct aug charges                                                         
   LPAW   =        T    paw PP                                                                      
   EAUG   =  328.883                                                                                
   DEXC   =    0.000                                                                                
   RMAX   =    2.868    core radius for proj-oper                                                   
   RAUG   =    1.300    factor for augmentation sphere                                              
   RDEP   =    2.885    radius for radial grids                                                     
   RDEPT  =    2.320    core radius for aug-charge                                                  
                                                                                                    
   Atomic configuration                                                                             
    9 entries                                                                                       
     n  l   j            E        occ.                                                              
     1  0  0.50     -4865.3608   2.0000                                                             
     2  0  0.50      -533.1367   2.0000                                                             
     2  1  1.50      -440.5031   6.0000                                                             
     3  0  0.50       -59.3186   2.0000                                                             
     3  1  1.50       -35.7012   6.0000                                                             
     3  2  2.50        -1.9157   3.0000                                                             
     4  0  0.50        -3.7291   1.0000                                                             
     4  1  1.50        -4.0817   0.0000                                                             
     4  3  2.50        -1.3606   0.0000                                                             
   Description                                                                                      
     l       E           TYP  RCUT    TYP  RCUT                                                     
     2     -1.9156924     23  2.800                                                                 
     2     -0.4062961     23  2.800                                                                 
     0     -3.7290832     23  2.800                                                                 
     0     20.4087390     23  2.800                                                                 
     1     -5.4423304     23  2.800                                                                 
  local pseudopotential read in
  partial core-charges read in
  partial kinetic energy density read in
  atomic valenz-charges read in
  non local Contribution for L=           2  read in
    real space projection operators read in
  non local Contribution for L=           2  read in
    real space projection operators read in
  non local Contribution for L=           0  read in
    real space projection operators read in
  non local Contribution for L=           0  read in
    real space projection operators read in
  non local Contribution for L=           1  read in
    real space projection operators read in
    PAW grid and wavefunctions read in
 
   number of l-projection  operators is LMAX  =           5
   number of lm-projection operators is LMMAX =          15
 
 POTCAR:    PAW_PBE N 08Apr2002                   
   VRHFIN =N: s2p3                                                                                  
   LEXCH  = PE                                                                                      
   EATOM  =   264.5486 eV,   19.4438 Ry                                                             
                                                                                                    
   TITEL  = PAW_PBE N 08Apr2002                                                                     
   LULTRA =        F    use ultrasoft PP ?                                                          
   IUNSCR =        1    unscreen: 0-lin 1-nonlin 2-no                                               
   RPACOR =    1.200    partial core radius                                                         
   POMASS =   14.001; ZVAL   =    5.000    mass and valenz                                          
   RCORE  =    1.500    outmost cutoff radius                                                       
   RWIGS  =    1.400; RWIGS  =    0.741    wigner-seitz radius (au A)                               
   ENMAX  =  400.000; ENMIN  =  300.000 eV                                                          
   ICORE  =        2    local potential                                                             
   LCOR   =        T    correct aug charges                                                         
   LPAW   =        T    paw PP                                                                      
   EAUG   =  627.112                                                                                
   DEXC   =    0.000                                                                                
   RMAX   =    1.529    core radius for proj-oper                                                   
   RAUG   =    1.300    factor for augmentation sphere                                              
   RDEP   =    1.514    radius for radial grids                                                     
   RDEPT  =    1.338    core radius for aug-charge                                                  
                                                                                                    
   Atomic configuration                                                                             
    4 entries                                                                                       
     n  l   j            E        occ.                                                              
     1  0  0.50      -384.7179   2.0000                                                             
     2  0  0.50       -18.5828   2.0000                                                             
     2  1  0.50        -7.0898   3.0000                                                             
     3  2  1.50        -6.8029   0.0000                                                             
   Description                                                                                      
     l       E           TYP  RCUT    TYP  RCUT                                                     
     0    -18.5828119     23  1.200                                                                 
     0    -13.5018863     23  1.200                                                                 
     1     -7.0897853     23  1.500                                                                 
     1      9.5240782     23  1.500                                                                 
     2     -6.8029130      7  1.500                                                                 
  local pseudopotential read in
  partial core-charges read in
  partial kinetic energy density read in
  atomic valenz-charges read in
  non local Contribution for L=           0  read in
    real space projection operators read in
  non local Contribution for L=           0  read in
    real space projection operators read in
  non local Contribution for L=           1  read in
    real space projection operators read in
  non local Contribution for L=           1  read in
    real space projection operators read in
    PAW grid and wavefunctions read in
 
   number of l-projection  operators is LMAX  =           4
   number of lm-projection operators is LMMAX =           8
 
 Optimization of the real space projectors (new method)

 maximal supplied QI-value         = 15.12
 optimisation between [QCUT,QGAM] = [ 11.34, 22.83] = [ 36.00,145.93] Ry 
 Optimized for a Real-space Cutoff    1.39 Angstroem

   l    n(q)    QCUT    max X(q) W(low)/X(q) W(high)/X(q)  e(spline) 
   2      9    11.338    60.898    0.39E-03    0.42E-03    0.21E-06
   2      9    11.338    58.894    0.40E-03    0.42E-03    0.22E-06
   0      9    11.338   109.617    0.13E-03    0.20E-04    0.13E-06
   0      9    11.338    75.026    0.13E-03    0.20E-04    0.13E-06
   1      9    11.338    16.344    0.33E-04    0.24E-03    0.18E-06
   1      9    11.338    10.160    0.26E-04    0.19E-03    0.15E-06
 Optimization of the real space projectors (new method)

 maximal supplied QI-value         = 13.42
 optimisation between [QCUT,QGAM] = [ 11.40, 22.81] = [ 36.42,145.68] Ry 
 Optimized for a Real-space Cutoff    1.56 Angstroem

   l    n(q)    QCUT    max X(q) W(low)/X(q) W(high)/X(q)  e(spline) 
   2     10    11.404    49.363    0.27E-03    0.67E-03    0.76E-06
   2     10    11.404    47.669    0.26E-03    0.65E-03    0.73E-06
   0     11    11.404    26.374    0.17E-03    0.20E-03    0.34E-06
   0     11    11.404    11.549    0.14E-03    0.16E-03    0.29E-06
   1     10    11.404     9.492    0.33E-04    0.56E-04    0.16E-06
 Optimization of the real space projectors (new method)

 maximal supplied QI-value         = 25.13
 optimisation between [QCUT,QGAM] = [ 11.31, 22.87] = [ 35.82,146.48] Ry 
 Optimized for a Real-space Cutoff    1.27 Angstroem

   l    n(q)    QCUT    max X(q) W(low)/X(q) W(high)/X(q)  e(spline) 
   0      9    11.310    79.467    0.75E-04    0.16E-03    0.36E-06
   0      9    11.310    66.151    0.74E-04    0.16E-03    0.36E-06
   1      8    11.310    17.416    0.35E-03    0.12E-03    0.95E-06
   1      8    11.310    12.382    0.37E-03    0.13E-03    0.98E-06
  PAW_PBE Au 04Oct2007                  :
 energy of atom  1       EATOM= -926.0867
 kinetic energy error for atom=    0.0042 (will be added to EATOM!!)
  PAW_PBE Ti 08Apr2002                  :
 energy of atom  2       EATOM=  -94.7928
 kinetic energy error for atom=    0.0002 (will be added to EATOM!!)
  PAW_PBE N 08Apr2002                   :
 energy of atom  3       EATOM= -264.5486
 kinetic energy error for atom=    0.0138 (will be added to EATOM!!)
 
 
 POSCAR: Au-Ti-N
  positions in direct lattice
  velocities in cartesian coordinates
 exchange correlation table for  LEXCH =        8
   RHO(1)=    0.500       N(1)  =     2000
   RHO(2)=  100.500       N(2)  =     4000

 VTST: version 3.2, (02/03/18)

 CHAIN: initializing optimizer
 
 OPT: Using VASP Conjugate-Gradient optimizer
 CHAIN: Read ICHAIN            0
 
 POSCAR: Au-Ti-N
  positions in direct lattice
  velocities in cartesian coordinates
 


--------------------------------------------------------------------------------------------------------


 ion  position               nearest neighbor table
   1  0.000  0.000  0.238-  16 2.94  12 2.94   6 2.94   8 2.94   7 2.94   3 2.94  10 2.94   4 2.94
                             2 2.94
   2  0.333  0.000  0.238-   9 2.94  11 2.94  17 2.94  10 2.94   8 2.94   4 2.94   5 2.94   1 2.94
                             3 2.94
   3  0.667  0.000  0.238-   7 2.94  18 2.94  12 2.94   1 2.94  11 2.94   5 2.94   6 2.94   9 2.94
                             2 2.94
   4  0.000  0.333  0.238-  10 2.94   6 2.94   5 2.94  13 2.94   2 2.94  15 2.94   9 2.94   1 2.94
                             7 2.94
   5  0.333  0.333  0.238-  13 2.94   7 2.94  11 2.94   4 2.94   2 2.94  14 2.94   3 2.94   8 2.94
                             6 2.94
   6  0.667  0.333  0.238-  15 2.94  14 2.94   1 2.94  12 2.94   4 2.94   9 2.94   8 2.94   3 2.94
                             5 2.94
   7  0.000  0.667  0.238-  18 2.94   3 2.94  16 2.94   5 2.94   1 2.94  13 2.94   8 2.94   4 2.94
                             9 2.94
   8  0.333  0.667  0.238-   9 2.94  17 2.94   1 2.94   2 2.94  14 2.94  16 2.94   6 2.94   7 2.94
                             5 2.94
   9  0.667  0.667  0.238-   2 2.94   8 2.94  17 2.94   6 2.94  15 2.94   4 2.94   3 2.94  18 2.94
                             7 2.94
  10  0.111  0.111  0.346-  26 2.93  19 2.93  20 2.93  11 2.94  17 2.94   2 2.94   4 2.94   1 2.94
                            12 2.94  16 2.94  13 2.94  15 2.94
  11  0.444  0.111  0.346-  20 2.92  21 2.92  27 2.94  13 2.94   2 2.94  10 2.94  17 2.94   5 2.94
                             3 2.94  18 2.94  14 2.94  12 2.94
  12  0.778  0.111  0.346-  25 2.93  19 2.93  21 2.93  16 2.94  18 2.94   1 2.94  14 2.94  15 2.94
                             3 2.94   6 2.94  10 2.94  11 2.94
  13  0.111  0.444  0.346-  23 2.92  20 2.92  22 2.94   5 2.94  18 2.94  11 2.94   7 2.94   4 2.94
                            16 2.94  10 2.94  14 2.94  15 2.94
  14  0.444  0.444  0.346-  21 2.92  23 2.92  24 2.94  15 2.94   6 2.94  12 2.94   8 2.94  17 2.94
                             5 2.94  16 2.94  13 2.94  11 2.94
  15  0.778  0.444  0.346-  24 2.92  22 2.92  19 2.93  14 2.94   6 2.94  17 2.94  12 2.94   9 2.94
                             4 2.94  10 2.94  13 2.94  18 2.94
  16  0.111  0.778  0.346-  25 2.93  26 2.93  23 2.93  18 2.94  12 2.94   7 2.94   1 2.94   8 2.94
                            13 2.94  10 2.94  14 2.94  17 2.94
  17  0.444  0.778  0.346-  27 2.92  24 2.92  26 2.93   9 2.94  15 2.94   2 2.94  10 2.94  11 2.94
                             8 2.94  14 2.94  16 2.94  18 2.94
  18  0.778  0.778  0.346-  22 2.92  27 2.92  25 2.93  16 2.94   7 2.94  13 2.94  12 2.94   3 2.94
                            11 2.94   9 2.94  15 2.94  17 2.94
  19  0.889  0.222  0.454-  10 2.93  12 2.93  15 2.93  26 2.94  25 2.94  24 2.94  22 2.94  21 2.95
                            20 2.95  28 2.95  32 3.03  31 3.03
  20  0.223  0.223  0.453-  36 2.76  23 2.91  21 2.91  11 2.92  13 2.92  10 2.93  27 2.95  22 2.95
                            26 2.95  19 2.95  29 2.96  31 2.96
  21  0.554  0.223  0.453-  36 2.76  20 2.91  23 2.91  14 2.92  11 2.92  12 2.93  27 2.95  24 2.95
                            25 2.95  19 2.95  30 2.96  32 2.96
  22  0.887  0.556  0.454-  24 2.92  27 2.92  18 2.92  15 2.92  13 2.94  25 2.94  19 2.94  23 2.95
                            20 2.95  35 2.96  33 2.99  31 2.99
  23  0.223  0.554  0.453-  36 2.76  20 2.91  21 2.91  13 2.92  14 2.92  16 2.93  22 2.95  24 2.95
                            25 2.95  26 2.95  33 2.96  34 2.96
  24  0.556  0.556  0.454-  27 2.92  22 2.92  15 2.92  17 2.92  14 2.94  26 2.94  19 2.94  21 2.95
                            23 2.95  35 2.96  32 2.99  34 2.99
  25  0.889  0.889  0.454-  16 2.93  12 2.93  18 2.93  19 2.94  26 2.94  22 2.94  27 2.94  23 2.95
                            21 2.95  28 2.95  33 3.03  30 3.03
  26  0.222  0.889  0.454-  10 2.93  16 2.93  17 2.93  19 2.94  25 2.94  27 2.94  24 2.94  20 2.95
                            23 2.95  28 2.95  29 3.03  34 3.03
  27  0.556  0.887  0.454-  24 2.92  22 2.92  17 2.92  18 2.92  11 2.94  26 2.94  25 2.94  20 2.95
                            21 2.95  35 2.96  29 2.99  30 2.99
  28  0.000  0.000  0.563-  25 2.95  19 2.95  26 2.95  34 2.98  32 2.98  33 2.98  30 2.98  31 2.98
                            29 2.98
  29  0.334  0.009  0.564-  30 2.85  31 2.86  36 2.87  20 2.96  35 2.98  28 2.98  27 2.99  26 3.03
                            34 3.10
  30  0.657  0.009  0.564-  29 2.85  32 2.86  36 2.87  21 2.96  35 2.98  28 2.98  27 2.99  25 3.03
                            33 3.10
  31  0.009  0.334  0.564-  33 2.85  29 2.86  36 2.87  20 2.96  35 2.98  28 2.98  22 2.99  19 3.03
                            32 3.10
  32  0.657  0.334  0.564-  34 2.85  30 2.86  36 2.87  21 2.96  35 2.98  28 2.98  24 2.99  19 3.03
                            31 3.10
  33  0.009  0.657  0.564-  31 2.85  34 2.86  36 2.87  23 2.96  35 2.98  28 2.98  22 2.99  25 3.03
                            30 3.10
  34  0.334  0.657  0.564-  32 2.85  33 2.86  36 2.87  23 2.96  35 2.98  28 2.98  24 2.99  26 3.03
                            29 3.10
  35  0.667  0.667  0.563-  24 2.96  27 2.96  22 2.96  29 2.98  34 2.98  32 2.98  31 2.98  30 2.98
                            33 2.98
  36  0.333  0.333  0.552-  37 1.73  20 2.76  23 2.76  21 2.76  33 2.87  31 2.87  29 2.87  30 2.87
                            34 2.87  32 2.87
  37  0.333  0.333  0.630-  36 1.73
 
  LATTYP: Found a hexagonal cell.
 ALAT       =     8.8135128021
 C/A-ratio  =     2.5184286595
  
  Lattice vectors:
  
 A1 = (  -4.4067569092,  -7.6327256898,   0.0000000000)
 A2 = (   8.8135128021,   0.0000000000,   0.0000000000)
 A3 = (   0.0000000000,   0.0000000000,  22.1962032318)


Analysis of symmetry for initial positions (statically):
=====================================================================
 Subroutine PRICEL returns:
 Original cell was already a primitive cell.
 

 Routine SETGRP: Setting up the symmetry group for a 
 hexagonal supercell.


 Subroutine GETGRP returns: Found  6 space group operations
 (whereof  6 operations were pure point group operations)
 out of a pool of 24 trial point group operations.


The static configuration has the point symmetry C_3v.


Analysis of symmetry for dynamics (positions and initial velocities):
=====================================================================
 Subroutine PRICEL returns:
 Original cell was already a primitive cell.
 

 Routine SETGRP: Setting up the symmetry group for a 
 hexagonal supercell.


 Subroutine GETGRP returns: Found  6 space group operations
 (whereof  6 operations were pure point group operations)
 out of a pool of 24 trial point group operations.


The dynamic configuration has the point symmetry C_3v.


Analysis of constrained symmetry for selective dynamics:
=====================================================================
 Subroutine PRICEL returns:
 Original cell was already a primitive cell.
 

 Routine SETGRP: Setting up the symmetry group for a 
 hexagonal supercell.


 Subroutine GETGRP returns: Found  6 space group operations
 (whereof  6 operations were pure point group operations)
 out of a pool of 24 trial point group operations.


The constrained configuration has the point symmetry C_3v.


 Subroutine INISYM returns: Found  6 space group operations
 (whereof  6 operations are pure point group operations),
 and found     1 'primitive' translations


----------------------------------------------------------------------------------------

                                     Primitive cell                                     

  volume of cell :    1493.1636

  direct lattice vectors                    reciprocal lattice vectors
     8.813512802  0.000000000  0.000000000     0.113462137 -0.065507406  0.000000000
     4.406756909  7.632725690  0.000000000     0.000000000  0.131014796  0.000000000
     0.000000000  0.000000000 22.196203232     0.000000000  0.000000000  0.045052750

  length of vectors
     8.813512802  8.813512802 22.196203232     0.131014796  0.131014796  0.045052750

  position of ions in fractional coordinates (direct lattice)
     0.000000000  0.000000000  0.237895638
     0.333333343  0.000000000  0.237895638
     0.666666687  0.000000000  0.237895638
     1.000000000  0.333333343  0.237895638
     0.333333313  0.333333343  0.237895638
     0.666666687  0.333333343  0.237895638
     1.000000000  0.666666687  0.237895638
     0.333333343  0.666666687  0.237895638
     0.666666627  0.666666687  0.237895638
     0.111111119  0.111111112  0.345965207
     0.444444418  0.111111112  0.345965207
     0.777777791  0.111111112  0.345965207
     0.111111127  0.444444448  0.345965207
     0.444444478  0.444444448  0.345965207
     0.777777731  0.444444448  0.345965207
     0.111111090  0.777777791  0.345965207
     0.444444448  0.777777791  0.345965207
     0.777777851  0.777777791  0.345965207
     0.888890335  0.222219346  0.453830343
     0.223104134  0.223104119  0.453411008
     0.553791793  0.223104119  0.453411008
     0.887224075  0.556387993  0.453500620
     0.223104089  0.553791793  0.453411008
     0.556387993  0.556387993  0.453500620
     0.888890335  0.888890335  0.453830343
     0.222219376  0.888890335  0.453830343
     0.556387933  0.887224075  0.453500620
     0.000000000  0.000000000  0.562714781
     0.333746250  0.008952230  0.564495487
     0.657301550  0.008952230  0.564495487
     0.008952230  0.333746250  0.564495487
     0.657301550  0.333746250  0.564495487
     0.008952230  0.657301550  0.564495487
     0.333746250  0.657301550  0.564495487
     0.666666627  0.666666687  0.563240917
     0.333333313  0.333333343  0.552229238
     0.333333313  0.333333343  0.629959569

  ion indices of the primitive-cell ions
   primitive index   ion index
                 1           1
                 2           2
                 3           3
                 4           4
                 5           5
                 6           6
                 7           7
                 8           8
                 9           9
                10          10
                11          11
                12          12
                13          13
                14          14
                15          15
                16          16
                17          17
                18          18
                19          19
                20          20
                21          21
                22          22
                23          23
                24          24
                25          25
                26          26
                27          27
                28          28
                29          29
                30          30
                31          31
                32          32
                33          33
                34          34
                35          35
                36          36
                37          37

----------------------------------------------------------------------------------------

 
 
 KPOINTS: Automatic mesh                          

Automatic generation of k-mesh.
 Grid dimensions read from file:
 generate k-points for:    8    8    1

 Generating k-lattice:

  Cartesian coordinates                     Fractional coordinates (reciprocal lattice)
     0.014182767 -0.008188426  0.000000000     0.125000000 -0.000000000  0.000000000
     0.000000000  0.016376850  0.000000000     0.000000000  0.125000000  0.000000000
     0.000000000  0.000000000  0.045052750     0.000000000  0.000000000  1.000000000

  Length of vectors
     0.016376850  0.016376850  0.045052750

  Shift w.r.t. Gamma in fractional coordinates (k-lattice)
     0.000000000  0.000000000  0.000000000

 TETIRR: Found     36 inequivalent tetrahedra from      384
 
 Subroutine IBZKPT returns following result:
 ===========================================
 
 Found     10 irreducible k-points:
 
 Following reciprocal coordinates:
            Coordinates               Weight
  0.000000  0.000000  0.000000      1.000000
  0.125000 -0.000000  0.000000      6.000000
  0.250000 -0.000000  0.000000      6.000000
  0.375000  0.000000  0.000000      6.000000
  0.500000 -0.000000  0.000000      3.000000
  0.250000  0.125000  0.000000      6.000000
  0.375000  0.125000  0.000000     12.000000
  0.500000  0.125000  0.000000     12.000000
  0.500000  0.250000  0.000000      6.000000
 -0.375000  0.250000  0.000000      6.000000
 
 Following cartesian coordinates:
            Coordinates               Weight
  0.000000  0.000000  0.000000      1.000000
  0.014183 -0.008188  0.000000      6.000000
  0.028366 -0.016377  0.000000      6.000000
  0.042548 -0.024565  0.000000      6.000000
  0.056731 -0.032754  0.000000      3.000000
  0.028366 -0.000000  0.000000      6.000000
  0.042548 -0.008188  0.000000     12.000000
  0.056731 -0.016377  0.000000     12.000000
  0.056731 -0.000000  0.000000      6.000000
 -0.042548  0.057319  0.000000      6.000000
 


--------------------------------------------------------------------------------------------------------




 Dimension of arrays:
   k-points           NKPTS =     10   k-points in BZ     NKDIM =     10   number of bands    NBANDS=    252
   number of dos      NEDOS =    301   number of ions     NIONS =     37
   non local maximal  LDIM  =      6   non local SUM 2l+1 LMDIM =     18
   total plane-waves  NPLWV = 290304
   max r-space proj   IRMAX =   3166   max aug-charges    IRDMAX=  13626
   dimension x,y,z NGX =    48 NGY =   48 NGZ =  126
   dimension x,y,z NGXF=    96 NGYF=   96 NGZF=  252
   support grid    NGXF=    96 NGYF=   96 NGZF=  252
   ions per type =              35   1   1
   NGX,Y,Z   is equivalent  to a cutoff of   9.05,  9.05,  9.44 a.u.
   NGXF,Y,Z  is equivalent  to a cutoff of  18.11, 18.11, 18.87 a.u.

 SYSTEM =  unknown system                          
 POSCAR =  Au-Ti-N                                 

 Startparameter for this run:
   NWRITE =      2    write-flag & timer
   PREC   = normal    normal or accurate (medium, high low for compatibility)
   ISTART =      0    job   : 0-new  1-cont  2-samecut
   ICHARG =     11    charge: 1-file 2-atom 10-const
   ISPIN  =      1    spin polarized calculation?
   LNONCOLLINEAR =      F non collinear calculations
   LSORBIT =      F    spin-orbit coupling
   INIWAV =      1    electr: 0-lowe 1-rand  2-diag
   LASPH  =      F    aspherical Exc in radial PAW
   METAGGA=      F    non-selfconsistent MetaGGA calc.

 Electronic Relaxation 1
   ENCUT  =  500.0 eV  36.75 Ry    6.06 a.u.  16.07 16.07 40.47*2*pi/ulx,y,z
   ENINI  =  500.0     initial cutoff
   ENAUG  =  627.1 eV  augmentation charge cutoff
   NELM   =    150;   NELMIN=  2; NELMDL= -5     # of ELM steps 
   EDIFF  = 0.1E-04   stopping-criterion for ELM
   LREAL  =      T    real-space projection
   NLSPLINE    = F    spline interpolate recip. space projectors
   LCOMPAT=      F    compatible to vasp.4.4
   GGA_COMPAT  = T    GGA compatible to vasp.4.4-vasp.4.6
   LMAXPAW     = -100 max onsite density
   LMAXMIX     =    2 max onsite mixed and CHGCAR
   VOSKOWN=      0    Vosko Wilk Nusair interpolation
   ROPT   =   -0.00050  -0.00050  -0.00050
 Ionic relaxation
   EDIFFG = -.1E-01   stopping-criterion for IOM
   NSW    =      0    number of steps for IOM
   NBLOCK =      1;   KBLOCK =      1    inner block; outer block 
   IBRION =     -1    ionic relax: 0-MD 1-quasi-New 2-CG
   NFREE  =      1    steps in history (QN), initial steepest desc. (CG)
   ISIF   =      2    stress and relaxation
   IWAVPR =     10    prediction:  0-non 1-charg 2-wave 3-comb
   ISYM   =      2    0-nonsym 1-usesym 2-fastsym
   LCORR  =      T    Harris-Foulkes like correction to forces

   POTIM  = 0.5000    time-step for ionic-motion
   TEIN   =    0.0    initial temperature
   TEBEG  =    0.0;   TEEND  =   0.0 temperature during run
   SMASS  =  -3.00    Nose mass-parameter (am)
   estimated Nose-frequenzy (Omega)   =  0.10E-29 period in steps = 0.13E+47 mass=  -0.178E-26a.u.
   SCALEE = 1.0000    scale energy and forces
   NPACO  =    256;   APACO  = 16.0  distance and # of slots for P.C.
   PSTRESS=    0.0 pullay stress

  Mass of Ions in am
   POMASS = 196.97 47.88 14.00
  Ionic Valenz
   ZVAL   =  11.00  4.00  5.00
  Atomic Wigner-Seitz radii
   RWIGS  =  -1.00 -1.00 -1.00
  virtual crystal weights 
   VCA    =   1.00  1.00  1.00
   NELECT =     394.0000    total number of electrons
   NUPDOWN=      -1.0000    fix difference up-down

 DOS related values:
   EMIN   =  10.00;   EMAX   =-10.00  energy-range for DOS
   EFERMI =   0.00
   ISMEAR =    -5;   SIGMA  =   0.10  broadening in eV -4-tet -1-fermi 0-gaus

 Electronic relaxation 2 (details)
   IALGO  =     68    algorithm
   LDIAG  =      T    sub-space diagonalisation (order eigenvalues)
   LSUBROT=      F    optimize rotation matrix (better conditioning)
   TURBO    =      0    0=normal 1=particle mesh
   IRESTART =      0    0=no restart 2=restart with 2 vectors
   NREBOOT  =      0    no. of reboots
   NMIN     =      0    reboot dimension
   EREF     =   0.00    reference energy to select bands
   IMIX   =      4    mixing-type and parameters
     AMIX     =   0.40;   BMIX     =  1.00
     AMIX_MAG =   1.60;   BMIX_MAG =  1.00
     AMIN     =   0.10
     WC   =   100.;   INIMIX=   1;  MIXPRE=   1;  MAXMIX= -45

 Intra band minimization:
   WEIMIN = 0.0000     energy-eigenvalue tresh-hold
   EBREAK =  0.99E-08  absolut break condition
   DEPER  =   0.30     relativ break condition  

   TIME   =   0.40     timestep for ELM

  volume/ion in A,a.u.               =      40.36       272.33
  Fermi-wavevector in a.u.,A,eV,Ry     =   1.050037  1.984281 15.001469  1.102577
  Thomas-Fermi vector in A             =   2.185024
 
 Write flags
   LWAVE        =      F    write WAVECAR
   LDOWNSAMPLE  =      F    k-point downsampling of WAVECAR
   LCHARG       =      F    write CHGCAR
   LVTOT        =      F    write LOCPOT, total local potential
   LVHAR        =      F    write LOCPOT, Hartree potential only
   LELF         =      F    write electronic localiz. function (ELF)
   LORBIT       =     10    0 simple, 1 ext, 2 COOP (PROOUT), +10 PAW based schemes


 Dipole corrections
   LMONO  =      F    monopole corrections only (constant potential shift)
   LDIPOL =      F    correct potential (dipole corrections)
   IDIPOL =      0    1-x, 2-y, 3-z, 4-all directions 
   EPSILON=  1.0000000 bulk dielectric constant

 Exchange correlation treatment:
   GGA     =    --    GGA type
   LEXCH   =     8    internal setting for exchange type
   VOSKOWN=      0    Vosko Wilk Nusair interpolation
   LHFCALC =     F    Hartree Fock is set to
   LHFONE  =     F    Hartree Fock one center treatment
   AEXX    =    0.0000 exact exchange contribution

 Linear response parameters
   LEPSILON=     F    determine dielectric tensor
   LRPA    =     F    only Hartree local field effects (RPA)
   LNABLA  =     F    use nabla operator in PAW spheres
   LVEL    =     F    velocity operator in full k-point grid
   LINTERFAST=   F  fast interpolation
   KINTER  =     0    interpolate to denser k-point grid
   CSHIFT  =0.1000    complex shift for real part using Kramers Kronig
   OMEGAMAX=  -1.0    maximum frequency
   DEG_THRESHOLD= 0.2000000E-02 threshold for treating states as degnerate
   RTIME   =   -0.100 relaxation time in fs
  (WPLASMAI=    0.000 imaginary part of plasma frequency in eV, 0.658/RTIME)
   DFIELD  = 0.0000000 0.0000000 0.0000000 field for delta impulse in time
 
 Orbital magnetization related:
   ORBITALMAG=     F  switch on orbital magnetization
   LCHIMAG   =     F  perturbation theory with respect to B field
   DQ        =  0.001000  dq finite difference perturbation B field
   LLRAUG    =     F  two centre corrections for induced B field



--------------------------------------------------------------------------------------------------------


 Static calculation
 charge density and potential remain constant during run
 non-spin polarized calculation
 RMM-DIIS sequential band-by-band and
  variant of blocked Davidson during initial phase
 perform sub-space diagonalisation
    before iterative eigenvector-optimisation
 no mixing
 using additional bands           55
 real space projection scheme for non local part
 use partial core corrections
 calculate Harris-corrections to forces 
   (improved forces if not selfconsistent)
 use gradient corrections 
 WARNING: stress and forces are not correct
  (second derivative of E(xc) not defined)
 use of overlap-Matrix (Vanderbilt PP)
 Fermi weights with tetrahedron method with Bloechl corrections


--------------------------------------------------------------------------------------------------------


  energy-cutoff  :      500.00
  volume of cell :     1493.16
      direct lattice vectors                 reciprocal lattice vectors
     8.813512802  0.000000000  0.000000000     0.113462137 -0.065507406  0.000000000
     4.406756909  7.632725690  0.000000000     0.000000000  0.131014796  0.000000000
     0.000000000  0.000000000 22.196203232     0.000000000  0.000000000  0.045052750

  length of vectors
     8.813512802  8.813512802 22.196203232     0.131014796  0.131014796  0.045052750


 
 k-points in units of 2pi/SCALE and weight: Automatic mesh                          
   0.00000000  0.00000000  0.00000000       0.016
   0.01418277 -0.00818843  0.00000000       0.094
   0.02836553 -0.01637685  0.00000000       0.094
   0.04254830 -0.02456528  0.00000000       0.094
   0.05673107 -0.03275370  0.00000000       0.047
   0.02836553 -0.00000000  0.00000000       0.094
   0.04254830 -0.00818843  0.00000000       0.188
   0.05673107 -0.01637685  0.00000000       0.188
   0.05673107 -0.00000000  0.00000000       0.094
  -0.04254830  0.05731898  0.00000000       0.094
 
 k-points in reciprocal lattice and weights: Automatic mesh                          
   0.00000000  0.00000000  0.00000000       0.016
   0.12500000 -0.00000000  0.00000000       0.094
   0.25000000 -0.00000000  0.00000000       0.094
   0.37500000  0.00000000  0.00000000       0.094
   0.50000000 -0.00000000  0.00000000       0.047
   0.25000000  0.12500000  0.00000000       0.094
   0.37500000  0.12500000  0.00000000       0.188
   0.50000000  0.12500000  0.00000000       0.188
   0.50000000  0.25000000  0.00000000       0.094
  -0.37500000  0.25000000  0.00000000       0.094
 
 position of ions in fractional coordinates (direct lattice) 
   0.00000000  0.00000000  0.23789564
   0.33333334  0.00000000  0.23789564
   0.66666669  0.00000000  0.23789564
   0.00000000  0.33333334  0.23789564
   0.33333331  0.33333334  0.23789564
   0.66666669  0.33333334  0.23789564
   0.00000000  0.66666669  0.23789564
   0.33333334  0.66666669  0.23789564
   0.66666663  0.66666669  0.23789564
   0.11111112  0.11111111  0.34596521
   0.44444442  0.11111111  0.34596521
   0.77777779  0.11111111  0.34596521
   0.11111113  0.44444445  0.34596521
   0.44444448  0.44444445  0.34596521
   0.77777773  0.44444445  0.34596521
   0.11111109  0.77777779  0.34596521
   0.44444445  0.77777779  0.34596521
   0.77777785  0.77777779  0.34596521
   0.88889034  0.22221935  0.45383034
   0.22310413  0.22310412  0.45341101
   0.55379179  0.22310412  0.45341101
   0.88722407  0.55638799  0.45350062
   0.22310409  0.55379179  0.45341101
   0.55638799  0.55638799  0.45350062
   0.88889034  0.88889034  0.45383034
   0.22221938  0.88889034  0.45383034
   0.55638793  0.88722407  0.45350062
   0.00000000  0.00000000  0.56271478
   0.33374625  0.00895223  0.56449549
   0.65730155  0.00895223  0.56449549
   0.00895223  0.33374625  0.56449549
   0.65730155  0.33374625  0.56449549
   0.00895223  0.65730155  0.56449549
   0.33374625  0.65730155  0.56449549
   0.66666663  0.66666669  0.56324092
   0.33333331  0.33333334  0.55222924
   0.33333331  0.33333334  0.62995957
 
 position of ions in cartesian coordinates  (Angst):
   0.00000000  0.00000000  5.28037993
   2.93783769  0.00000000  5.28037993
   5.87567538  0.00000000  5.28037993
   1.46891901  2.54424197  5.28037993
   4.40675643  2.54424197  5.28037993
   7.34459439  2.54424197  5.28037993
   2.93783803  5.08848395  5.28037993
   5.87567571  5.08848395  5.28037993
   8.81351288  5.08848395  5.28037993
   1.46891893  0.84808064  7.67911405
   4.40675623  0.84808064  7.67911405
   7.34459418  0.84808064  7.67911405
   2.93783798  3.39232256  7.67911405
   5.87567574  3.39232256  7.67911405
   8.81351263  3.39232256  7.67911405
   4.40675667  5.93656453  7.67911405
   7.34459449  5.93656453  7.67911405
  10.28243270  5.93656453  7.67911405
   8.81351299  1.69613931 10.07331052
   2.94949675  1.70289254 10.06400288
   5.86401667  1.70289254 10.06400288
  10.27142737  4.24675692 10.06599193
   4.40675655  4.22694084 10.06400288
   7.35559933  4.24675692 10.06599193
  11.75136997  6.78465610 10.07331052
   5.87565694  6.78465610 10.07331052
   8.81351299  6.77193799 10.06599193
   0.00000000  0.00000000 12.49013164
   2.98092715  0.06832991 12.52965656
   5.83258592  0.06832991 12.52965656
   1.54963919  2.54739358 12.52965656
   7.26387422  2.54739358 12.52965656
   2.97546874  5.01700243 12.52965656
   5.83804500  5.01700243 12.52965656
   8.81351288  5.08848395 12.50180987
   4.40675643  2.54424197 12.25739240
   4.40675643  2.54424197 13.98271063
 


--------------------------------------------------------------------------------------------------------


 k-point   1 :   0.0000 0.0000 0.0000  plane waves:   37827
 k-point   2 :   0.1250-0.0000 0.0000  plane waves:   37876
 k-point   3 :   0.2500-0.0000 0.0000  plane waves:   37924
 k-point   4 :   0.3750 0.0000 0.0000  plane waves:   37904
 k-point   5 :   0.5000-0.0000 0.0000  plane waves:   37912
 k-point   6 :   0.2500 0.1250 0.0000  plane waves:   37858
 k-point   7 :   0.3750 0.1250 0.0000  plane waves:   37928
 k-point   8 :   0.5000 0.1250 0.0000  plane waves:   37924
 k-point   9 :   0.5000 0.2500 0.0000  plane waves:   37926
 k-point  10 :  -0.3750 0.2500 0.0000  plane waves:   37916

 maximum and minimum number of plane-waves per node :     37928    37827

 maximum number of plane-waves:     37928
 maximum index in each direction: 
   IXMAX=   16   IYMAX=   16   IZMAX=   40
   IXMIN=  -16   IYMIN=  -16   IZMIN=  -40


 serial   3D FFT for wavefunctions
 parallel 3D FFT for charge:
    minimum data exchange during FFTs selected (reduces bandwidth)


 total amount of memory used by VASP MPI-rank0   122567. kBytes
=======================================================================

   base      :      30000. kBytes
   nonlr-proj:      14182. kBytes
   fftplans  :       4330. kBytes
   grid      :      17879. kBytes
   one-center:        575. kBytes
   wavefun   :      55601. kBytes
 
     INWAV:  cpu time    0.0000: real time    0.0000
 initial charge density was supplied:
 number of electron     394.0000029 magnetization 
 keeping initial charge density in first step


--------------------------------------------------------------------------------------------------------


 Maximum index for non-local projection operator         3024
 Maximum index for augmentation-charges          858 (set IRDMAX)


--------------------------------------------------------------------------------------------------------


 First call to EWALD:  gamma=   0.155
 Maximum number of real-space cells 4x 4x 2
 Maximum number of reciprocal cells 2x 2x 5

    FEWALD:  cpu time    0.0013: real time    0.0013


--------------------------------------- Iteration      1(   1)  ---------------------------------------


    POTLOK:  cpu time    0.0433: real time    0.0438
    SETDIJ:  cpu time    0.0052: real time    0.0053
     EDDAV:  cpu time    7.1248: real time    7.1427
 BZINTS: Fermi energy:   11.223551;  394.000000 electrons
         Band energy: 0.148182E+04;  BLOECHL correction:   -0.019568
       DOS:  cpu time    0.0105: real time    0.0105
    --------------------------------------------
      LOOP:  cpu time    7.1838: real time    7.2023

 eigenvalue-minimisations  :  5040
 total energy-change (2. order) : 0.2625059E+04  (-0.1779278E+05)
 number of electron     394.0000029 magnetization 
 augmentation part      394.0000029 magnetization 

 Free energy of the ion-electron system (eV)
  ---------------------------------------------------
  alpha Z        PSCENC =      1006.87891342
  Ewald energy   TEWEN  =     94306.92207546
  -Hartree energ DENC   =   -128211.22834157
  -exchange      EXHF   =         0.00000000
  -V(xc)+E(xc)   XCENC  =       500.09386459
  PAW double counting   =     35855.36392913   -35087.00649260
  entropy T*S    EENTRO =         0.00000000
  eigenvalues    EBANDS =      1481.82182695
  atomic energy  EATOM  =     32772.21369835
  Solvation  Ediel_sol  =         0.00000000
  ---------------------------------------------------
  free energy    TOTEN  =      2625.05947373 eV

  energy without entropy =     2625.05947373  energy(sigma->0) =     2625.05947373


--------------------------------------------------------------------------------------------------------




--------------------------------------- Iteration      1(   2)  ---------------------------------------


     EDDAV:  cpu time    7.7223: real time    7.7259
 BZINTS: Fermi energy:    1.413170;  394.000000 electrons
         Band energy:-0.113097E+04;  BLOECHL correction:   -0.024549
       DOS:  cpu time    0.0098: real time    0.0098
    --------------------------------------------
      LOOP:  cpu time    7.7321: real time    7.7357

 eigenvalue-minimisations  :  5600
 total energy-change (2. order) :-0.2612794E+04  (-0.2400677E+04)
 number of electron     394.0000029 magnetization 
 augmentation part      394.0000029 magnetization 

 Free energy of the ion-electron system (eV)
  ---------------------------------------------------
  alpha Z        PSCENC =      1006.87891342
  Ewald energy   TEWEN  =     94306.92207546
  -Hartree energ DENC   =   -128211.22834157
  -exchange      EXHF   =         0.00000000
  -V(xc)+E(xc)   XCENC  =       500.09386459
  PAW double counting   =     35855.36392913   -35087.00649260
  entropy T*S    EENTRO =         0.00000000
  eigenvalues    EBANDS =     -1130.97184977
  atomic energy  EATOM  =     32772.21369835
  Solvation  Ediel_sol  =         0.00000000
  ---------------------------------------------------
  free energy    TOTEN  =        12.26579700 eV

  energy without entropy =       12.26579700  energy(sigma->0) =       12.26579700


--------------------------------------------------------------------------------------------------------




--------------------------------------- Iteration      1(   3)  ---------------------------------------


     EDDAV:  cpu time    8.0580: real time    8.0584
 BZINTS: Fermi energy:    0.553327;  394.000000 electrons
         Band energy:-0.126216E+04;  BLOECHL correction:   -0.084723
       DOS:  cpu time    0.0098: real time    0.0098
    --------------------------------------------
      LOOP:  cpu time    8.0678: real time    8.0682

 eigenvalue-minimisations  :  5880
 total energy-change (2. order) :-0.1311839E+03  (-0.1255146E+03)
 number of electron     394.0000029 magnetization 
 augmentation part      394.0000029 magnetization 

 Free energy of the ion-electron system (eV)
  ---------------------------------------------------
  alpha Z        PSCENC =      1006.87891342
  Ewald energy   TEWEN  =     94306.92207546
  -Hartree energ DENC   =   -128211.22834157
  -exchange      EXHF   =         0.00000000
  -V(xc)+E(xc)   XCENC  =       500.09386459
  PAW double counting   =     35855.36392913   -35087.00649260
  entropy T*S    EENTRO =         0.00000000
  eigenvalues    EBANDS =     -1262.15576849
  atomic energy  EATOM  =     32772.21369835
  Solvation  Ediel_sol  =         0.00000000
  ---------------------------------------------------
  free energy    TOTEN  =      -118.91812172 eV

  energy without entropy =     -118.91812172  energy(sigma->0) =     -118.91812172


--------------------------------------------------------------------------------------------------------




--------------------------------------- Iteration      1(   4)  ---------------------------------------


     EDDAV:  cpu time    7.6735: real time    7.6737
 BZINTS: Fermi energy:    0.533368;  394.000000 electrons
         Band energy:-0.126501E+04;  BLOECHL correction:   -0.086615
       DOS:  cpu time    0.0096: real time    0.0096
    --------------------------------------------
      LOOP:  cpu time    7.6831: real time    7.6833

 eigenvalue-minimisations  :  5544
 total energy-change (2. order) :-0.2850000E+01  (-0.2840792E+01)
 number of electron     394.0000029 magnetization 
 augmentation part      394.0000029 magnetization 

 Free energy of the ion-electron system (eV)
  ---------------------------------------------------
  alpha Z        PSCENC =      1006.87891342
  Ewald energy   TEWEN  =     94306.92207546
  -Hartree energ DENC   =   -128211.22834157
  -exchange      EXHF   =         0.00000000
  -V(xc)+E(xc)   XCENC  =       500.09386459
  PAW double counting   =     35855.36392913   -35087.00649260
  entropy T*S    EENTRO =         0.00000000
  eigenvalues    EBANDS =     -1265.00576836
  atomic energy  EATOM  =     32772.21369835
  Solvation  Ediel_sol  =         0.00000000
  ---------------------------------------------------
  free energy    TOTEN  =      -121.76812159 eV

  energy without entropy =     -121.76812159  energy(sigma->0) =     -121.76812159


--------------------------------------------------------------------------------------------------------




--------------------------------------- Iteration      1(   5)  ---------------------------------------


     EDDAV:  cpu time    8.5669: real time    8.5673
 BZINTS: Fermi energy:    0.532940;  394.000000 electrons
         Band energy:-0.126510E+04;  BLOECHL correction:   -0.086643
       DOS:  cpu time    0.0100: real time    0.0100
    --------------------------------------------
      LOOP:  cpu time    8.5769: real time    8.5773

 eigenvalue-minimisations  :  6328
 total energy-change (2. order) :-0.9368544E-01  (-0.9366406E-01)
 number of electron     394.0000029 magnetization 
 augmentation part      394.0000029 magnetization 

 Free energy of the ion-electron system (eV)
  ---------------------------------------------------
  alpha Z        PSCENC =      1006.87891342
  Ewald energy   TEWEN  =     94306.92207546
  -Hartree energ DENC   =   -128211.22834157
  -exchange      EXHF   =         0.00000000
  -V(xc)+E(xc)   XCENC  =       500.09386459
  PAW double counting   =     35855.36392913   -35087.00649260
  entropy T*S    EENTRO =         0.00000000
  eigenvalues    EBANDS =     -1265.09945380
  atomic energy  EATOM  =     32772.21369835
  Solvation  Ediel_sol  =         0.00000000
  ---------------------------------------------------
  free energy    TOTEN  =      -121.86180703 eV

  energy without entropy =     -121.86180703  energy(sigma->0) =     -121.86180703


--------------------------------------------------------------------------------------------------------




--------------------------------------- Iteration      1(   6)  ---------------------------------------


    EDDIAG:  cpu time    1.3982: real time    1.3985
  RMM-DIIS:  cpu time    3.9809: real time    3.9810
    ORTHCH:  cpu time    0.2608: real time    0.2608
 BZINTS: Fermi energy:    0.532931;  394.000000 electrons
         Band energy:-0.126510E+04;  BLOECHL correction:   -0.086641
       DOS:  cpu time    0.0102: real time    0.0102
    --------------------------------------------
      LOOP:  cpu time    5.6502: real time    5.6505

 eigenvalue-minimisations  :  5129
 total energy-change (2. order) :-0.1880011E-02  (-0.1881619E-02)
 number of electron     394.0000029 magnetization 
 augmentation part      394.0000029 magnetization 

 Free energy of the ion-electron system (eV)
  ---------------------------------------------------
  alpha Z        PSCENC =      1006.87891342
  Ewald energy   TEWEN  =     94306.92207546
  -Hartree energ DENC   =   -128211.22834157
  -exchange      EXHF   =         0.00000000
  -V(xc)+E(xc)   XCENC  =       500.09386459
  PAW double counting   =     35855.36392913   -35087.00649260
  entropy T*S    EENTRO =         0.00000000
  eigenvalues    EBANDS =     -1265.10133381
  atomic energy  EATOM  =     32772.21369835
  Solvation  Ediel_sol  =         0.00000000
  ---------------------------------------------------
  free energy    TOTEN  =      -121.86368704 eV

  energy without entropy =     -121.86368704  energy(sigma->0) =     -121.86368704


--------------------------------------------------------------------------------------------------------




--------------------------------------- Iteration      1(   7)  ---------------------------------------


    EDDIAG:  cpu time    1.3987: real time    1.3989
  RMM-DIIS:  cpu time    5.3296: real time    5.3298
    ORTHCH:  cpu time    0.2605: real time    0.2605
 BZINTS: Fermi energy:    0.532928;  394.000000 electrons
         Band energy:-0.126510E+04;  BLOECHL correction:   -0.086640
       DOS:  cpu time    0.0098: real time    0.0098
    --------------------------------------------
      LOOP:  cpu time    6.9986: real time    6.9990

 eigenvalue-minimisations  :  6847
 total energy-change (2. order) :-0.5979920E-03  (-0.5946317E-03)
 number of electron     394.0000029 magnetization 
 augmentation part      394.0000029 magnetization 

 Free energy of the ion-electron system (eV)
  ---------------------------------------------------
  alpha Z        PSCENC =      1006.87891342
  Ewald energy   TEWEN  =     94306.92207546
  -Hartree energ DENC   =   -128211.22834157
  -exchange      EXHF   =         0.00000000
  -V(xc)+E(xc)   XCENC  =       500.09386459
  PAW double counting   =     35855.36392913   -35087.00649260
  entropy T*S    EENTRO =         0.00000000
  eigenvalues    EBANDS =     -1265.10193180
  atomic energy  EATOM  =     32772.21369835
  Solvation  Ediel_sol  =         0.00000000
  ---------------------------------------------------
  free energy    TOTEN  =      -121.86428503 eV

  energy without entropy =     -121.86428503  energy(sigma->0) =     -121.86428503


--------------------------------------------------------------------------------------------------------




--------------------------------------- Iteration      1(   8)  ---------------------------------------


    EDDIAG:  cpu time    1.4005: real time    1.4006
  RMM-DIIS:  cpu time    4.5455: real time    4.5456
    ORTHCH:  cpu time    0.2608: real time    0.2608
 BZINTS: Fermi energy:    0.532928;  394.000000 electrons
         Band energy:-0.126510E+04;  BLOECHL correction:   -0.086640
       DOS:  cpu time    0.0094: real time    0.0094
    --------------------------------------------
      LOOP:  cpu time    6.2161: real time    6.2163

 eigenvalue-minimisations  :  5814
 total energy-change (2. order) :-0.4991457E-04  (-0.4912343E-04)
 number of electron     394.0000029 magnetization 
 augmentation part      394.0000029 magnetization 

 Free energy of the ion-electron system (eV)
  ---------------------------------------------------
  alpha Z        PSCENC =      1006.87891342
  Ewald energy   TEWEN  =     94306.92207546
  -Hartree energ DENC   =   -128211.22834157
  -exchange      EXHF   =         0.00000000
  -V(xc)+E(xc)   XCENC  =       500.09386459
  PAW double counting   =     35855.36392913   -35087.00649260
  entropy T*S    EENTRO =         0.00000000
  eigenvalues    EBANDS =     -1265.10198172
  atomic energy  EATOM  =     32772.21369835
  Solvation  Ediel_sol  =         0.00000000
  ---------------------------------------------------
  free energy    TOTEN  =      -121.86433494 eV

  energy without entropy =     -121.86433494  energy(sigma->0) =     -121.86433494


--------------------------------------------------------------------------------------------------------




--------------------------------------- Iteration      1(   9)  ---------------------------------------


    EDDIAG:  cpu time    1.4001: real time    1.4003
  RMM-DIIS:  cpu time    3.1126: real time    3.1127
    ORTHCH:  cpu time    0.2606: real time    0.2607
 BZINTS: Fermi energy:    0.532928;  394.000000 electrons
         Band energy:-0.126510E+04;  BLOECHL correction:   -0.086640
       DOS:  cpu time    0.0100: real time    0.0100
    --------------------------------------------
      LOOP:  cpu time    4.7833: real time    4.7837

 eigenvalue-minimisations  :  3429
 total energy-change (2. order) :-0.4847214E-05  (-0.4747091E-05)
 number of electron     394.0000029 magnetization 
 augmentation part      394.0000029 magnetization 

 Free energy of the ion-electron system (eV)
  ---------------------------------------------------
  alpha Z        PSCENC =      1006.87891342
  Ewald energy   TEWEN  =     94306.92207546
  -Hartree energ DENC   =   -128211.22834157
  -exchange      EXHF   =         0.00000000
  -V(xc)+E(xc)   XCENC  =       500.09386459
  PAW double counting   =     35855.36392913   -35087.00649260
  entropy T*S    EENTRO =         0.00000000
  eigenvalues    EBANDS =     -1265.10198657
  atomic energy  EATOM  =     32772.21369835
  Solvation  Ediel_sol  =         0.00000000
  ---------------------------------------------------
  free energy    TOTEN  =      -121.86433979 eV

  energy without entropy =     -121.86433979  energy(sigma->0) =     -121.86433979


--------------------------------------------------------------------------------------------------------




 average (electrostatic) potential at core
  the test charge radii are     1.2098  1.2598  0.7089
  (the norm of the test charge is              1.0000)
       1 -72.5017       2 -72.4962       3 -72.4961       4 -72.4962       5 -72.5045
       6 -72.4959       7 -72.4961       8 -72.4959       9 -72.4886      10 -72.8386
      11 -72.8308      12 -72.8384      13 -72.8308      14 -72.8306      15 -72.8347
      16 -72.8384      17 -72.8347      18 -72.8349      19 -72.7838      20 -73.0385
      21 -73.0386      22 -72.8015      23 -73.0386      24 -72.8013      25 -72.7840
      26 -72.7838      27 -72.8015      28 -72.4486      29 -72.5208      30 -72.5209
      31 -72.5208      32 -72.5207      33 -72.5209      34 -72.5207      35 -72.4461
      36 -28.9079      37 -67.1541
 
 
 
 E-fermi :   0.5329     XC(G=0):  -6.1340     alpha+bet : -5.7513

 Fermi energy:         0.5329283639

 k-point     1 :       0.0000    0.0000    0.0000
  band No.  band energies     occupation 
      1     -11.0124      2.00000
      2      -8.2662      2.00000
      3      -7.0689      2.00000
      4      -6.1575      2.00000
      5      -6.1375      2.00000
      6      -6.1375      2.00000
      7      -6.1307      2.00000
      8      -6.1140      2.00000
      9      -6.0852      2.00000
     10      -6.0852      2.00000
     11      -5.9953      2.00000
     12      -5.6614      2.00000
     13      -5.6563      2.00000
     14      -5.6563      2.00000
     15      -5.5944      2.00000
     16      -5.5944      2.00000
     17      -5.5933      2.00000
     18      -5.2718      2.00000
     19      -5.2718      2.00000
     20      -5.2568      2.00000
     21      -5.2408      2.00000
     22      -5.2169      2.00000
     23      -5.2169      2.00000
     24      -5.0811      2.00000
     25      -5.0811      2.00000
     26      -5.0760      2.00000
     27      -5.0584      2.00000
     28      -5.0584      2.00000
     29      -5.0436      2.00000
     30      -4.9223      2.00000
     31      -4.9188      2.00000
     32      -4.9188      2.00000
     33      -4.8976      2.00000
     34      -4.8976      2.00000
     35      -4.8952      2.00000
     36      -4.8952      2.00000
     37      -4.8824      2.00000
     38      -4.8704      2.00000
     39      -4.7634      2.00000
     40      -4.7634      2.00000
     41      -4.7304      2.00000
     42      -4.4078      2.00000
     43      -4.4078      2.00000
     44      -4.3855      2.00000
     45      -4.3585      2.00000
     46      -4.3585      2.00000
     47      -4.3367      2.00000
     48      -4.3367      2.00000
     49      -4.3207      2.00000
     50      -4.2894      2.00000
     51      -4.2894      2.00000
     52      -4.2527      2.00000
     53      -4.2459      2.00000
     54      -4.1761      2.00000
     55      -4.1568      2.00000
     56      -3.8643      2.00000
     57      -3.8347      2.00000
     58      -3.8347      2.00000
     59      -3.8322      2.00000
     60      -3.8187      2.00000
     61      -3.8187      2.00000
     62      -3.8147      2.00000
     63      -3.7630      2.00000
     64      -3.7630      2.00000
     65      -3.7012      2.00000
     66      -3.7012      2.00000
     67      -3.6743      2.00000
     68      -3.6639      2.00000
     69      -3.6639      2.00000
     70      -3.6259      2.00000
     71      -3.5963      2.00000
     72      -3.5963      2.00000
     73      -3.5656      2.00000
     74      -3.5643      2.00000
     75      -3.5643      2.00000
     76      -3.5600      2.00000
     77      -3.5490      2.00000
     78      -3.5490      2.00000
     79      -3.5467      2.00000
     80      -3.5467      2.00000
     81      -3.4867      2.00000
     82      -3.4867      2.00000
     83      -3.4799      2.00000
     84      -3.4320      2.00000
     85      -3.4320      2.00000
     86      -3.4112      2.00000
     87      -3.4112      2.00000
     88      -3.3980      2.00000
     89      -3.3857      2.00000
     90      -3.3297      2.00000
     91      -3.3297      2.00000
     92      -3.2366      2.00000
     93      -3.2366      2.00000
     94      -3.1898      2.00000
     95      -3.1898      2.00000
     96      -3.1376      2.00000
     97      -3.1376      2.00000
     98      -3.1263      2.00000
     99      -3.1263      2.00000
    100      -2.9763      2.00000
    101      -2.9634      2.00000
    102      -2.9633      2.00000
    103      -2.9404      2.00000
    104      -2.9404      2.00000
    105      -2.9291      2.00000
    106      -2.7828      2.00000
    107      -2.7532      2.00000
    108      -2.7532      2.00000
    109      -2.7289      2.00000
    110      -2.7279      2.00000
    111      -2.7279      2.00000
    112      -2.6738      2.00000
    113      -2.6688      2.00000
    114      -2.6688      2.00000
    115      -2.6446      2.00000
    116      -2.6429      2.00000
    117      -2.5322      2.00000
    118      -2.5321      2.00000
    119      -2.4928      2.00000
    120      -2.4584      2.00000
    121      -2.4583      2.00000
    122      -2.4259      2.00000
    123      -2.4061      2.00000
    124      -2.4061      2.00000
    125      -2.3697      2.00000
    126      -2.3697      2.00000
    127      -2.3622      2.00000
    128      -2.3622      2.00000
    129      -2.2465      2.00000
    130      -2.2465      2.00000
    131      -2.2066      2.00000
    132      -2.2065      2.00000
    133      -2.2062      2.00000
    134      -2.1799      2.00000
    135      -2.1799      2.00000
    136      -2.1792      2.00000
    137      -2.1791      2.00000
    138      -2.1460      2.00000
    139      -2.1459      2.00000
    140      -2.0568      2.00000
    141      -2.0567      2.00000
    142      -2.0106      2.00000
    143      -1.9762      2.00000
    144      -1.9762      2.00000
    145      -1.9697      2.00000
    146      -1.9381      2.00000
    147      -1.9381      2.00000
    148      -1.9207      2.00000
    149      -1.9206      2.00000
    150      -1.9162      2.00000
    151      -1.8786      2.00000
    152      -1.8757      2.00000
    153      -1.8756      2.00000
    154      -1.8614      2.00000
    155      -1.8032      2.00000
    156      -1.7641      2.00000
    157      -1.7632      2.00000
    158      -1.7632      2.00000
    159      -1.7617      2.00000
    160      -1.7617      2.00000
    161      -1.7591      2.00000
    162      -1.7091      2.00000
    163      -1.7091      2.00000
    164      -1.7052      2.00000
    165      -1.7052      2.00000
    166      -1.7051      2.00000
    167      -1.6832      2.00000
    168      -1.6832      2.00000
    169      -1.6506      2.00000
    170      -1.6343      2.00000
    171      -1.6299      2.00000
    172      -1.6299      2.00000
    173      -1.6111      2.00000
    174      -1.6093      2.00000
    175      -1.6068      2.00000
    176      -1.6068      2.00000
    177      -1.5793      2.00000
    178      -1.5624      2.00000
    179      -1.5624      2.00000
    180      -1.5255      2.00000
    181      -1.5255      2.00000
    182      -1.5104      2.00000
    183      -1.4741      2.00000
    184      -1.4637      2.00000
    185      -1.4636      2.00000
    186      -1.3587      2.00000
    187      -1.3587      2.00000
    188      -1.3504      2.00000
    189      -1.3231      2.00000
    190      -1.3231      2.00000
    191      -1.3001      2.00000
    192      -0.6342      2.00000
    193      -0.6342      2.00000
    194      -0.4920      2.00000
    195      -0.3313      2.00000
    196      -0.0541      2.00000
    197      -0.0541      2.00000
    198      -0.0427      2.00000
    199       0.1644      2.00000
    200       0.3557      2.00000
    201       0.3557      1.79873
    202       1.0462      0.00000
    203       1.7181      0.00000
    204       1.7181      0.00000
    205       2.0184      0.00000
    206       2.0737      0.00000
    207       2.1167      0.00000
    208       2.1168      0.00000
    209       2.2767      0.00000
    210       2.2767      0.00000
    211       3.0640      0.00000
    212       3.0640      0.00000
    213       3.3523      0.00000
    214       3.3523      0.00000
    215       3.3628      0.00000
    216       3.5423      0.00000
    217       3.9301      0.00000
    218       4.0702      0.00000
    219       4.0702      0.00000
    220       4.5204      0.00000
    221       4.9542      0.00000
    222       5.2130      0.00000
    223       5.2388      0.00000
    224       5.2388      0.00000
    225       5.2768      0.00000
    226       5.2768      0.00000
    227       5.3929      0.00000
    228       5.4132      0.00000
    229       5.4132      0.00000
    230       5.5769      0.00000
    231       5.5769      0.00000
    232       5.7164      0.00000
    233       5.8759      0.00000
    234       5.9853      0.00000
    235       6.8765      0.00000
    236       6.9012      0.00000
    237       6.9018      0.00000
    238       6.9078      0.00000
    239       6.9496      0.00000
    240       6.9500      0.00000
    241       6.9603      0.00000
    242       7.0169      0.00000
    243       7.0176      0.00000
    244       7.0979      0.00000
    245       7.1007      0.00000
    246       7.1288      0.00000
    247       7.2334      0.00000
    248       7.3042      0.00000
    249       7.3048      0.00000
    250       7.3516      0.00000
    251       7.4998      0.00000
    252       7.5235      0.00000

 k-point     2 :       0.1250   -0.0000    0.0000
  band No.  band energies     occupation 
      1     -11.0122      2.00000
      2      -8.2154      2.00000
      3      -7.0195      2.00000
      4      -6.3679      2.00000
      5      -6.1918      2.00000
      6      -6.1900      2.00000
      7      -6.1055      2.00000
      8      -6.0154      2.00000
      9      -5.9944      2.00000
     10      -5.9867      2.00000
     11      -5.9468      2.00000
     12      -5.6898      2.00000
     13      -5.6351      2.00000
     14      -5.6321      2.00000
     15      -5.6245      2.00000
     16      -5.5701      2.00000
     17      -5.5670      2.00000
     18      -5.3145      2.00000
     19      -5.2625      2.00000
     20      -5.2622      2.00000
     21      -5.2219      2.00000
     22      -5.1971      2.00000
     23      -5.1957      2.00000
     24      -5.1419      2.00000
     25      -5.0919      2.00000
     26      -5.0870      2.00000
     27      -5.0347      2.00000
     28      -5.0253      2.00000
     29      -4.9868      2.00000
     30      -4.9824      2.00000
     31      -4.9792      2.00000
     32      -4.9555      2.00000
     33      -4.9467      2.00000
     34      -4.8915      2.00000
     35      -4.8683      2.00000
     36      -4.8649      2.00000
     37      -4.7788      2.00000
     38      -4.7718      2.00000
     39      -4.7437      2.00000
     40      -4.7300      2.00000
     41      -4.6987      2.00000
     42      -4.4717      2.00000
     43      -4.4685      2.00000
     44      -4.4319      2.00000
     45      -4.4058      2.00000
     46      -4.3891      2.00000
     47      -4.3846      2.00000
     48      -4.3600      2.00000
     49      -4.2893      2.00000
     50      -4.2704      2.00000
     51      -4.2341      2.00000
     52      -4.2111      2.00000
     53      -4.1935      2.00000
     54      -4.1722      2.00000
     55      -4.1553      2.00000
     56      -3.8950      2.00000
     57      -3.8793      2.00000
     58      -3.8591      2.00000
     59      -3.8545      2.00000
     60      -3.8446      2.00000
     61      -3.8213      2.00000
     62      -3.8184      2.00000
     63      -3.8027      2.00000
     64      -3.7862      2.00000
     65      -3.7514      2.00000
     66      -3.7421      2.00000
     67      -3.7340      2.00000
     68      -3.7176      2.00000
     69      -3.6890      2.00000
     70      -3.6860      2.00000
     71      -3.6674      2.00000
     72      -3.6581      2.00000
     73      -3.6233      2.00000
     74      -3.6138      2.00000
     75      -3.6082      2.00000
     76      -3.6009      2.00000
     77      -3.5719      2.00000
     78      -3.5319      2.00000
     79      -3.5263      2.00000
     80      -3.4994      2.00000
     81      -3.4870      2.00000
     82      -3.4519      2.00000
     83      -3.4443      2.00000
     84      -3.4162      2.00000
     85      -3.4144      2.00000
     86      -3.3878      2.00000
     87      -3.3662      2.00000
     88      -3.3499      2.00000
     89      -3.3486      2.00000
     90      -3.3034      2.00000
     91      -3.2944      2.00000
     92      -3.2705      2.00000
     93      -3.2476      2.00000
     94      -3.2102      2.00000
     95      -3.2066      2.00000
     96      -3.1488      2.00000
     97      -3.1202      2.00000
     98      -3.0798      2.00000
     99      -3.0588      2.00000
    100      -3.0465      2.00000
    101      -2.9953      2.00000
    102      -2.9946      2.00000
    103      -2.9643      2.00000
    104      -2.9346      2.00000
    105      -2.8732      2.00000
    106      -2.8686      2.00000
    107      -2.8474      2.00000
    108      -2.7871      2.00000
    109      -2.7861      2.00000
    110      -2.7666      2.00000
    111      -2.7465      2.00000
    112      -2.7373      2.00000
    113      -2.7241      2.00000
    114      -2.6969      2.00000
    115      -2.6892      2.00000
    116      -2.6794      2.00000
    117      -2.6600      2.00000
    118      -2.6481      2.00000
    119      -2.6374      2.00000
    120      -2.5895      2.00000
    121      -2.5079      2.00000
    122      -2.4863      2.00000
    123      -2.4399      2.00000
    124      -2.4191      2.00000
    125      -2.4180      2.00000
    126      -2.3812      2.00000
    127      -2.3644      2.00000
    128      -2.3469      2.00000
    129      -2.3371      2.00000
    130      -2.3317      2.00000
    131      -2.3277      2.00000
    132      -2.2909      2.00000
    133      -2.2869      2.00000
    134      -2.2737      2.00000
    135      -2.1987      2.00000
    136      -2.1936      2.00000
    137      -2.1642      2.00000
    138      -2.1225      2.00000
    139      -2.1138      2.00000
    140      -2.1092      2.00000
    141      -2.0865      2.00000
    142      -2.0824      2.00000
    143      -2.0420      2.00000
    144      -2.0114      2.00000
    145      -1.9918      2.00000
    146      -1.9388      2.00000
    147      -1.9195      2.00000
    148      -1.9143      2.00000
    149      -1.8958      2.00000
    150      -1.8954      2.00000
    151      -1.8713      2.00000
    152      -1.8689      2.00000
    153      -1.8463      2.00000
    154      -1.8417      2.00000
    155      -1.7805      2.00000
    156      -1.7793      2.00000
    157      -1.7691      2.00000
    158      -1.7453      2.00000
    159      -1.7434      2.00000
    160      -1.7343      2.00000
    161      -1.7094      2.00000
    162      -1.6861      2.00000
    163      -1.6821      2.00000
    164      -1.6750      2.00000
    165      -1.6626      2.00000
    166      -1.6487      2.00000
    167      -1.6381      2.00000
    168      -1.6303      2.00000
    169      -1.6161      2.00000
    170      -1.6040      2.00000
    171      -1.5971      2.00000
    172      -1.5708      2.00000
    173      -1.5576      2.00000
    174      -1.5175      2.00000
    175      -1.4995      2.00000
    176      -1.4917      2.00000
    177      -1.4853      2.00000
    178      -1.4466      2.00000
    179      -1.4268      2.00000
    180      -1.4084      2.00000
    181      -1.3903      2.00000
    182      -1.3828      2.00000
    183      -1.3794      2.00000
[...]
  0.000   0.000   0.000   0.000   0.000   0.000   0.000   0.000   0.000   0.000   0.000   0.000   0.000   0.000   0.000   0.000
  0.000   0.000   0.000   0.000   0.000   0.000   0.000   0.000   0.000   0.000   0.000   0.000   0.000   0.000   0.000   0.000
  0.000   0.000   0.000   0.000   0.000   0.000   0.000   0.000   0.000   0.000   0.000   0.000   0.000   0.000   0.000   0.000
  0.000   0.000   0.000   0.000   0.000   0.000   0.000   0.000   0.000   0.000   0.000   0.000   0.000   0.000   0.000   0.000
  0.000   0.000   0.000   0.000   0.000   0.000   0.000   0.000   0.000   0.000   0.000   0.000   0.000   0.000   0.000   0.000
  0.000   0.000   0.000   0.000   0.000   0.000   0.000   0.000   0.000   0.000   1.000   0.000   0.000   0.000   0.000   0.000
  0.000   0.000   0.000   0.000   0.000   0.000   0.000   0.000   0.000   0.000   0.000   0.000   0.000   0.000   0.000   0.000
  0.000   0.000   0.000   0.000   0.000   0.000   0.000   0.000   0.000   0.000   0.000   0.000   0.000   0.000   0.000   0.000
  0.000   0.000   0.000   0.000   0.000   0.000   0.000   0.000   0.000   0.000   0.000   0.000   0.000   0.000   0.000   0.000
  0.000   0.000   0.000   0.000   0.000   0.000   0.000   0.000   0.000   0.000   0.000   0.000   0.000   0.000   0.000   0.000
  0.000   0.000   0.000   0.000   0.000   0.000   0.000   0.000   0.000   0.000   0.000   0.000   0.000   0.000   0.000   0.000
  0.000   0.000   0.000   0.000   0.000   0.000   0.000   0.000   0.000   0.000   0.000   0.000   0.000   0.000   0.000   0.000
  0.000   0.000   0.000   0.000   0.000   0.000   0.000   0.000   0.000   0.000   0.000   0.000   0.000   0.000   0.000   0.000


------------------------ aborting loop because EDIFF is reached ----------------------------------------





 total charge

# of ion       s       p       d       tot
------------------------------------------
    1        0.544   0.239   8.767   9.550
    2        0.542   0.241   8.765   9.548
    3        0.542   0.241   8.765   9.548
    4        0.542   0.241   8.765   9.548
    5        0.546   0.240   8.763   9.548
    6        0.542   0.241   8.765   9.548
    7        0.542   0.241   8.765   9.548
    8        0.542   0.241   8.765   9.548
    9        0.542   0.240   8.767   9.550
   10        0.519   0.307   8.773   9.600
   11        0.521   0.307   8.776   9.604
   12        0.519   0.307   8.773   9.600
   13        0.521   0.307   8.776   9.604
   14        0.521   0.307   8.776   9.604
   15        0.517   0.310   8.772   9.599
   16        0.519   0.307   8.773   9.600
   17        0.517   0.310   8.772   9.599
   18        0.517   0.310   8.772   9.599
   19        0.514   0.297   8.774   9.586
   20        0.550   0.324   8.754   9.628
   21        0.550   0.324   8.754   9.628
   22        0.509   0.306   8.775   9.591
   23        0.550   0.324   8.754   9.628
   24        0.509   0.306   8.775   9.591
   25        0.514   0.297   8.774   9.586
   26        0.514   0.297   8.774   9.586
   27        0.509   0.306   8.775   9.591
   28        0.541   0.225   8.762   9.528
   29        0.561   0.231   8.758   9.550
   30        0.561   0.231   8.758   9.550
   31        0.561   0.231   8.758   9.550
   32        0.561   0.231   8.758   9.550
   33        0.561   0.231   8.758   9.550
   34        0.561   0.231   8.758   9.550
   35        0.544   0.225   8.759   9.528
   36        0.503   0.707   2.852   4.063
   37        1.342   2.155   0.000   3.497
--------------------------------------------------
tot         20.574  12.419 309.684 342.678
 
    CHARGE:  cpu time    0.3340: real time    0.3341
    FORLOC:  cpu time    0.0100: real time    0.0100
    FORNL :  cpu time    1.4535: real time    1.4537
    STRESS:  cpu time    4.3490: real time    4.3494
    FORCOR:  cpu time    0.0561: real time    0.0562
    FORHAR:  cpu time    0.0167: real time    0.0168
    OFIELD:  cpu time    0.0002: real time    0.0002

  FORCE on cell =-STRESS in cart. coord.  units (eV):
  Direction    XX          YY          ZZ          XY          YZ          ZX
  --------------------------------------------------------------------------------------
  Alpha Z  1006.87891  1006.87891  1006.87891
  Ewald  116688.35562116688.35601************    -0.00033    -0.00009    -0.00014
  Hartree125241.16023125241.16022************     0.00000    -0.00002    -0.00004
  E(xc)   -1763.17374 -1763.17373 -1773.26776    -0.00001     0.00000    -0.00000
  Local  ************************254221.98300     0.00192     0.00003     0.00003
  n-local   -83.07228   -40.82096   -47.33190    22.04108    -1.54934     1.58152
  augment  2370.76640  2370.76794  2390.34042    -0.00134     0.00001     0.00003
  Kinetic  5457.89465  5465.46261  5521.70829     5.63897     0.22561     0.44988
  Fock        0.00000     0.00000     0.00000     0.00000     0.00000     0.00000
  -------------------------------------------------------------------------------------
  Total     -19.60938   -19.60938     2.09722    -0.00000     0.00000     0.00000
  in kB     -21.04103   -21.04103     2.25033    -0.00000     0.00000     0.00000
  external pressure =      -13.28 kB  Pullay stress =        0.00 kB


 VOLUME and BASIS-vectors are now :
 -----------------------------------------------------------------------------
  energy-cutoff  :      500.00
  volume of cell :     1493.16
      direct lattice vectors                 reciprocal lattice vectors
     8.813512802  0.000000000  0.000000000     0.113462137 -0.065507406  0.000000000
     4.406756909  7.632725690  0.000000000     0.000000000  0.131014796  0.000000000
     0.000000000  0.000000000 22.196203232     0.000000000  0.000000000  0.045052750

  length of vectors
     8.813512802  8.813512802 22.196203232     0.131014796  0.131014796  0.045052750


 FORCES acting on ions
    electron-ion (+dipol)            ewald-force                    non-local-force                 convergence-correction
 -----------------------------------------------------------------------------------------------
   -.194E-04 -.161E-04 0.246E+04   0.518E-04 0.432E-04 -.246E+04   -.774E-18 -.222E-17 -.641E+00   -.181E-03 -.118E-03 -.451E+00
   0.915E-01 -.421E+00 0.246E+04   -.127E+00 0.257E+00 -.246E+04   0.191E-01 0.825E-01 -.363E+00   0.143E-01 0.688E-01 -.415E+00
   -.916E-01 -.421E+00 0.246E+04   0.127E+00 0.257E+00 -.246E+04   -.191E-01 0.825E-01 -.363E+00   -.141E-01 0.707E-01 -.414E+00
   -.319E+00 0.290E+00 0.246E+04   0.159E+00 -.239E+00 -.246E+04   0.810E-01 -.247E-01 -.363E+00   0.668E-01 -.221E-01 -.415E+00
   0.861E-05 -.233E-04 0.246E+04   0.951E-04 0.172E-05 -.246E+04   -.127E-17 -.780E-18 -.252E+00   0.424E-02 0.258E-02 -.349E+00
   0.319E+00 0.290E+00 0.246E+04   -.159E+00 -.239E+00 -.246E+04   -.810E-01 -.247E-01 -.363E+00   -.683E-01 -.211E-01 -.414E+00
   -.410E+00 0.131E+00 0.246E+04   0.286E+00 -.186E-01 -.246E+04   0.619E-01 -.578E-01 -.363E+00   0.543E-01 -.475E-01 -.414E+00
   0.410E+00 0.131E+00 0.246E+04   -.286E+00 -.186E-01 -.246E+04   -.619E-01 -.578E-01 -.363E+00   -.524E-01 -.486E-01 -.414E+00
   0.194E-04 -.418E-04 0.246E+04   0.166E-03 -.200E-04 -.246E+04   0.847E-17 0.140E-17 -.510E+00   -.461E-02 -.238E-02 -.351E+00
   -.231E+00 -.134E+00 0.801E+03   0.314E+00 0.181E+00 -.800E+03   -.177E+00 -.102E+00 -.429E+00   0.632E-01 0.364E-01 -.124E-01
   0.140E-04 -.107E+01 0.801E+03   0.148E-03 0.967E+00 -.800E+03   0.349E-08 0.525E-01 -.337E+00   0.363E-02 0.278E-01 0.555E-02
   0.231E+00 -.133E+00 0.801E+03   -.314E+00 0.181E+00 -.800E+03   0.177E+00 -.102E+00 -.429E+00   -.643E-01 0.375E-01 -.134E-01
   -.928E+00 0.536E+00 0.801E+03   0.837E+00 -.483E+00 -.800E+03   0.455E-01 -.262E-01 -.337E+00   0.262E-01 -.105E-01 0.554E-02
   0.928E+00 0.536E+00 0.801E+03   -.837E+00 -.483E+00 -.800E+03   -.455E-01 -.262E-01 -.337E+00   -.188E-01 -.110E-01 0.456E-02
   0.320E-04 0.297E+01 0.805E+03   0.235E-03 -.305E+01 -.804E+03   0.160E-08 0.241E-01 -.491E+00   -.207E-02 0.248E-01 -.422E-01
   -.209E-04 0.267E+00 0.801E+03   0.162E-03 -.362E+00 -.800E+03   0.136E-07 0.204E+00 -.429E+00   0.357E-04 -.745E-01 -.134E-01
   0.258E+01 -.149E+01 0.805E+03   -.264E+01 0.152E+01 -.804E+03   0.208E-01 -.120E-01 -.491E+00   0.207E-01 -.138E-01 -.421E-01
   -.258E+01 -.149E+01 0.805E+03   0.264E+01 0.152E+01 -.804E+03   -.208E-01 -.120E-01 -.491E+00   -.206E-01 -.122E-01 -.422E-01
   -.423E-04 -.406E+01 -.869E+03   0.559E-04 0.391E+01 0.868E+03   0.872E-08 0.131E+00 0.893E+00   0.350E-02 0.358E-01 0.443E+00
   -.159E+02 -.920E+01 -.883E+03   0.164E+02 0.949E+01 0.883E+03   -.874E+00 -.505E+00 -.740E+00   0.103E+00 0.591E-01 0.538E+00
   0.159E+02 -.920E+01 -.883E+03   -.164E+02 0.949E+01 0.883E+03   0.874E+00 -.505E+00 -.740E+00   -.103E+00 0.601E-01 0.538E+00
   -.132E+02 0.762E+01 -.862E+03   0.129E+02 -.742E+01 0.861E+03   0.319E+00 -.184E+00 0.652E+00   0.960E-01 -.568E-01 0.409E+00
   -.809E-05 0.184E+02 -.883E+03   0.138E-03 -.190E+02 0.883E+03   0.672E-07 0.101E+01 -.740E+00   0.158E-03 -.119E+00 0.538E+00
   0.132E+02 0.762E+01 -.862E+03   -.129E+02 -.742E+01 0.861E+03   -.319E+00 -.184E+00 0.652E+00   -.963E-01 -.555E-01 0.409E+00
   0.352E+01 0.203E+01 -.869E+03   -.339E+01 -.196E+01 0.868E+03   -.113E+00 -.655E-01 0.893E+00   -.259E-01 -.150E-01 0.443E+00
   -.352E+01 0.203E+01 -.869E+03   0.339E+01 -.196E+01 0.868E+03   0.113E+00 -.655E-01 0.893E+00   0.331E-01 -.148E-01 0.443E+00
   0.818E-05 -.152E+02 -.862E+03   0.199E-03 0.148E+02 0.861E+03   0.245E-07 0.368E+00 0.652E+00   -.176E-02 0.112E+00 0.409E+00
   -.110E-04 -.114E-04 -.243E+04   0.278E-04 0.315E-04 0.243E+04   -.245E-17 0.109E-17 0.549E+00   0.287E-03 0.150E-03 0.516E+00
   0.301E+01 -.657E+00 -.243E+04   -.257E+01 0.138E+01 0.243E+04   -.714E+00 -.116E+01 0.922E+00   0.139E+00 0.212E+00 0.502E+00
   -.301E+01 -.657E+00 -.243E+04   0.257E+01 0.138E+01 0.243E+04   0.714E+00 -.116E+01 0.922E+00   -.139E+00 0.213E+00 0.503E+00
   0.935E+00 0.293E+01 -.243E+04   -.951E-01 -.292E+01 0.243E+04   -.137E+01 -.360E-01 0.922E+00   0.253E+00 0.146E-01 0.502E+00
   -.935E+00 0.293E+01 -.243E+04   0.950E-01 -.292E+01 0.243E+04   0.137E+01 -.360E-01 0.922E+00   -.253E+00 0.158E-01 0.503E+00
   -.207E+01 -.228E+01 -.243E+04   0.248E+01 0.154E+01 0.243E+04   -.651E+00 0.120E+01 0.922E+00   0.115E+00 -.227E+00 0.503E+00
   0.207E+01 -.228E+01 -.243E+04   -.248E+01 0.154E+01 0.243E+04   0.651E+00 0.120E+01 0.922E+00   -.113E+00 -.227E+00 0.503E+00
   0.327E-04 -.319E-04 -.244E+04   0.144E-03 -.468E-04 0.244E+04   -.121E-16 -.146E-17 0.427E+00   -.455E-02 -.233E-02 0.501E+00
   -.829E-05 0.403E-05 -.770E+03   0.413E-04 0.374E-05 0.770E+03   -.129E-17 -.542E-18 0.133E+01   0.388E-03 0.237E-03 0.275E+00
   0.100E-03 -.576E-04 -.128E+04   0.205E-04 0.132E-05 0.129E+04   -.171E-18 0.108E-18 -.140E+02   0.146E-02 0.895E-03 -.168E+00
 -----------------------------------------------------------------------------------------------
   -.687E-03 -.820E-03 0.715E+01   -.794E-13 0.213E-12 0.455E-12   -.236E-15 -.224E-15 -.111E+02   0.147E-01 0.910E-02 0.452E+01
 
 
 POSITION                                       TOTAL-FORCE (eV/Angst)
 -----------------------------------------------------------------------------------
      0.00000      0.00000      5.28038        -0.000000      0.000000     -0.111209
      2.93784      0.00000      5.28038        -0.001657     -0.011397     -0.051387
      5.87568      0.00000      5.28038         0.001657     -0.011397     -0.051387
      1.46892      2.54424      5.28038        -0.010698      0.004263     -0.051387
      4.40676      2.54424      5.28038        -0.000000      0.000000     -0.093759
      7.34459      2.54424      5.28038         0.010698      0.004263     -0.051387
      2.93784      5.08848      5.28038        -0.009041      0.007133     -0.051387
      5.87568      5.08848      5.28038         0.009041      0.007133     -0.051387
      8.81351      5.08848      5.28038        -0.000000      0.000000     -0.068205
      1.46892      0.84808      7.67911        -0.030440     -0.017574      0.078457
      4.40676      0.84808      7.67911        -0.000000     -0.027153      0.048493
      7.34459      0.84808      7.67911         0.030440     -0.017574      0.078457
      2.93784      3.39232      7.67911        -0.023516      0.013577      0.048493
      5.87568      3.39232      7.67911         0.023516      0.013577      0.048493
      8.81351      3.39232      7.67911        -0.000000     -0.025552      0.109523
      4.40676      5.93656      7.67911         0.000000      0.035149      0.078457
      7.34459      5.93656      7.67911        -0.022128      0.012776      0.109523
     10.28243      5.93656      7.67911         0.022128      0.012776      0.109523
      8.81351      1.69614     10.07331         0.000000      0.013858      0.110075
      2.94950      1.70289     10.06400        -0.260964     -0.150667     -0.228367
      5.86402      1.70289     10.06400         0.260964     -0.150667     -0.228367
     10.27143      4.24676     10.06599         0.069161     -0.039930      0.072090
      4.40676      4.22694     10.06400         0.000000      0.301335     -0.228367
      7.35560      4.24676     10.06599        -0.069161     -0.039930      0.072090
     11.75137      6.78466     10.07331        -0.012001     -0.006929      0.110075
      5.87566      6.78466     10.07331         0.012001     -0.006929      0.110075
      8.81351      6.77194     10.06599         0.000000      0.079861      0.072090
      0.00000      0.00000     12.49013        -0.000000      0.000000     -0.050434
      2.98093      0.06833     12.52966        -0.140725     -0.232502     -0.123597
      5.83259      0.06833     12.52966         0.140725     -0.232502     -0.123597
      1.54964      2.54739     12.52966        -0.271715     -0.005621     -0.123597
      7.26387      2.54739     12.52966         0.271715     -0.005621     -0.123597
      2.97547      5.01700     12.52966        -0.130990      0.238122     -0.123597
      5.83804      5.01700     12.52966         0.130990      0.238122     -0.123597
      8.81351      5.08848     12.50181        -0.000000      0.000000     -0.032941
      4.40676      2.54424     12.25739        -0.000000      0.000000      0.791409
      4.40676      2.54424     13.98271        -0.000000      0.000000      0.044223
 -----------------------------------------------------------------------------------
    total drift:                                0.014026      0.008279      0.603181


--------------------------------------------------------------------------------------------------------



  FREE ENERGIE OF THE ION-ELECTRON SYSTEM (eV)
  ---------------------------------------------------
  free  energy   TOTEN  =      -121.86433979 eV

  energy  without entropy=     -121.86433979  energy(sigma->0) =     -121.86433979
 


--------------------------------------------------------------------------------------------------------


    POTLOK:  cpu time    0.0427: real time    0.0427


--------------------------------------------------------------------------------------------------------


 stress matrix after NEB project (eV)
    -19.60938     -0.00000      0.00000
     -0.00000    -19.60938      0.00000
     -0.00000      0.00000      2.09722
  FORCES: max atom, RMS     0.044223    0.007270
  FORCE total and by dimension    0.044223    0.044223
  Stress total and by dimension   27.811035   19.609378
     LOOP+:  cpu time   69.2014: real time   69.2306
 -----------------------------------------------------------------------------
|                                                                             |
|           W    W    AA    RRRRR   N    N  II  N    N   GGGG   !!!           |
|           W    W   A  A   R    R  NN   N  II  NN   N  G    G  !!!           |
|           W    W  A    A  R    R  N N  N  II  N N  N  G       !!!           |
|           W WW W  AAAAAA  RRRRR   N  N N  II  N  N N  G  GGG   !            |
|           WW  WW  A    A  R   R   N   NN  II  N   NN  G    G                |
|           W    W  A    A  R    R  N    N  II  N    N   GGGG   !!!           |
|                                                                             |
|     Tetrahedron method does not include variations of the Fermi             |
|     occupations, so forces and stress will be inaccurate. We suggest        |
|     using a different smearing scheme ISMEAR = 1 or 2 for metals in         |
|     relaxations.                                                            |
|                                                                             |
 -----------------------------------------------------------------------------

    4ORBIT:  cpu time    0.0000: real time    0.0000



 total charge

# of ion       s       p       d       tot
------------------------------------------
    1        0.544   0.239   8.767   9.550
    2        0.542   0.241   8.765   9.548
    3        0.542   0.241   8.765   9.548
    4        0.542   0.241   8.765   9.548
    5        0.546   0.240   8.763   9.548
    6        0.542   0.241   8.765   9.548
    7        0.542   0.241   8.765   9.548
    8        0.542   0.241   8.765   9.548
    9        0.542   0.240   8.767   9.550
   10        0.519   0.307   8.773   9.600
   11        0.521   0.307   8.776   9.604
   12        0.519   0.307   8.773   9.600
   13        0.521   0.307   8.776   9.604
   14        0.521   0.307   8.776   9.604
   15        0.517   0.310   8.772   9.599
   16        0.519   0.307   8.773   9.600
   17        0.517   0.310   8.772   9.599
   18        0.517   0.310   8.772   9.599
   19        0.514   0.297   8.774   9.586
   20        0.550   0.324   8.754   9.628
   21        0.550   0.324   8.754   9.628
   22        0.509   0.306   8.775   9.591
   23        0.550   0.324   8.754   9.628
   24        0.509   0.306   8.775   9.591
   25        0.514   0.297   8.774   9.586
   26        0.514   0.297   8.774   9.586
   27        0.509   0.306   8.775   9.591
   28        0.541   0.225   8.762   9.528
   29        0.561   0.231   8.758   9.550
   30        0.561   0.231   8.758   9.550
   31        0.561   0.231   8.758   9.550
   32        0.561   0.231   8.758   9.550
   33        0.561   0.231   8.758   9.550
   34        0.561   0.231   8.758   9.550
   35        0.544   0.225   8.759   9.528
   36        0.503   0.707   2.852   4.063
   37        1.342   2.155   0.000   3.497
--------------------------------------------------
tot         20.574  12.419 309.684 342.678
 
 BZINTS: Fermi energy:    0.532928;  394.000000 electrons
         Band energy:-0.126510E+04;  BLOECHL correction:   -0.086640

 total amount of memory used by VASP MPI-rank0   122567. kBytes
=======================================================================

   base      :      30000. kBytes
   nonlr-proj:      14182. kBytes
   fftplans  :       4330. kBytes
   grid      :      17879. kBytes
   one-center:        575. kBytes
   wavefun   :      55601. kBytes
 
  
  
 General timing and accounting informations for this job:
 ========================================================
  
                  Total CPU time used (sec):       76.522
                            User time (sec):       73.727
                          System time (sec):        2.795
                         Elapsed time (sec):       76.961
  
                   Maximum memory used (kb):      378404.
                   Average memory used (kb):          N/A
  
                          Minor page faults:        79480
                          Major page faults:            0
                 Voluntary context switches:         4844
