PROCAR new format
# of k-points:   10         # of bands:  252         # of ions:   37

 k-point     1 :    0.00000000 0.00000000 0.00000000     weight = 0.01562500

band     1 # energy  -11.01242552 # occ.  2.00000000
 
ion      s      p      d    tot
    1  0.000  0.000  0.000  0.000
    2  0.000  0.000  0.000  0.000
    3  0.000  0.000  0.000  0.000
    4  0.000  0.000  0.000  0.000
    5  0.000  0.000  0.000  0.000
    6  0.000  0.000  0.000  0.000
    7  0.000  0.000  0.000  0.000
    8  0.000  0.000  0.000  0.000
    9  0.000  0.000  0.000  0.000
   10  0.000  0.000  0.000  0.000
   11  0.000  0.000  0.000  0.000
   12  0.000  0.000  0.000  0.000
   13  0.000  0.000  0.000  0.000
   14  0.000  0.000  0.000  0.000
   15  0.000  0.000  0.000  0.000
   16  0.000  0.000  0.000  0.000
   17  0.000  0.000  0.000  0.000
   18  0.000  0.000  0.000  0.000
   19  0.000  0.000  0.000  0.000
   20  0.000  0.000  0.000  0.001
   21  0.000  0.000  0.000  0.001
   22  0.000  0.000  0.000  0.000
   23  0.000  0.000  0.000  0.001
   24  0.000  0.000  0.000  0.000
   25  0.000  0.000  0.000  0.000
   26  0.000  0.000  0.000  0.000
   27  0.000  0.000  0.000  0.000
   28  0.000  0.000  0.000  0.000
   29  0.000  0.000  0.000  0.001
   30  0.000  0.000  0.000  0.001
   31  0.000  0.000  0.000  0.001
   32  0.000  0.000  0.000  0.001
   33  0.000  0.000  0.000  0.001
   34  0.000  0.000  0.000  0.001
   35  0.000  0.000  0.000  0.000
   36  0.076  0.070  0.115  0.261
   37  0.636  0.008  0.000  0.644
tot    0.716  0.078  0.118  0.913
 
band     2 # energy   -8.26617283 # occ.  2.00000000
 
ion      s      p      d    tot
    1  0.007  0.001  0.000  0.007
    2  0.007  0.001  0.000  0.007
    3  0.007  0.001  0.000  0.007
    4  0.007  0.001  0.000  0.007
    5  0.007  0.001  0.000  0.008
    6  0.007  0.001  0.000  0.007
    7  0.007  0.001  0.000  0.007
    8  0.007  0.001  0.000  0.007
    9  0.007  0.001  0.000  0.007
   10  0.027  0.000  0.000  0.028
   11  0.028  0.000  0.000  0.028
   12  0.027  0.000  0.000  0.028
   13  0.028  0.000  0.000  0.028
   14  0.028  0.000  0.000  0.028
   15  0.027  0.000  0.000  0.028
   16  0.027  0.000  0.000  0.028
   17  0.027  0.000  0.000  0.028
   18  0.027  0.000  0.000  0.028
   19  0.023  0.000  0.000  0.023
   20  0.025  0.000  0.000  0.026
   21  0.025  0.000  0.000  0.026
   22  0.024  0.000  0.000  0.024
   23  0.025  0.000  0.000  0.026
   24  0.024  0.000  0.000  0.024
   25  0.023  0.000  0.000  0.023
   26  0.023  0.000  0.000  0.023
   27  0.024  0.000  0.000  0.024
   28  0.004  0.000  0.000  0.005
   29  0.004  0.000  0.000  0.004
   30  0.004  0.000  0.000  0.004
   31  0.004  0.000  0.000  0.004
   32  0.004  0.000  0.000  0.004
   33  0.004  0.000  0.000  0.004
   34  0.004  0.000  0.000  0.004
   35  0.004  0.000  0.000  0.005
   36  0.003  0.002  0.000  0.005
   37  0.002  0.000  0.000  0.002
tot    0.564  0.013  0.004  0.581
 
band     3 # energy   -7.06890649 # occ.  2.00000000
 
ion      s      p      d    tot
    1  0.017  0.000  0.001  0.019
    2  0.017  0.000  0.001  0.018
    3  0.017  0.000  0.001  0.018
    4  0.017  0.000  0.001  0.018
    5  0.017  0.000  0.001  0.018
    6  0.017  0.000  0.001  0.018
    7  0.017  0.000  0.001  0.018
    8  0.017  0.000  0.001  0.018
    9  0.017  0.000  0.001  0.018
   10  0.010  0.002  0.002  0.014
   11  0.009  0.002  0.003  0.013
   12  0.010  0.002  0.002  0.014
   13  0.009  0.002  0.003  0.013
   14  0.009  0.002  0.003  0.013
   15  0.009  0.002  0.003  0.013
   16  0.010  0.002  0.002  0.014
   17  0.009  0.002  0.003  0.013
   18  0.009  0.002  0.003  0.013
   19  0.015  0.001  0.004  0.020
   20  0.016  0.001  0.005  0.022
   21  0.016  0.001  0.005  0.022
   22  0.017  0.001  0.004  0.022
   23  0.016  0.001  0.005  0.022
   24  0.017  0.001  0.004  0.022
   25  0.015  0.001  0.004  0.020
   26  0.015  0.001  0.004  0.020
   27  0.017  0.001  0.004  0.022
   28  0.014  0.001  0.000  0.015
   29  0.012  0.001  0.001  0.013
   30  0.012  0.001  0.001  0.013
   31  0.012  0.001  0.001  0.013
   32  0.012  0.001  0.001  0.013
   33  0.012  0.001  0.001  0.013
   34  0.012  0.001  0.001  0.013
   35  0.014  0.001  0.000  0.015
   36  0.006  0.002  0.001  0.009
   37  0.002  0.000  0.000  0.002
tot    0.490  0.033  0.079  0.602
 
band     4 # energy   -6.15746523 # occ.  2.00000000
 
ion      s      p      d    tot
    1  0.011  0.000  0.022  0.033
    2  0.018  0.000  0.018  0.036
    3  0.018  0.000  0.018  0.036
    4  0.018  0.000  0.018  0.036
    5  0.013  0.000  0.017  0.030
    6  0.018  0.000  0.018  0.036
    7  0.018  0.000  0.018  0.036
    8  0.018  0.000  0.018  0.036
    9  0.033  0.000  0.013  0.046
   10  0.013  0.001  0.021  0.034
   11  0.015  0.001  0.019  0.035
   12  0.013  0.001  0.021  0.034
   13  0.015  0.001  0.019  0.035
   14  0.015  0.001  0.019  0.035
   15  0.000  0.001  0.025  0.026
   16  0.013  0.001  0.021  0.034
   17  0.000  0.001  0.025  0.026
   18  0.000  0.001  0.025  0.026
   19  0.000  0.001  0.005  0.005
   20  0.004  0.001  0.006  0.011
   21  0.004  0.001  0.006  0.011
   22  0.004  0.001  0.001  0.006
   23  0.004  0.001  0.006  0.011
   24  0.004  0.001  0.001  0.006
   25  0.000  0.001  0.005  0.005
   26  0.000  0.001  0.005  0.005
   27  0.004  0.001  0.001  0.006
   28  0.004  0.000  0.000  0.004
   29  0.002  0.000  0.002  0.004
   30  0.002  0.000  0.002  0.004
   31  0.002  0.000  0.002  0.004
   32  0.002  0.000  0.002  0.004
   33  0.002  0.000  0.002  0.004
   34  0.002  0.000  0.002  0.004
   35  0.006  0.000  0.000  0.007
   36  0.000  0.000  0.001  0.001
   37  0.000  0.000  0.000  0.000
tot    0.294  0.017  0.401  0.712
 
band     5 # energy   -6.13752463 # occ.  2.00000000
 
ion      s      p      d    tot
    1  0.000  0.000  0.007  0.008
    2  0.005  0.001  0.004  0.010
    3  0.006  0.001  0.003  0.010
    4  0.005  0.001  0.004  0.010
    5  0.000  0.001  0.008  0.009
    6  0.000  0.000  0.003  0.003
    7  0.006  0.001  0.003  0.010
    8  0.000  0.000  0.003  0.003
    9  0.000  0.000  0.001  0.001
   10  0.000  0.000  0.035  0.035
   11  0.043  0.002  0.015  0.060
   12  0.022  0.002  0.012  0.035
   13  0.043  0.001  0.015  0.060
   14  0.000  0.003  0.029  0.032
   15  0.003  0.001  0.011  0.016
   16  0.021  0.002  0.012  0.035
   17  0.003  0.001  0.011  0.016
   18  0.000  0.004  0.003  0.007
   19  0.004  0.001  0.010  0.015
   20  0.000  0.003  0.033  0.036
   21  0.043  0.002  0.016  0.060
   22  0.018  0.001  0.011  0.030
   23  0.043  0.002  0.016  0.060
   24  0.000  0.000  0.031  0.031
   25  0.000  0.004  0.003  0.007
   26  0.004  0.001  0.010  0.015
   27  0.017  0.001  0.011  0.030
   28  0.000  0.000  0.001  0.001
   29  0.000  0.000  0.002  0.002
   30  0.005  0.001  0.003  0.009
   31  0.000  0.000  0.002  0.002
   32  0.004  0.001  0.003  0.008
   33  0.005  0.001  0.003  0.009
   34  0.004  0.001  0.003  0.008
   35  0.000  0.000  0.005  0.005
   36  0.000  0.003  0.003  0.006
   37  0.000  0.000  0.000  0.000
tot    0.305  0.044  0.345  0.694
 
band     6 # energy   -6.13749198 # occ.  2.00000000
 
ion      s      p      d    tot
    1  0.000  0.000  0.007  0.008
    2  0.002  0.001  0.003  0.006
    3  0.001  0.000  0.003  0.005
    4  0.002  0.001  0.003  0.006
    5  0.000  0.001  0.008  0.009
    6  0.007  0.001  0.004  0.012
    7  0.001  0.000  0.003  0.005
    8  0.007  0.001  0.004  0.012
    9  0.000  0.000  0.001  0.001
   10  0.028  0.002  0.005  0.035
   11  0.015  0.002  0.025  0.042
   12  0.007  0.001  0.027  0.035
   13  0.014  0.002  0.025  0.041
   14  0.058  0.001  0.010  0.069
   15  0.001  0.003  0.006  0.010
   16  0.007  0.001  0.027  0.035
   17  0.001  0.003  0.005  0.010
   18  0.005  0.000  0.014  0.019
   19  0.001  0.003  0.005  0.010
   20  0.057  0.001  0.010  0.069
   21  0.014  0.002  0.027  0.044
   22  0.006  0.001  0.024  0.031
   23  0.015  0.002  0.027  0.044
   24  0.023  0.002  0.004  0.029
   25  0.005  0.000  0.013  0.018
   26  0.001  0.003  0.005  0.009
   27  0.006  0.001  0.024  0.031
   28  0.000  0.000  0.001  0.001
   29  0.006  0.001  0.003  0.010
   30  0.001  0.000  0.003  0.004
   31  0.006  0.001  0.003  0.010
   32  0.002  0.000  0.002  0.004
   33  0.001  0.000  0.003  0.004
   34  0.002  0.000  0.002  0.005
   35  0.000  0.000  0.005  0.005
   36  0.000  0.003  0.003  0.006
   37  0.000  0.000  0.000  0.000
tot    0.305  0.044  0.345  0.694
 
band     7 # energy   -6.13071581 # occ.  2.00000000
 
ion      s      p      d    tot
    1  0.012  0.000  0.001  0.013
    2  0.003  0.000  0.008  0.011
    3  0.003  0.000  0.008  0.011
    4  0.003  0.000  0.008  0.011
    5  0.010  0.000  0.004  0.014
    6  0.003  0.000  0.008  0.011
    7  0.003  0.000  0.008  0.011
    8  0.003  0.000  0.008  0.011
    9  0.002  0.002  0.008  0.012
   10  0.000  0.000  0.032  0.032
   11  0.002  0.002  0.016  0.020
   12  0.000  0.000  0.032  0.032
   13  0.002  0.002  0.016  0.020
   14  0.002  0.002  0.016  0.020
   15  0.037  0.002  0.008  0.046
   16  0.000  0.000  0.032  0.032
   17  0.037  0.002  0.008  0.046
   18  0.037  0.002  0.008  0.046
   19  0.000  0.001  0.024  0.025
   20  0.027  0.001  0.015  0.043
   21  0.027  0.001  0.015  0.043
   22  0.008  0.002  0.010  0.020
   23  0.027  0.001  0.015  0.043
   24  0.008  0.002  0.010  0.020
   25  0.000  0.001  0.024  0.025
   26  0.000  0.001  0.024  0.025
   27  0.008  0.002  0.010  0.020
   28  0.003  0.000  0.000  0.003
   29  0.001  0.000  0.004  0.005
   30  0.001  0.000  0.004  0.005
   31  0.001  0.000  0.004  0.005
   32  0.001  0.000  0.004  0.005
   33  0.001  0.000  0.004  0.005
   34  0.001  0.000  0.004  0.005
   35  0.007  0.000  0.001  0.008
   36  0.003  0.003  0.002  0.008
   37  0.000  0.000  0.000  0.000
tot    0.283  0.034  0.397  0.715
 
band     8 # energy   -6.11395903 # occ.  2.00000000
 
ion      s      p      d    tot
    1  0.011  0.001  0.000  0.013
    2  0.000  0.001  0.006  0.007
    3  0.000  0.001  0.006  0.007
    4  0.000  0.001  0.006  0.007
    5  0.013  0.002  0.002  0.017
    6  0.000  0.001  0.006  0.007
    7  0.000  0.001  0.006  0.007
    8  0.000  0.001  0.006  0.007
    9  0.000  0.000  0.001  0.001
   10  0.025  0.003  0.003  0.030
   11  0.022  0.001  0.023  0.045
   12  0.024  0.003  0.003  0.030
   13  0.022  0.001  0.023  0.045
   14  0.022  0.001  0.023  0.045
   15  0.000  0.001  0.022  0.024
   16  0.024  0.003  0.003  0.030
   17  0.000  0.001  0.022  0.024
   18  0.000  0.001  0.022  0.024
   19  0.027  0.003  0.003  0.033
   20  0.003  0.002  0.021  0.026
   21  0.003  0.002  0.021  0.026
   22  0.010  0.000  0.026  0.036
   23  0.003  0.002  0.021  0.026
   24  0.010  0.000  0.026  0.036
   25  0.027  0.003  0.003  0.033
   26  0.027  0.003  0.003  0.033
   27  0.010  0.000  0.026  0.036
   28  0.010  0.001  0.001  0.012
   29  0.000  0.000  0.004  0.004
   30  0.000  0.000  0.004  0.004
   31  0.000  0.000  0.004  0.004
   32  0.000  0.000  0.004  0.004
   33  0.000  0.000  0.004  0.004
   34  0.000  0.000  0.004  0.004
   35  0.005  0.001  0.002  0.008
   36  0.000  0.000  0.000  0.000
   37  0.000  0.000  0.000  0.000
tot    0.298  0.040  0.356  0.695
 
band     9 # energy   -6.08524705 # occ.  2.00000000
 
ion      s      p      d    tot
    1  0.000  0.001  0.004  0.006
    2  0.006  0.001  0.004  0.011
    3  0.007  0.001  0.004  0.012
    4  0.006  0.001  0.004  0.011
    5  0.000  0.000  0.004  0.004
    6  0.000  0.000  0.003  0.004
    7  0.007  0.001  0.004  0.012
    8  0.000  0.000  0.003  0.004
    9  0.000  0.001  0.011  0.012
   10  0.035  0.000  0.016  0.051
   11  0.001  0.002  0.017  0.020
   12  0.008  0.004  0.009  0.021
   13  0.001  0.002  0.017  0.020
   14  0.004  0.001  0.010  0.014
   15  0.016  0.001  0.036  0.052
   16  0.009  0.003  0.010  0.022
   17  0.015  0.001  0.036  0.052
   18  0.060  0.002  0.004  0.066
   19  0.011  0.001  0.027  0.040
   20  0.002  0.001  0.011  0.014
   21  0.001  0.001  0.014  0.016
   22  0.007  0.003  0.012  0.022
   23  0.001  0.001  0.014  0.016
   24  0.028  0.000  0.013  0.041
   25  0.044  0.002  0.004  0.050
   26  0.011  0.001  0.028  0.040
   27  0.007  0.003  0.012  0.022
   28  0.000  0.000  0.006  0.007
   29  0.000  0.000  0.002  0.002
   30  0.003  0.001  0.002  0.005
   31  0.000  0.000  0.002  0.002
   32  0.003  0.001  0.002  0.006
   33  0.003  0.001  0.002  0.005
   34  0.003  0.001  0.002  0.006
   35  0.000  0.001  0.003  0.003
   36  0.000  0.000  0.001  0.001
   37  0.000  0.000  0.000  0.000
tot    0.298  0.041  0.354  0.693
 
band    10 # energy   -6.08521470 # occ.  2.00000000
 
ion      s      p      d    tot
    1  0.000  0.001  0.004  0.006
    2  0.003  0.001  0.003  0.007
    3  0.001  0.001  0.004  0.006
    4  0.003  0.001  0.003  0.007
    5  0.000  0.000  0.004  0.004
    6  0.009  0.001  0.004  0.014
    7  0.001  0.001  0.004  0.006
    8  0.009  0.001  0.004  0.014
    9  0.000  0.001  0.011  0.012
   10  0.000  0.005  0.007  0.012
   11  0.003  0.001  0.012  0.016
   12  0.026  0.001  0.014  0.042
   13  0.003  0.001  0.012  0.016
   14  0.000  0.002  0.020  0.022
   15  0.045  0.001  0.015  0.061
   16  0.026  0.001  0.014  0.041
   17  0.046  0.002  0.014  0.062
   18  0.000  0.001  0.047  0.047
   19  0.033  0.002  0.012  0.046
   20  0.000  0.002  0.015  0.017
   21  0.002  0.001  0.012  0.015
   22  0.021  0.001  0.013  0.035
   23  0.002  0.001  0.012  0.015
   24  0.000  0.004  0.012  0.016
   25  0.000  0.001  0.036  0.036
   26  0.034  0.002  0.011  0.047
   27  0.021  0.001  0.012  0.035
   28  0.000  0.000  0.006  0.007
   29  0.004  0.001  0.002  0.007
   30  0.001  0.000  0.002  0.004
   31  0.004  0.001  0.002  0.007
   32  0.001  0.000  0.001  0.002
   33  0.001  0.000  0.002  0.004
   34  0.001  0.000  0.001  0.002
   35  0.000  0.001  0.003  0.003
   36  0.000  0.000  0.001  0.001
   37  0.000  0.000  0.000  0.000
tot    0.298  0.041  0.354  0.693
 
band    11 # energy   -5.99533731 # occ.  2.00000000
 
ion      s      p      d    tot
    1  0.002  0.000  0.000  0.002
    2  0.000  0.000  0.001  0.002
    3  0.000  0.000  0.001  0.002
    4  0.000  0.000  0.001  0.002
    5  0.002  0.000  0.000  0.003
    6  0.000  0.000  0.001  0.002
    7  0.000  0.000  0.001  0.002
    8  0.000  0.000  0.001  0.002
    9  0.001  0.000  0.001  0.002
   10  0.001  0.000  0.006  0.006
   11  0.002  0.001  0.002  0.004
   12  0.001  0.000  0.006  0.006
   13  0.002  0.001  0.002  0.004
   14  0.002  0.001  0.002  0.004
   15  0.004  0.001  0.004  0.009
   16  0.001  0.000  0.006  0.006
   17  0.004  0.001  0.004  0.009
   18  0.004  0.001  0.004  0.009
   19  0.004  0.001  0.017  0.021
   20  0.001  0.000  0.030  0.031
   21  0.001  0.000  0.030  0.031
   22  0.011  0.002  0.021  0.033
   23  0.001  0.000  0.030  0.031
   24  0.011  0.002  0.021  0.033
   25  0.004  0.001  0.017  0.021
   26  0.004  0.001  0.017  0.021
   27  0.011  0.002  0.021  0.033
   28  0.027  0.000  0.022  0.049
   29  0.025  0.000  0.020  0.045
   30  0.025  0.000  0.020  0.045
   31  0.025  0.000  0.020  0.045
   32  0.025  0.000  0.020  0.045
   33  0.025  0.000  0.020  0.045
   34  0.025  0.000  0.020  0.045
   35  0.026  0.000  0.023  0.049
   36  0.008  0.000  0.009  0.018
   37  0.002  0.000  0.000  0.002
tot    0.287  0.014  0.420  0.721
 
band    12 # energy   -5.66138200 # occ.  2.00000000
 
ion      s      p      d    tot
    1  0.012  0.002  0.002  0.016
    2  0.000  0.001  0.008  0.009
    3  0.000  0.001  0.008  0.009
    4  0.000  0.001  0.008  0.009
    5  0.001  0.000  0.002  0.002
    6  0.000  0.001  0.008  0.009
    7  0.000  0.001  0.008  0.009
    8  0.000  0.001  0.008  0.009
    9  0.017  0.002  0.000  0.019
   10  0.010  0.001  0.014  0.026
   11  0.002  0.000  0.045  0.047
   12  0.010  0.001  0.014  0.026
   13  0.002  0.000  0.045  0.047
   14  0.002  0.000  0.045  0.047
   15  0.004  0.001  0.021  0.026
   16  0.010  0.001  0.014  0.026
   17  0.004  0.001  0.021  0.026
   18  0.004  0.001  0.021  0.026
   19  0.004  0.001  0.014  0.018
   20  0.002  0.000  0.054  0.056
   21  0.002  0.000  0.054  0.056
   22  0.011  0.001  0.018  0.030
   23  0.002  0.000  0.054  0.056
   24  0.011  0.001  0.017  0.030
   25  0.004  0.001  0.014  0.018
   26  0.004  0.001  0.014  0.018
   27  0.011  0.001  0.018  0.030
   28  0.010  0.001  0.000  0.011
   29  0.000  0.000  0.005  0.006
   30  0.000  0.000  0.005  0.006
   31  0.000  0.000  0.005  0.006
   32  0.000  0.000  0.005  0.006
   33  0.000  0.000  0.005  0.006
   34  0.000  0.000  0.005  0.006
   35  0.008  0.001  0.002  0.012
   36  0.000  0.000  0.001  0.001
   37  0.000  0.000  0.000  0.000
tot    0.146  0.027  0.584  0.756
 
band    13 # energy   -5.65625774 # occ.  2.00000000
 
ion      s      p      d    tot
    1  0.000  0.001  0.004  0.004
    2  0.009  0.001  0.004  0.014
    3  0.001  0.000  0.004  0.006
    4  0.009  0.001  0.004  0.014
    5  0.000  0.001  0.011  0.012
    6  0.004  0.001  0.005  0.010
    7  0.001  0.000  0.004  0.006
    8  0.004  0.001  0.005  0.010
    9  0.000  0.000  0.008  0.009
   10  0.010  0.002  0.008  0.020
   11  0.005  0.000  0.040  0.046
   12  0.002  0.001  0.040  0.043
   13  0.005  0.000  0.041  0.046
   14  0.020  0.001  0.011  0.033
   15  0.000  0.001  0.014  0.015
   16  0.002  0.001  0.040  0.043
   17  0.000  0.001  0.014  0.015
   18  0.002  0.000  0.022  0.024
   19  0.002  0.001  0.014  0.017
   20  0.023  0.001  0.007  0.031
   21  0.006  0.000  0.059  0.066
   22  0.001  0.001  0.029  0.031
   23  0.006  0.000  0.059  0.065
   24  0.004  0.001  0.014  0.019
   25  0.008  0.000  0.021  0.029
   26  0.002  0.001  0.014  0.017
   27  0.001  0.001  0.029  0.031
   28  0.000  0.000  0.008  0.008
   29  0.007  0.001  0.004  0.012
   30  0.000  0.000  0.004  0.004
   31  0.007  0.001  0.004  0.012
   32  0.007  0.001  0.004  0.012
   33  0.000  0.000  0.004  0.004
   34  0.007  0.001  0.004  0.012
   35  0.000  0.000  0.003  0.003
   36  0.000  0.003  0.003  0.006
   37  0.000  0.000  0.000  0.000
tot    0.155  0.031  0.564  0.751
 
band    14 # energy   -5.65625650 # occ.  2.00000000
 
ion      s      p      d    tot
    1  0.000  0.001  0.004  0.004
    2  0.000  0.001  0.005  0.006
    3  0.009  0.001  0.005  0.015
    4  0.000  0.001  0.005  0.006
    5  0.000  0.001  0.011  0.012
    6  0.005  0.001  0.004  0.010
    7  0.009  0.001  0.005  0.014
    8  0.005  0.001  0.004  0.010
    9  0.000  0.000  0.008  0.009
   10  0.000  0.001  0.050  0.051
   11  0.015  0.001  0.021  0.037
   12  0.007  0.002  0.019  0.027
   13  0.015  0.001  0.021  0.037
   14  0.000  0.000  0.050  0.050
   15  0.001  0.000  0.020  0.021
   16  0.007  0.002  0.019  0.028
   17  0.001  0.000  0.020  0.021
   18  0.000  0.001  0.011  0.012
   19  0.006  0.000  0.019  0.025
   20  0.000  0.000  0.077  0.077
   21  0.018  0.001  0.024  0.043
   22  0.003  0.001  0.019  0.023
   23  0.017  0.001  0.025  0.043
   24  0.000  0.001  0.034  0.035
   25  0.000  0.001  0.012  0.013
   26  0.006  0.000  0.019  0.025
   27  0.003  0.001  0.019  0.023
   28  0.000  0.000  0.008  0.008
   29  0.002  0.001  0.004  0.007
   30  0.009  0.001  0.004  0.014
   31  0.002  0.001  0.004  0.007
   32  0.003  0.001  0.004  0.007
   33  0.009  0.001  0.004  0.014
   34  0.003  0.001  0.004  0.007
   35  0.000  0.000  0.003  0.003
   36  0.000  0.003  0.003  0.006
   37  0.000  0.000  0.000  0.000
tot    0.155  0.031  0.564  0.751
 
band    15 # energy   -5.59438269 # occ.  2.00000000
 
ion      s      p      d    tot
    1  0.000  0.001  0.015  0.016
    2  0.010  0.001  0.005  0.016
    3  0.002  0.000  0.005  0.008
    4  0.010  0.001  0.005  0.016
    5  0.000  0.000  0.005  0.005
    6  0.003  0.001  0.006  0.009
    7  0.002  0.000  0.005  0.008
    8  0.003  0.001  0.006  0.010
    9  0.000  0.001  0.007  0.009
   10  0.000  0.001  0.029  0.030
   11  0.001  0.001  0.020  0.022
   12  0.007  0.000  0.023  0.030
   13  0.001  0.001  0.020  0.022
   14  0.000  0.001  0.019  0.020
   15  0.010  0.002  0.021  0.034
   16  0.006  0.000  0.023  0.030
   17  0.011  0.002  0.021  0.033
   18  0.000  0.000  0.065  0.065
   19  0.013  0.001  0.020  0.034
   20  0.000  0.002  0.020  0.021
   21  0.000  0.001  0.023  0.024
   22  0.018  0.001  0.021  0.039
   23  0.000  0.001  0.023  0.024
   24  0.000  0.000  0.032  0.033
   25  0.000  0.000  0.068  0.069
   26  0.013  0.001  0.020  0.034
   27  0.018  0.001  0.021  0.039
   28  0.000  0.001  0.005  0.005
   29  0.005  0.001  0.003  0.009
   30  0.000  0.000  0.004  0.005
   31  0.005  0.001  0.003  0.009
   32  0.003  0.001  0.002  0.006
   33  0.000  0.000  0.004  0.005
   34  0.003  0.001  0.002  0.006
   35  0.000  0.001  0.007  0.008
   36  0.000  0.000  0.001  0.001
   37  0.000  0.000  0.000  0.000
tot    0.145  0.028  0.580  0.753
 
band    16 # energy   -5.59436522 # occ.  2.00000000
 
ion      s      p      d    tot
    1  0.000  0.001  0.015  0.016
    2  0.000  0.000  0.006  0.006
    3  0.008  0.001  0.005  0.015
    4  0.000  0.000  0.006  0.006
    5  0.000  0.000  0.005  0.005
    6  0.007  0.001  0.005  0.012
    7  0.008  0.001  0.005  0.014
    8  0.007  0.001  0.005  0.012
    9  0.000  0.001  0.007  0.009
   10  0.009  0.000  0.020  0.029
   11  0.000  0.001  0.020  0.021
   12  0.002  0.001  0.027  0.030
   13  0.000  0.001  0.020  0.021
   14  0.001  0.001  0.020  0.022
   15  0.003  0.001  0.050  0.054
   16  0.002  0.001  0.027  0.030
   17  0.003  0.001  0.050  0.054
   18  0.014  0.002  0.007  0.023
   19  0.004  0.001  0.052  0.057
   20  0.000  0.000  0.024  0.025
   21  0.000  0.001  0.021  0.022
   22  0.006  0.001  0.029  0.035
   23  0.000  0.001  0.021  0.022
   24  0.024  0.001  0.016  0.041
   25  0.018  0.001  0.004  0.023
   26  0.004  0.001  0.052  0.057
   27  0.006  0.001  0.029  0.035
   28  0.000  0.001  0.005  0.005
   29  0.001  0.000  0.003  0.004
   30  0.005  0.001  0.002  0.009
   31  0.001  0.000  0.003  0.004
   32  0.002  0.001  0.004  0.008
   33  0.005  0.001  0.002  0.009
   34  0.002  0.001  0.004  0.008
   35  0.000  0.001  0.007  0.008
   36  0.000  0.000  0.001  0.001
   37  0.000  0.000  0.000  0.000
tot    0.145  0.028  0.580  0.753
 
band    17 # energy   -5.59330275 # occ.  2.00000000
 
ion      s      p      d    tot
    1  0.011  0.001  0.001  0.012
    2  0.000  0.001  0.009  0.010
    3  0.000  0.001  0.009  0.010
    4  0.000  0.001  0.009  0.010
    5  0.018  0.002  0.001  0.020
    6  0.000  0.001  0.009  0.010
    7  0.000  0.001  0.009  0.010
    8  0.000  0.001  0.009  0.010
    9  0.001  0.000  0.002  0.004
   10  0.000  0.000  0.042  0.043
   11  0.006  0.002  0.011  0.019
   12  0.000  0.000  0.041  0.041
   13  0.006  0.002  0.011  0.019
   14  0.006  0.002  0.011  0.019
   15  0.005  0.001  0.029  0.035
   16  0.000  0.000  0.041  0.042
   17  0.005  0.001  0.029  0.035
   18  0.005  0.001  0.029  0.035
   19  0.011  0.001  0.044  0.055
   20  0.010  0.001  0.006  0.017
   21  0.010  0.001  0.006  0.017
   22  0.000  0.000  0.037  0.037
   23  0.010  0.001  0.006  0.017
   24  0.000  0.000  0.038  0.039
   25  0.010  0.001  0.044  0.054
   26  0.011  0.001  0.044  0.055
   27  0.000  0.000  0.037  0.037
   28  0.001  0.001  0.008  0.009
   29  0.001  0.000  0.005  0.006
   30  0.001  0.000  0.005  0.006
   31  0.001  0.000  0.005  0.006
   32  0.001  0.000  0.005  0.006
   33  0.001  0.000  0.005  0.006
   34  0.001  0.000  0.005  0.006
   35  0.001  0.000  0.000  0.001
   36  0.009  0.004  0.000  0.013
   37  0.001  0.000  0.000  0.001
tot    0.142  0.028  0.599  0.769
 
band    18 # energy   -5.27179512 # occ.  2.00000000
 
ion      s      p      d    tot
    1  0.000  0.000  0.017  0.017
    2  0.008  0.000  0.012  0.021
    3  0.004  0.001  0.008  0.013
    4  0.008  0.000  0.013  0.021
    5  0.000  0.001  0.026  0.026
    6  0.001  0.000  0.013  0.014
    7  0.004  0.001  0.008  0.013
    8  0.001  0.000  0.013  0.014
    9  0.000  0.001  0.005  0.006
   10  0.000  0.000  0.009  0.009
   11  0.000  0.000  0.050  0.051
   12  0.000  0.000  0.015  0.016
   13  0.000  0.000  0.050  0.051
   14  0.000  0.000  0.054  0.054
   15  0.000  0.000  0.034  0.034
   16  0.000  0.000  0.016  0.016
   17  0.000  0.000  0.033  0.033
   18  0.000  0.000  0.017  0.017
   19  0.001  0.000  0.011  0.012
   20  0.000  0.000  0.038  0.039
   21  0.001  0.000  0.055  0.056
   22  0.000  0.000  0.030  0.030
   23  0.001  0.000  0.056  0.057
   24  0.000  0.000  0.030  0.031
   25  0.000  0.000  0.009  0.009
   26  0.001  0.000  0.011  0.012
   27  0.000  0.000  0.030  0.030
   28  0.000  0.001  0.011  0.012
   29  0.003  0.001  0.006  0.009
   30  0.011  0.001  0.009  0.021
   31  0.002  0.001  0.006  0.009
   32  0.003  0.001  0.012  0.015
   33  0.011  0.001  0.010  0.021
   34  0.003  0.001  0.012  0.016
   35  0.000  0.000  0.019  0.019
   36  0.000  0.004  0.002  0.005
   37  0.000  0.000  0.000  0.000
tot    0.062  0.017  0.751  0.829
 
band    19 # energy   -5.27179307 # occ.  2.00000000
 
ion      s      p      d    tot
    1  0.000  0.000  0.017  0.017
    2  0.000  0.001  0.010  0.011
    3  0.004  0.000  0.014  0.019
    4  0.001  0.001  0.010  0.011
    5  0.000  0.001  0.026  0.026
    6  0.008  0.001  0.009  0.017
    7  0.005  0.000  0.014  0.019
    8  0.008  0.001  0.009  0.018
    9  0.000  0.001  0.005  0.006
   10  0.000  0.000  0.018  0.018
   11  0.000  0.000  0.053  0.053
   12  0.000  0.000  0.012  0.012
   13  0.000  0.000  0.053  0.053
   14  0.000  0.000  0.049  0.050
   15  0.000  0.000  0.022  0.023
   16  0.000  0.000  0.011  0.012
   17  0.000  0.000  0.023  0.023
   18  0.000  0.000  0.039  0.039
   19  0.000  0.000  0.010  0.010
   20  0.001  0.000  0.061  0.062
   21  0.000  0.000  0.044  0.045
   22  0.000  0.000  0.030  0.031
   23  0.000  0.000  0.044  0.044
   24  0.000  0.000  0.029  0.030
   25  0.001  0.000  0.012  0.013
   26  0.000  0.000  0.010  0.010
   27  0.000  0.000  0.030  0.031
   28  0.000  0.001  0.011  0.012
   29  0.008  0.001  0.012  0.021
   30  0.000  0.000  0.009  0.009
   31  0.008  0.001  0.012  0.021
   32  0.008  0.001  0.006  0.015
   33  0.000  0.000  0.009  0.009
   34  0.008  0.001  0.006  0.015
   35  0.000  0.000  0.019  0.019
   36  0.000  0.004  0.002  0.005
   37  0.000  0.000  0.000  0.000
tot    0.062  0.017  0.751  0.829
 
band    20 # energy   -5.25684057 # occ.  2.00000000
 
ion      s      p      d    tot
    1  0.012  0.000  0.006  0.018
    2  0.000  0.001  0.011  0.012
    3  0.000  0.001  0.011  0.012
    4  0.000  0.001  0.011  0.012
    5  0.000  0.000  0.013  0.014
    6  0.000  0.001  0.011  0.012
    7  0.000  0.001  0.011  0.012
    8  0.000  0.001  0.011  0.012
    9  0.010  0.001  0.001  0.012
   10  0.000  0.000  0.027  0.027
   11  0.000  0.000  0.050  0.051
   12  0.000  0.000  0.027  0.027
   13  0.000  0.000  0.050  0.051
   14  0.000  0.000  0.050  0.051
   15  0.000  0.000  0.032  0.032
   16  0.000  0.000  0.027  0.027
   17  0.000  0.000  0.032  0.032
   18  0.000  0.000  0.032  0.032
   19  0.000  0.000  0.022  0.022
   20  0.001  0.000  0.043  0.044
   21  0.001  0.000  0.043  0.044
   22  0.001  0.000  0.028  0.029
   23  0.001  0.000  0.043  0.044
   24  0.001  0.000  0.028  0.029
   25  0.000  0.000  0.022  0.022
   26  0.000  0.000  0.022  0.022
   27  0.001  0.000  0.028  0.029
   28  0.007  0.001  0.000  0.008
   29  0.000  0.001  0.011  0.012
   30  0.000  0.001  0.012  0.012
   31  0.000  0.001  0.011  0.012
   32  0.000  0.001  0.011  0.012
   33  0.000  0.001  0.012  0.012
   34  0.000  0.001  0.011  0.012
   35  0.013  0.001  0.002  0.016
   36  0.001  0.000  0.003  0.004
   37  0.000  0.000  0.000  0.000
tot    0.051  0.014  0.767  0.832
 
band    21 # energy   -5.24082274 # occ.  2.00000000
 
ion      s      p      d    tot
    1  0.004  0.001  0.005  0.010
    2  0.000  0.001  0.021  0.022
    3  0.000  0.001  0.021  0.022
    4  0.000  0.001  0.021  0.022
    5  0.031  0.001  0.001  0.033
    6  0.000  0.001  0.021  0.022
    7  0.000  0.001  0.021  0.022
    8  0.000  0.001  0.021  0.022
    9  0.012  0.000  0.012  0.025
   10  0.000  0.000  0.042  0.042
   11  0.000  0.001  0.031  0.032
   12  0.000  0.000  0.042  0.042
   13  0.000  0.001  0.031  0.032
   14  0.000  0.001  0.031  0.032
   15  0.000  0.000  0.033  0.033
   16  0.000  0.000  0.042  0.042
   17  0.000  0.000  0.033  0.033
   18  0.000  0.000  0.033  0.033
   19  0.001  0.000  0.024  0.025
   20  0.000  0.000  0.024  0.024
   21  0.000  0.000  0.024  0.024
   22  0.001  0.000  0.015  0.016
   23  0.000  0.000  0.024  0.024
   24  0.001  0.000  0.015  0.016
   25  0.001  0.000  0.024  0.025
   26  0.001  0.000  0.024  0.025
   27  0.001  0.000  0.015  0.016
   28  0.009  0.000  0.006  0.015
   29  0.000  0.000  0.013  0.013
   30  0.000  0.000  0.013  0.013
   31  0.000  0.000  0.013  0.013
   32  0.000  0.000  0.013  0.013
   33  0.000  0.000  0.013  0.013
   34  0.000  0.000  0.013  0.013
   35  0.001  0.000  0.004  0.006
   36  0.003  0.001  0.000  0.004