PROCAR new format
# of k-points:   10         # of bands:  252         # of ions:   38

 k-point     1 :    0.00000000 0.00000000 0.00000000     weight = 0.01562500

band     1 # energy  -20.08924678 # occ.  2.00000000
 
ion      s      p      d    tot
    1  0.000  0.000  0.000  0.000
    2  0.000  0.000  0.000  0.000
    3  0.000  0.000  0.000  0.000
    4  0.000  0.000  0.000  0.000
    5  0.000  0.000  0.000  0.000
    6  0.000  0.000  0.000  0.000
    7  0.000  0.000  0.000  0.000
    8  0.000  0.000  0.000  0.000
    9  0.000  0.000  0.000  0.000
   10  0.000  0.000  0.000  0.000
   11  0.000  0.000  0.000  0.000
   12  0.000  0.000  0.000  0.000
   13  0.000  0.000  0.000  0.000
   14  0.000  0.000  0.000  0.000
   15  0.000  0.000  0.000  0.000
   16  0.000  0.000  0.000  0.000
   17  0.000  0.000  0.000  0.000
   18  0.000  0.000  0.000  0.000
   19  0.000  0.000  0.000  0.000
   20  0.000  0.000  0.000  0.000
   21  0.000  0.000  0.000  0.000
   22  0.000  0.000  0.000  0.000
   23  0.000  0.000  0.000  0.000
   24  0.000  0.000  0.000  0.000
   25  0.000  0.000  0.000  0.000
   26  0.000  0.000  0.000  0.000
   27  0.000  0.000  0.000  0.000
   28  0.000  0.000  0.000  0.000
   29  0.000  0.000  0.000  0.000
   30  0.000  0.000  0.000  0.000
   31  0.000  0.000  0.000  0.000
   32  0.000  0.000  0.000  0.000
   33  0.000  0.000  0.000  0.000
   34  0.000  0.000  0.000  0.000
   35  0.000  0.000  0.000  0.000
   36  0.010  0.014  0.027  0.050
   37  0.744  0.016  0.000  0.760
   38  0.116  0.024  0.000  0.140
tot    0.870  0.054  0.027  0.950
 
band     2 # energy   -8.64704901 # occ.  2.00000000
 
ion      s      p      d    tot
    1  0.001  0.000  0.000  0.001
    2  0.001  0.000  0.000  0.001
    3  0.001  0.000  0.000  0.001
    4  0.001  0.000  0.000  0.001
    5  0.001  0.000  0.000  0.001
    6  0.001  0.000  0.000  0.001
    7  0.001  0.000  0.000  0.001
    8  0.001  0.000  0.000  0.001
    9  0.001  0.000  0.000  0.001
   10  0.003  0.000  0.000  0.004
   11  0.004  0.000  0.000  0.004
   12  0.003  0.000  0.000  0.004
   13  0.004  0.000  0.000  0.004
   14  0.004  0.000  0.000  0.004
   15  0.003  0.000  0.000  0.003
   16  0.003  0.000  0.000  0.004
   17  0.003  0.000  0.000  0.003
   18  0.003  0.000  0.000  0.003
   19  0.004  0.000  0.000  0.004
   20  0.009  0.000  0.001  0.010
   21  0.009  0.000  0.001  0.010
   22  0.005  0.000  0.000  0.005
   23  0.009  0.000  0.001  0.010
   24  0.005  0.000  0.000  0.005
   25  0.004  0.000  0.000  0.004
   26  0.004  0.000  0.000  0.004
   27  0.005  0.000  0.000  0.005
   28  0.001  0.000  0.000  0.002
   29  0.002  0.000  0.000  0.002
   30  0.002  0.000  0.000  0.002
   31  0.002  0.000  0.000  0.002
   32  0.002  0.000  0.000  0.002
   33  0.002  0.000  0.000  0.002
   34  0.002  0.000  0.000  0.002
   35  0.001  0.000  0.000  0.001
   36  0.056  0.022  0.125  0.204
   37  0.020  0.431  0.000  0.451
   38  0.143  0.015  0.000  0.158
tot    0.325  0.472  0.127  0.925
 
band     3 # energy   -8.33528456 # occ.  2.00000000
 
ion      s      p      d    tot
    1  0.007  0.001  0.000  0.007
    2  0.006  0.001  0.000  0.007
    3  0.006  0.001  0.000  0.007
    4  0.006  0.001  0.000  0.007
    5  0.006  0.001  0.000  0.007
    6  0.006  0.001  0.000  0.007
    7  0.006  0.001  0.000  0.007
    8  0.006  0.001  0.000  0.007
    9  0.006  0.001  0.000  0.007
   10  0.022  0.000  0.000  0.023
   11  0.022  0.000  0.000  0.022
   12  0.022  0.000  0.000  0.023
   13  0.022  0.000  0.000  0.022
   14  0.022  0.000  0.000  0.022
   15  0.022  0.000  0.000  0.022
   16  0.022  0.000  0.000  0.023
   17  0.022  0.000  0.000  0.022
   18  0.022  0.000  0.000  0.022
   19  0.020  0.000  0.000  0.020
   20  0.016  0.001  0.000  0.016
   21  0.016  0.001  0.000  0.016
   22  0.019  0.000  0.000  0.019
   23  0.016  0.001  0.000  0.016
   24  0.019  0.000  0.000  0.019
   25  0.020  0.000  0.000  0.020
   26  0.020  0.000  0.000  0.020
   27  0.019  0.000  0.000  0.019
   28  0.005  0.001  0.000  0.006
   29  0.004  0.001  0.000  0.005
   30  0.004  0.001  0.000  0.005
   31  0.004  0.001  0.000  0.005
   32  0.004  0.001  0.000  0.005
   33  0.004  0.001  0.000  0.005
   34  0.004  0.001  0.000  0.005
   35  0.005  0.001  0.000  0.006
   36  0.001  0.013  0.033  0.046
   37  0.006  0.098  0.000  0.104
   38  0.032  0.003  0.000  0.035
tot    0.496  0.129  0.034  0.659
 
band     4 # energy   -7.08070105 # occ.  2.00000000
 
ion      s      p      d    tot
    1  0.018  0.001  0.001  0.019
    2  0.018  0.001  0.001  0.019
    3  0.018  0.001  0.001  0.019
    4  0.018  0.001  0.001  0.019
    5  0.018  0.001  0.001  0.019
    6  0.017  0.001  0.001  0.019
    7  0.018  0.001  0.001  0.019
    8  0.017  0.001  0.001  0.019
    9  0.017  0.001  0.001  0.019
   10  0.009  0.002  0.001  0.012
   11  0.009  0.002  0.000  0.012
   12  0.009  0.002  0.001  0.012
   13  0.009  0.002  0.000  0.012
   14  0.009  0.002  0.000  0.012
   15  0.009  0.002  0.001  0.011
   16  0.009  0.002  0.001  0.012
   17  0.009  0.002  0.001  0.011
   18  0.009  0.002  0.001  0.011
   19  0.012  0.002  0.001  0.015
   20  0.009  0.002  0.001  0.011
   21  0.009  0.002  0.001  0.011
   22  0.012  0.002  0.001  0.014
   23  0.009  0.002  0.001  0.011
   24  0.012  0.002  0.001  0.014
   25  0.012  0.002  0.001  0.015
   26  0.012  0.002  0.001  0.015
   27  0.012  0.002  0.001  0.014
   28  0.020  0.001  0.001  0.022
   29  0.019  0.001  0.001  0.020
   30  0.019  0.001  0.001  0.020
   31  0.019  0.001  0.001  0.020
   32  0.019  0.001  0.001  0.020
   33  0.019  0.001  0.001  0.020
   34  0.019  0.001  0.001  0.020
   35  0.020  0.001  0.001  0.021
   36  0.013  0.003  0.008  0.024
   37  0.001  0.004  0.000  0.005
   38  0.001  0.000  0.000  0.001
tot    0.503  0.059  0.028  0.590
 
band     5 # energy   -5.53245835 # occ.  2.00000000
 
ion      s      p      d    tot
    1  0.015  0.000  0.005  0.021
    2  0.015  0.000  0.005  0.020
    3  0.015  0.000  0.005  0.020
    4  0.015  0.000  0.005  0.020
    5  0.007  0.000  0.006  0.014
    6  0.015  0.000  0.005  0.020
    7  0.015  0.000  0.005  0.020
    8  0.015  0.000  0.005  0.020
    9  0.024  0.000  0.004  0.028
   10  0.003  0.003  0.002  0.009
   11  0.010  0.005  0.001  0.016
   12  0.003  0.003  0.002  0.009
   13  0.010  0.005  0.001  0.016
   14  0.010  0.005  0.001  0.016
   15  0.000  0.003  0.003  0.006
   16  0.003  0.003  0.002  0.009
   17  0.000  0.003  0.003  0.006
   18  0.000  0.003  0.003  0.006
   19  0.002  0.003  0.005  0.009
   20  0.017  0.004  0.004  0.025
   21  0.017  0.004  0.004  0.025
   22  0.001  0.004  0.004  0.008
   23  0.017  0.004  0.004  0.025
   24  0.001  0.004  0.004  0.008
   25  0.002  0.003  0.005  0.009
   26  0.002  0.003  0.005  0.009
   27  0.001  0.004  0.004  0.008
   28  0.019  0.000  0.006  0.025
   29  0.017  0.000  0.007  0.025
   30  0.017  0.000  0.007  0.025
   31  0.017  0.000  0.007  0.025
   32  0.017  0.000  0.007  0.025
   33  0.017  0.000  0.007  0.025
   34  0.017  0.000  0.007  0.025
   35  0.025  0.000  0.005  0.031
   36  0.007  0.002  0.017  0.027
   37  0.000  0.001  0.000  0.001
   38  0.000  0.000  0.000  0.001
tot    0.387  0.069  0.176  0.632
 
band     6 # energy   -5.44712361 # occ.  2.00000000
 
ion      s      p      d    tot
    1  0.000  0.003  0.005  0.008
    2  0.009  0.002  0.002  0.014
    3  0.002  0.001  0.002  0.005
    4  0.009  0.002  0.002  0.014
    5  0.000  0.002  0.003  0.005
    6  0.002  0.001  0.002  0.006
    7  0.002  0.001  0.002  0.005
    8  0.002  0.001  0.002  0.006
    9  0.000  0.000  0.003  0.003
   10  0.058  0.004  0.004  0.067
   11  0.005  0.010  0.004  0.019
   12  0.015  0.003  0.011  0.029
   13  0.005  0.010  0.004  0.019
   14  0.021  0.000  0.006  0.028
   15  0.002  0.004  0.008  0.014
   16  0.015  0.003  0.012  0.029
   17  0.002  0.004  0.008  0.014
   18  0.009  0.003  0.003  0.014
   19  0.008  0.010  0.004  0.022
   20  0.064  0.004  0.006  0.073
   21  0.016  0.002  0.016  0.033
   22  0.001  0.005  0.007  0.013
   23  0.016  0.002  0.016  0.033
   24  0.003  0.002  0.004  0.009
   25  0.032  0.000  0.007  0.040
   26  0.008  0.010  0.004  0.022
   27  0.001  0.005  0.007  0.013
   28  0.000  0.003  0.004  0.007
   29  0.010  0.003  0.003  0.016
   30  0.005  0.001  0.003  0.009
   31  0.010  0.003  0.003  0.016
   32  0.001  0.001  0.003  0.005
   33  0.005  0.001  0.003  0.009
   34  0.001  0.001  0.003  0.005
   35  0.000  0.000  0.002  0.003
   36  0.000  0.003  0.020  0.023
   37  0.000  0.002  0.000  0.002
   38  0.000  0.000  0.000  0.000
tot    0.340  0.113  0.195  0.649
 
band     7 # energy   -5.44700892 # occ.  2.00000000
 
ion      s      p      d    tot
    1  0.000  0.003  0.005  0.008
    2  0.000  0.001  0.002  0.003
    3  0.007  0.002  0.002  0.011
    4  0.000  0.001  0.002  0.003
    5  0.000  0.002  0.003  0.005
    6  0.007  0.002  0.002  0.011
    7  0.007  0.002  0.002  0.011
    8  0.007  0.002  0.002  0.011
    9  0.000  0.000  0.003  0.003
   10  0.000  0.002  0.014  0.016
   11  0.016  0.003  0.005  0.025
   12  0.044  0.004  0.006  0.054
   13  0.016  0.003  0.005  0.025
   14  0.000  0.013  0.003  0.016
   15  0.007  0.003  0.004  0.014
   16  0.044  0.004  0.006  0.054
   17  0.007  0.003  0.004  0.014
   18  0.000  0.004  0.010  0.014
   19  0.024  0.004  0.006  0.034
   20  0.000  0.001  0.019  0.020
   21  0.048  0.003  0.009  0.060
   22  0.003  0.003  0.005  0.011
   23  0.048  0.003  0.009  0.060
   24  0.000  0.006  0.008  0.014
   25  0.000  0.013  0.003  0.016
   26  0.024  0.004  0.006  0.034
   27  0.003  0.003  0.005  0.011
   28  0.000  0.003  0.004  0.007
   29  0.001  0.001  0.003  0.004
   30  0.005  0.002  0.004  0.011
   31  0.001  0.001  0.003  0.004
   32  0.010  0.003  0.003  0.015
   33  0.005  0.002  0.004  0.011
   34  0.010  0.003  0.003  0.015
   35  0.000  0.000  0.002  0.003
   36  0.000  0.003  0.020  0.023
   37  0.000  0.002  0.000  0.002
   38  0.000  0.000  0.000  0.000
tot    0.340  0.113  0.195  0.649
 
band     8 # energy   -5.39912995 # occ.  2.00000000
 
ion      s      p      d    tot
    1  0.000  0.000  0.002  0.003
    2  0.010  0.002  0.002  0.015
    3  0.003  0.001  0.002  0.006
    4  0.010  0.002  0.002  0.015
    5  0.000  0.001  0.005  0.006
    6  0.002  0.001  0.002  0.006
    7  0.002  0.001  0.002  0.006
    8  0.002  0.001  0.002  0.006
    9  0.000  0.003  0.005  0.008
   10  0.000  0.011  0.003  0.014
   11  0.030  0.004  0.006  0.039
   12  0.001  0.003  0.005  0.009
   13  0.029  0.003  0.006  0.038
   14  0.000  0.000  0.016  0.016
   15  0.038  0.004  0.006  0.048
   16  0.001  0.003  0.005  0.009
   17  0.037  0.004  0.006  0.047
   18  0.000  0.009  0.008  0.016
   19  0.023  0.004  0.005  0.032
   20  0.000  0.014  0.001  0.015
   21  0.004  0.004  0.005  0.013
   22  0.044  0.004  0.006  0.054
   23  0.004  0.004  0.005  0.013
   24  0.000  0.007  0.010  0.017
   25  0.000  0.001  0.015  0.016
   26  0.023  0.003  0.005  0.032
   27  0.045  0.004  0.006  0.055
   28  0.000  0.001  0.004  0.005
   29  0.012  0.003  0.003  0.017
   30  0.004  0.002  0.003  0.009
   31  0.012  0.003  0.003  0.017
   32  0.002  0.001  0.003  0.006
   33  0.004  0.002  0.003  0.009
   34  0.002  0.001  0.003  0.006
   35  0.000  0.004  0.006  0.009
   36  0.000  0.001  0.008  0.010
   37  0.000  0.000  0.000  0.000
   38  0.000  0.000  0.000  0.000
tot    0.342  0.116  0.181  0.639
 
band     9 # energy   -5.39902917 # occ.  2.00000000
 
ion      s      p      d    tot
    1  0.000  0.000  0.002  0.003
    2  0.000  0.001  0.002  0.003
    3  0.007  0.002  0.002  0.012
    4  0.000  0.001  0.002  0.003
    5  0.000  0.001  0.005  0.006
    6  0.007  0.002  0.002  0.011
    7  0.007  0.002  0.002  0.012
    8  0.007  0.002  0.002  0.011
    9  0.000  0.003  0.005  0.008
   10  0.001  0.001  0.005  0.007
   11  0.010  0.001  0.013  0.024
   12  0.000  0.008  0.004  0.012
   13  0.010  0.001  0.012  0.024
   14  0.038  0.005  0.002  0.045
   15  0.012  0.007  0.007  0.026
   16  0.000  0.008  0.004  0.012
   17  0.012  0.007  0.007  0.026
   18  0.051  0.002  0.006  0.059
   19  0.008  0.001  0.012  0.022
   20  0.005  0.001  0.007  0.013
   21  0.001  0.010  0.002  0.014
   22  0.016  0.006  0.009  0.031
   23  0.001  0.010  0.002  0.014
   24  0.057  0.003  0.005  0.065
   25  0.029  0.005  0.002  0.036
   26  0.009  0.002  0.012  0.022
   27  0.016  0.006  0.009  0.030
   28  0.000  0.001  0.004  0.005
   29  0.000  0.001  0.003  0.004
   30  0.008  0.002  0.003  0.012
   31  0.000  0.001  0.003  0.004
   32  0.010  0.003  0.003  0.015
   33  0.008  0.002  0.003  0.013
   34  0.010  0.003  0.003  0.015
   35  0.000  0.004  0.006  0.009
   36  0.000  0.001  0.008  0.010
   37  0.000  0.000  0.000  0.000
   38  0.000  0.000  0.000  0.000
tot    0.342  0.116  0.181  0.639
 
band    10 # energy   -5.39775552 # occ.  2.00000000
 
ion      s      p      d    tot
    1  0.022  0.003  0.001  0.027
    2  0.000  0.002  0.004  0.006
    3  0.000  0.002  0.004  0.006
    4  0.000  0.002  0.004  0.006
    5  0.002  0.000  0.001  0.003
    6  0.000  0.002  0.004  0.006
    7  0.000  0.002  0.004  0.006
    8  0.000  0.002  0.004  0.006
    9  0.008  0.001  0.000  0.010
   10  0.030  0.006  0.006  0.042
   11  0.006  0.000  0.012  0.018
   12  0.031  0.006  0.005  0.042
   13  0.006  0.000  0.012  0.018
   14  0.008  0.000  0.012  0.020
   15  0.011  0.008  0.004  0.022
   16  0.031  0.006  0.005  0.042
   17  0.011  0.008  0.004  0.022
   18  0.009  0.008  0.004  0.020
   19  0.022  0.009  0.002  0.033
   20  0.000  0.003  0.010  0.013
   21  0.000  0.003  0.011  0.014
   22  0.022  0.002  0.009  0.033
   23  0.000  0.003  0.011  0.014
   24  0.025  0.002  0.009  0.036
   25  0.024  0.009  0.002  0.035
   26  0.022  0.009  0.002  0.033
   27  0.022  0.002  0.009  0.033
   28  0.019  0.003  0.000  0.022
   29  0.000  0.002  0.004  0.006
   30  0.000  0.002  0.004  0.006
   31  0.000  0.002  0.004  0.006
   32  0.000  0.002  0.004  0.006
   33  0.000  0.002  0.004  0.006
   34  0.000  0.002  0.004  0.006
   35  0.011  0.002  0.001  0.015
   36  0.000  0.000  0.000  0.000
   37  0.000  0.000  0.000  0.000
   38  0.000  0.000  0.000  0.000
tot    0.344  0.114  0.182  0.639
 
band    11 # energy   -5.31879689 # occ.  2.00000000
 
ion      s      p      d    tot
    1  0.000  0.000  0.001  0.001
    2  0.002  0.002  0.006  0.009
    3  0.002  0.002  0.006  0.009
    4  0.002  0.002  0.006  0.009
    5  0.036  0.003  0.000  0.039
    6  0.002  0.002  0.006  0.009
    7  0.002  0.002  0.006  0.009
    8  0.002  0.002  0.006  0.009
    9  0.006  0.002  0.004  0.012
   10  0.002  0.004  0.009  0.015
   11  0.021  0.010  0.003  0.034
   12  0.002  0.004  0.009  0.015
   13  0.021  0.010  0.003  0.034
   14  0.021  0.010  0.003  0.034
   15  0.029  0.002  0.011  0.042
   16  0.002  0.004  0.009  0.015
   17  0.029  0.002  0.011  0.042
   18  0.029  0.002  0.011  0.042
   19  0.007  0.001  0.009  0.017
   20  0.019  0.004  0.007  0.030
   21  0.019  0.004  0.007  0.030
   22  0.009  0.007  0.004  0.020
   23  0.019  0.004  0.007  0.030
   24  0.009  0.007  0.004  0.020
   25  0.007  0.001  0.009  0.017
   26  0.007  0.001  0.009  0.017
   27  0.009  0.007  0.004  0.020
   28  0.000  0.000  0.002  0.003
   29  0.002  0.001  0.003  0.006
   30  0.002  0.001  0.003  0.006
   31  0.002  0.001  0.003  0.006
   32  0.002  0.001  0.003  0.006
   33  0.002  0.001  0.003  0.006
   34  0.002  0.001  0.003  0.006
   35  0.000  0.001  0.002  0.003
   36  0.015  0.005  0.002  0.022
   37  0.000  0.002  0.000  0.002
   38  0.000  0.000  0.000  0.001
tot    0.344  0.114  0.196  0.653
 
band    12 # energy   -4.70037744 # occ.  2.00000000
 
ion      s      p      d    tot
    1  0.000  0.002  0.010  0.012
    2  0.018  0.003  0.005  0.026
    3  0.002  0.002  0.004  0.008
    4  0.018  0.003  0.005  0.026
    5  0.000  0.001  0.009  0.010
    6  0.008  0.002  0.005  0.015
    7  0.002  0.002  0.004  0.008
    8  0.008  0.002  0.005  0.015
    9  0.000  0.005  0.008  0.013
   10  0.000  0.004  0.015  0.020
   11  0.006  0.002  0.009  0.017
   12  0.003  0.001  0.009  0.013
   13  0.006  0.002  0.009  0.017
   14  0.000  0.001  0.015  0.016
   15  0.018  0.003  0.008  0.030
   16  0.003  0.001  0.009  0.013
   17  0.018  0.003  0.008  0.030
   18  0.000  0.001  0.020  0.021
   19  0.007  0.004  0.009  0.021
   20  0.000  0.003  0.024  0.028
   21  0.000  0.001  0.014  0.015
   22  0.009  0.004  0.009  0.022
   23  0.000  0.001  0.014  0.015
   24  0.000  0.001  0.027  0.029
   25  0.000  0.000  0.011  0.011
   26  0.007  0.004  0.009  0.021
   27  0.009  0.004  0.009  0.022
   28  0.000  0.003  0.008  0.011
   29  0.023  0.003  0.008  0.035
   30  0.001  0.002  0.010  0.013
   31  0.023  0.003  0.008  0.035
   32  0.015  0.002  0.009  0.026
   33  0.001  0.002  0.010  0.013
   34  0.015  0.002  0.009  0.026
   35  0.000  0.006  0.008  0.014
   36  0.000  0.000  0.038  0.038
   37  0.000  0.004  0.000  0.004
   38  0.000  0.000  0.000  0.000
tot    0.224  0.093  0.392  0.709
 
band    13 # energy   -4.70033442 # occ.  2.00000000
 
ion      s      p      d    tot
    1  0.000  0.002  0.010  0.012
    2  0.001  0.001  0.004  0.007
    3  0.017  0.003  0.005  0.025
    4  0.001  0.001  0.004  0.007
    5  0.000  0.001  0.009  0.010
    6  0.011  0.002  0.004  0.017
    7  0.017  0.003  0.005  0.025
    8  0.011  0.003  0.004  0.018
    9  0.000  0.005  0.008  0.013
   10  0.005  0.000  0.006  0.011
   11  0.002  0.002  0.013  0.016
   12  0.001  0.003  0.013  0.017
   13  0.002  0.002  0.013  0.016
   14  0.008  0.002  0.007  0.017
   15  0.006  0.002  0.016  0.024
   16  0.001  0.003  0.013  0.017
   17  0.006  0.002  0.016  0.024
   18  0.024  0.004  0.004  0.033
   19  0.003  0.001  0.010  0.014
   20  0.000  0.000  0.011  0.011
   21  0.000  0.002  0.021  0.023
   22  0.003  0.002  0.021  0.026
   23  0.000  0.002  0.021  0.023
   24  0.012  0.004  0.003  0.019
   25  0.010  0.005  0.009  0.024
   26  0.003  0.001  0.010  0.014
   27  0.003  0.002  0.021  0.026
   28  0.000  0.003  0.008  0.011
   29  0.003  0.002  0.010  0.015
   30  0.025  0.003  0.008  0.036
   31  0.003  0.002  0.010  0.015
   32  0.011  0.003  0.009  0.023
   33  0.025  0.003  0.008  0.037
   34  0.011  0.003  0.009  0.023
   35  0.000  0.006  0.008  0.014
   36  0.000  0.000  0.038  0.038
   37  0.000  0.004  0.000  0.004
   38  0.000  0.000  0.000  0.000
tot    0.224  0.093  0.392  0.709
 
band    14 # energy   -4.69150132 # occ.  2.00000000
 
ion      s      p      d    tot
    1  0.005  0.001  0.010  0.015
    2  0.006  0.001  0.010  0.016
    3  0.006  0.001  0.010  0.016
    4  0.006  0.001  0.010  0.016
    5  0.002  0.001  0.010  0.012
    6  0.006  0.001  0.010  0.016
    7  0.006  0.001  0.010  0.016
    8  0.006  0.001  0.010  0.016
    9  0.013  0.000  0.008  0.022
   10  0.009  0.000  0.025  0.034
   11  0.010  0.000  0.022  0.032
   12  0.009  0.000  0.025  0.034
   13  0.010  0.000  0.022  0.032
   14  0.009  0.000  0.022  0.032
   15  0.003  0.000  0.022  0.026
   16  0.009  0.000  0.025  0.034
   17  0.003  0.000  0.022  0.026
   18  0.003  0.000  0.022  0.026
   19  0.005  0.000  0.019  0.025
   20  0.009  0.001  0.029  0.038
   21  0.009  0.001  0.029  0.038
   22  0.003  0.000  0.018  0.022
   23  0.009  0.001  0.029  0.038
   24  0.003  0.000  0.018  0.022
   25  0.005  0.000  0.019  0.025
   26  0.005  0.000  0.019  0.025
   27  0.003  0.000  0.018  0.022
   28  0.002  0.001  0.006  0.009
   29  0.004  0.000  0.008  0.012
   30  0.004  0.000  0.008  0.012
   31  0.004  0.000  0.008  0.012
   32  0.004  0.000  0.008  0.012
   33  0.004  0.000  0.008  0.012
   34  0.004  0.000  0.008  0.012
   35  0.007  0.000  0.006  0.013
   36  0.002  0.003  0.011  0.016
   37  0.000  0.001  0.000  0.001
   38  0.001  0.000  0.000  0.001
tot    0.203  0.015  0.562  0.780
 
band    15 # energy   -4.65640659 # occ.  2.00000000
 
ion      s      p      d    tot
    1  0.000  0.004  0.009  0.013
    2  0.022  0.004  0.006  0.031
    3  0.003  0.002  0.005  0.010
    4  0.022  0.004  0.006  0.031
    5  0.000  0.006  0.010  0.016
    6  0.008  0.003  0.006  0.016
    7  0.003  0.002  0.005  0.011
    8  0.008  0.003  0.006  0.017
    9  0.000  0.000  0.012  0.013
   10  0.022  0.005  0.008  0.035
   11  0.004  0.003  0.021  0.028
   12  0.005  0.001  0.018  0.025
   13  0.004  0.003  0.021  0.028
   14  0.016  0.003  0.005  0.023
   15  0.000  0.003  0.014  0.017
   16  0.005  0.001  0.018  0.025
   17  0.000  0.003  0.014  0.017
   18  0.000  0.001  0.009  0.010
   19  0.001  0.002  0.017  0.020
   20  0.020  0.006  0.004  0.030
   21  0.005  0.002  0.025  0.032
   22  0.001  0.001  0.011  0.013
   23  0.005  0.002  0.025  0.032
   24  0.004  0.002  0.010  0.015
   25  0.004  0.001  0.005  0.010
   26  0.001  0.002  0.017  0.020
   27  0.001  0.001  0.011  0.013
   28  0.000  0.003  0.008  0.011
   29  0.014  0.004  0.007  0.025
   30  0.002  0.001  0.005  0.007
   31  0.014  0.004  0.007  0.025
   32  0.006  0.002  0.008  0.016
   33  0.002  0.001  0.005  0.008
   34  0.006  0.002  0.008  0.016
   35  0.000  0.000  0.008  0.008
   36  0.000  0.004  0.033  0.038
   37  0.000  0.013  0.000  0.013
   38  0.000  0.000  0.000  0.000
tot    0.209  0.102  0.407  0.718
 
band    16 # energy   -4.65633588 # occ.  2.00000000
 
ion      s      p      d    tot
    1  0.000  0.004  0.009  0.013
    2  0.000  0.002  0.005  0.007
    3  0.019  0.004  0.006  0.028
    4  0.000  0.002  0.005  0.007
    5  0.000  0.006  0.010  0.016
    6  0.014  0.003  0.005  0.023
    7  0.019  0.004  0.006  0.028
    8  0.014  0.003  0.005  0.022
    9  0.000  0.000  0.012  0.013
   10  0.000  0.000  0.022  0.022
   11  0.012  0.003  0.011  0.025
   12  0.016  0.004  0.011  0.031
   13  0.012  0.003  0.010  0.025
   14  0.000  0.003  0.026  0.029
   15  0.000  0.001  0.011  0.012
   16  0.016  0.004  0.011  0.031
   17  0.000  0.001  0.011  0.012
   18  0.000  0.003  0.016  0.019
   19  0.003  0.001  0.009  0.014
   20  0.000  0.000  0.032  0.032
   21  0.015  0.005  0.011  0.031
   22  0.003  0.002  0.010  0.015
   23  0.015  0.005  0.011  0.031
   24  0.000  0.001  0.011  0.013
   25  0.000  0.002  0.021  0.024
   26  0.003  0.001  0.009  0.014
   27  0.003  0.002  0.010  0.015
   28  0.000  0.003  0.008  0.011
   29  0.000  0.001  0.006  0.007
   30  0.013  0.003  0.008  0.025
   31  0.000  0.001  0.006  0.007
   32  0.009  0.002  0.005  0.016
   33  0.013  0.003  0.008  0.024
   34  0.009  0.002  0.005  0.016
   35  0.000  0.000  0.008  0.008
   36  0.000  0.004  0.033  0.038
   37  0.000  0.013  0.000  0.013
   38  0.000  0.000  0.000  0.000
tot    0.209  0.102  0.407  0.718
 
band    17 # energy   -4.63823497 # occ.  2.00000000
 
ion      s      p      d    tot
    1  0.034  0.003  0.000  0.037
    2  0.000  0.003  0.010  0.013
    3  0.000  0.003  0.010  0.013
    4  0.000  0.003  0.010  0.013
    5  0.000  0.000  0.000  0.001
    6  0.000  0.003  0.010  0.013
    7  0.000  0.003  0.010  0.013
    8  0.000  0.003  0.010  0.013
    9  0.028  0.004  0.001  0.032
   10  0.008  0.003  0.011  0.022
   11  0.001  0.000  0.015  0.016
   12  0.008  0.003  0.011  0.022
   13  0.001  0.000  0.015  0.016
   14  0.001  0.000  0.015  0.016
   15  0.007  0.003  0.017  0.027
   16  0.008  0.003  0.011  0.022
   17  0.007  0.003  0.017  0.027
   18  0.007  0.003  0.017  0.027
   19  0.004  0.004  0.018  0.026
   20  0.000  0.000  0.016  0.016
   21  0.000  0.000  0.016  0.016
   22  0.012  0.003  0.010  0.025
   23  0.000  0.000  0.016  0.016
   24  0.012  0.003  0.010  0.025
   25  0.004  0.004  0.018  0.026
   26  0.004  0.004  0.018  0.026
   27  0.012  0.003  0.010  0.025
   28  0.038  0.003  0.000  0.041
   29  0.000  0.003  0.011  0.014
   30  0.000  0.003  0.011  0.014
   31  0.000  0.003  0.011  0.014
   32  0.000  0.003  0.011  0.014
   33  0.000  0.003  0.011  0.014
   34  0.000  0.003  0.011  0.014
   35  0.027  0.004  0.001  0.032
   36  0.000  0.000  0.000  0.000
   37  0.000  0.000  0.000  0.000
   38  0.000  0.000  0.000  0.000
tot    0.226  0.091  0.389  0.706
 
band    18 # energy   -4.47911133 # occ.  2.00000000
 
ion      s      p      d    tot
    1  0.014  0.001  0.000  0.016
    2  0.000  0.003  0.012  0.014
    3  0.000  0.003  0.012  0.014
    4  0.000  0.003  0.012  0.014
    5  0.044  0.004  0.000  0.048
    6  0.000  0.003  0.012  0.014
    7  0.000  0.003  0.012  0.014
    8  0.000  0.003  0.012  0.014
    9  0.006  0.001  0.000  0.007
   10  0.001  0.001  0.028  0.030
   11  0.004  0.004  0.021  0.030
   12  0.001  0.001  0.028  0.030
   13  0.004  0.004  0.021  0.030
   14  0.004  0.004  0.021  0.030
   15  0.003  0.001  0.008  0.012
   16  0.001  0.001  0.028  0.030
   17  0.003  0.001  0.008  0.012
   18  0.003  0.001  0.008  0.012
   19  0.010  0.001  0.022  0.032
   20  0.013  0.004  0.007  0.023
   21  0.013  0.004  0.007  0.023
   22  0.002  0.002  0.018  0.021
   23  0.013  0.004  0.007  0.023
   24  0.002  0.002  0.018  0.021
   25  0.010  0.001  0.022  0.032
   26  0.010  0.001  0.022  0.032
   27  0.002  0.002  0.018  0.021
   28  0.003  0.001  0.004  0.009
   29  0.001  0.002  0.011  0.014
   30  0.001  0.002  0.011  0.014
   31  0.001  0.002  0.011  0.014
   32  0.001  0.002  0.011  0.014
   33  0.001  0.002  0.011  0.014
   34  0.001  0.002  0.011  0.014
   35  0.005  0.001  0.001  0.007
   36  0.031  0.010  0.002  0.044
   37  0.001  0.002  0.000  0.002
   38  0.001  0.000  0.000  0.001
tot    0.208  0.090  0.450  0.748
 
band    19 # energy   -4.38568172 # occ.  2.00000000
 
ion      s      p      d    tot
    1  0.000  0.000  0.001  0.001
    2  0.000  0.000  0.000  0.000
    3  0.001  0.000  0.000  0.001
    4  0.000  0.000  0.000  0.000
    5  0.000  0.000  0.000  0.000
    6  0.001  0.000  0.000  0.001
    7  0.001  0.000  0.000  0.001
    8  0.001  0.000  0.000  0.001
    9  0.000  0.000  0.000  0.001
   10  0.000  0.000  0.000  0.000
   11  0.000  0.000  0.001  0.001
   12  0.000  0.000  0.001  0.001
   13  0.000  0.000  0.001  0.001
   14  0.000  0.000  0.001  0.001
   15  0.000  0.000  0.002  0.002
   16  0.000  0.000  0.001  0.001
   17  0.000  0.000  0.002  0.002
   18  0.000  0.000  0.000  0.001
   19  0.000  0.001  0.004  0.005
   20  0.000  0.001  0.012  0.014
   21  0.000  0.000  0.004  0.004
   22  0.001  0.000  0.002  0.003
   23  0.000  0.000  0.004  0.005
   24  0.002  0.000  0.001  0.004
   25  0.000  0.000  0.000  0.001
   26  0.000  0.001  0.004  0.005
   27  0.001  0.000  0.002  0.003
   28  0.000  0.001  0.008  0.009
   29  0.010  0.001  0.009  0.021
   30  0.000  0.001  0.004  0.005
   31  0.010  0.001  0.009  0.021
   32  0.009  0.001  0.009  0.020
   33  0.000  0.001  0.004  0.005
   34  0.009  0.001  0.009  0.020
   35  0.000  0.001  0.008  0.009
   36  0.000  0.013  0.128  0.141
   37  0.000  0.399  0.000  0.399
   38  0.000  0.006  0.000  0.006
tot    0.047  0.433  0.235  0.715
 
band    20 # energy   -4.38558375 # occ.  2.00000000
 
ion      s      p      d    tot
    1  0.000  0.000  0.001  0.001
    2  0.001  0.000  0.000  0.001
    3  0.000  0.000  0.000  0.001
    4  0.001  0.000  0.000  0.001
    5  0.000  0.000  0.000  0.000
    6  0.000  0.000  0.000  0.000
    7  0.000  0.000  0.000  0.001
    8  0.000  0.000  0.000  0.000
    9  0.000  0.000  0.000  0.001
   10  0.000  0.000  0.001  0.001
   11  0.000  0.000  0.001  0.001
   12  0.000  0.000  0.000  0.001
   13  0.000  0.000  0.001  0.001
   14  0.000  0.000  0.001  0.001
   15  0.000  0.000  0.001  0.001
   16  0.000  0.000  0.000  0.001
   17  0.000  0.000  0.001  0.001
   18  0.000  0.000  0.002  0.002
   19  0.000  0.000  0.002  0.002
   20  0.000  0.000  0.001  0.001
   21  0.000  0.001  0.010  0.011
   22  0.002  0.000  0.002  0.004
   23  0.000  0.001  0.010  0.011
   24  0.000  0.000  0.002  0.003
   25  0.000  0.001  0.006  0.007
   26  0.000  0.000  0.002  0.002
   27  0.002  0.000  0.002  0.004
   28  0.000  0.001  0.008  0.009
   29  0.003  0.001  0.006  0.009
   30  0.013  0.001  0.011  0.025
   31  0.003  0.001  0.006  0.009
   32  0.004  0.001  0.005  0.010
   33  0.013  0.001  0.011  0.025
   34  0.004  0.001  0.005  0.010
   35  0.000  0.001  0.008  0.009
   36  0.000  0.013  0.128  0.141
   37  0.000  0.399  0.000  0.399
   38  0.000  0.006  0.000  0.006
tot    0.047  0.433  0.235  0.715
 
band    21 # energy   -4.06044079 # occ.  2.00000000
 
ion      s      p      d    tot
    1  0.000  0.000  0.028  0.029
    2  0.014  0.001  0.008  0.023
    3  0.008  0.001  0.007  0.016
    4  0.014  0.001  0.008  0.023
    5  0.000  0.001  0.011  0.012
    6  0.001  0.001  0.008  0.009
    7  0.008  0.001  0.007  0.016
    8  0.001  0.001  0.008  0.009
    9  0.000  0.003  0.005  0.008
   10  0.000  0.000  0.057  0.057
   11  0.000  0.004  0.015  0.019
   12  0.000  0.000  0.020  0.020
   13  0.000  0.004  0.015  0.019
   14  0.000  0.000  0.004  0.004
   15  0.000  0.004  0.015  0.019
   16  0.000  0.000  0.019  0.019