 vasp.6.2.0 18Jan21 (build Jun 12 2021 23:27:24) complex                        
  
 executed on             LinuxIFC date 2022.05.26  20:09:38
 running on   28 total cores
 distrk:  each k-point on   28 cores,    1 groups
 distr:  one band on NCORE=   1 cores,   28 groups


--------------------------------------------------------------------------------------------------------


 INCAR:
   ISMEAR = -5
   SIGMA = 0.1
   ISPIN = 1
   EDIFF = 1.d-5
   EDIFFG = -0.01
   NSW = 0
   NELM = 150
   ENCUT = 500
   ISIF = 2
   IBRION = 2
   LREAL = Auto
   ALGO = Fast
   ICHARG = 11
   LORBIT = 10
   LCHARG = .F.
   LWAVE = .F.

 POTCAR:    PAW_PBE Cu 22Jun2005                  
 POTCAR:    PAW_PBE Os 17Jan2003                  
 POTCAR:    PAW_PBE O 08Apr2002                   
 -----------------------------------------------------------------------------
|                                                                             |
|           W    W    AA    RRRRR   N    N  II  N    N   GGGG   !!!           |
|           W    W   A  A   R    R  NN   N  II  NN   N  G    G  !!!           |
|           W    W  A    A  R    R  N N  N  II  N N  N  G       !!!           |
|           W WW W  AAAAAA  RRRRR   N  N N  II  N  N N  G  GGG   !            |
|           WW  WW  A    A  R   R   N   NN  II  N   NN  G    G                |
|           W    W  A    A  R    R  N    N  II  N    N   GGGG   !!!           |
|                                                                             |
|     For optimal performance we recommend to set                             |
|       NCORE = 2 up to number-of-cores-per-socket                            |
|     NCORE specifies how many cores store one orbital (NPAR=cpu/NCORE).      |
|     This setting can greatly improve the performance of VASP for DFT.       |
|     The default, NCORE=1 might be grossly inefficient on modern             |
|     multi-core architectures or massively parallel machines. Do your        |
|     own testing! More info at https://www.vasp.at/wiki/index.php/NCORE      |
|     Unfortunately you need to use the default for GW and RPA                |
|     calculations (for HF NCORE is supported but not extensively tested      |
|     yet).                                                                   |
|                                                                             |
 -----------------------------------------------------------------------------

 POTCAR:    PAW_PBE Cu 22Jun2005                  
   VRHFIN =Cu: d10 p1                                                                               
   LEXCH  = PE                                                                                      
   EATOM  =  1390.9808 eV,  102.2342 Ry                                                             
                                                                                                    
   TITEL  = PAW_PBE Cu 22Jun2005                                                                    
   LULTRA =        F    use ultrasoft PP ?                                                          
   IUNSCR =        1    unscreen: 0-lin 1-nonlin 2-no                                               
   RPACOR =    2.000    partial core radius                                                         
   POMASS =   63.546; ZVAL   =   11.000    mass and valenz                                          
   RCORE  =    2.300    outmost cutoff radius                                                       
   RWIGS  =    2.200; RWIGS  =    1.164    wigner-seitz radius (au A)                               
   ENMAX  =  295.446; ENMIN  =  221.585 eV                                                          
   ICORE  =        3    local potential                                                             
   LCOR   =        T    correct aug charges                                                         
   LPAW   =        T    paw PP                                                                      
   EAUG   =  586.980                                                                                
   DEXC   =    0.000                                                                                
   RMAX   =    2.344    core radius for proj-oper                                                   
   RAUG   =    1.300    factor for augmentation sphere                                              
   RDEP   =    2.302    radius for radial grids                                                     
   RDEPT  =    1.771    core radius for aug-charge                                                  
                                                                                                    
   Atomic configuration                                                                             
    9 entries                                                                                       
     n  l   j            E        occ.                                                              
     1  0  0.50     -8850.2468   2.0000                                                             
     2  0  0.50     -1062.3498   2.0000                                                             
     2  1  1.50      -916.8226   6.0000                                                             
     3  0  0.50      -114.6929   2.0000                                                             
     3  1  1.50       -72.1325   6.0000                                                             
     3  2  2.50        -5.0394  10.0000                                                             
     4  0  0.50        -4.6097   1.0000                                                             
     4  1  0.50        -4.0817   0.0000                                                             
     4  3  2.50        -1.3606   0.0000                                                             
   Description                                                                                      
     l       E           TYP  RCUT    TYP  RCUT                                                     
     2     -5.0393973     23  2.200                                                                 
     2     10.8846608     23  2.200                                                                 
     0     -4.6097109     23  2.200                                                                 
     0      8.2520465     23  2.200                                                                 
     1     -2.7211652     23  2.200                                                                 
     1     21.7055443     23  2.200                                                                 
     3      2.7211652     23  2.300                                                                 
  local pseudopotential read in
  partial core-charges read in
  partial kinetic energy density read in
  atomic valenz-charges read in
  non local Contribution for L=           2  read in
    real space projection operators read in
  non local Contribution for L=           2  read in
    real space projection operators read in
  non local Contribution for L=           0  read in
    real space projection operators read in
  non local Contribution for L=           0  read in
    real space projection operators read in
  non local Contribution for L=           1  read in
    real space projection operators read in
  non local Contribution for L=           1  read in
    real space projection operators read in
    PAW grid and wavefunctions read in
 
   number of l-projection  operators is LMAX  =           6
   number of lm-projection operators is LMMAX =          18
 
 POTCAR:    PAW_PBE Os 17Jan2003                  
   VRHFIN =Os: 6s5d                                                                                 
   LEXCH  = PE                                                                                      
   EATOM  =   417.5999 eV,   30.6927 Ry                                                             
                                                                                                    
   TITEL  = PAW_PBE Os 17Jan2003                                                                    
   LULTRA =        F    use ultrasoft PP ?                                                          
   IUNSCR =        1    unscreen: 0-lin 1-nonlin 2-no                                               
   RPACOR =    2.250    partial core radius                                                         
   POMASS =  190.200; ZVAL   =    8.000    mass and valenz                                          
   RCORE  =    2.700    outmost cutoff radius                                                       
   RWIGS  =    2.670; RWIGS  =    1.413    wigner-seitz radius (au A)                               
   ENMAX  =  228.022; ENMIN  =  171.017 eV                                                          
   RCLOC  =    2.004    cutoff for local pot                                                        
   LCOR   =        T    correct aug charges                                                         
   LPAW   =        T    paw PP                                                                      
   EAUG   =  365.080                                                                                
   DEXC   =    0.000                                                                                
   RMAX   =    2.766    core radius for proj-oper                                                   
   RAUG   =    1.300    factor for augmentation sphere                                              
   RDEP   =    2.738    radius for radial grids                                                     
   RDEPT  =    2.220    core radius for aug-charge                                                  
                                                                                                    
   Atomic configuration                                                                             
   16 entries                                                                                       
     n  l   j            E        occ.                                                              
     1  0  0.50    -73844.2437   2.0000                                                             
     2  0  0.50    -12856.6893   2.0000                                                             
     2  1  1.50    -11191.7995   6.0000                                                             
     3  0  0.50     -2990.1422   2.0000                                                             
     3  1  1.50     -2501.5221   6.0000                                                             
     3  2  2.50     -1956.5818  10.0000                                                             
     4  0  0.50      -629.1606   2.0000                                                             
     4  1  1.50      -468.9548   6.0000                                                             
     4  2  2.50      -270.2868  10.0000                                                             
     4  3  3.50       -49.5699  14.0000                                                             
     5  0  0.50       -89.1521   2.0000                                                             
     5  1  1.50       -48.6063   6.0000                                                             
     5  2  2.50        -4.7055   7.0000                                                             
     6  0  0.50        -5.4288   1.0000                                                             
     6  1  1.50        -2.7212   0.0000                                                             
     5  3  2.50        -6.8029   0.0000                                                             
   Description                                                                                      
     l       E           TYP  RCUT    TYP  RCUT                                                     
     2     -4.7055230     23  2.500                                                                 
     2     -6.0661056     23  2.500                                                                 
     0     -5.4288441     23  2.500                                                                 
     0      3.7338294     23  2.500                                                                 
     1     -2.7211652     23  2.700                                                                 
     1     27.2116520     23  2.700                                                                 
  local pseudopotential read in
  partial core-charges read in
  partial kinetic energy density read in
  atomic valenz-charges read in
  non local Contribution for L=           2  read in
    real space projection operators read in
  non local Contribution for L=           2  read in
    real space projection operators read in
  non local Contribution for L=           0  read in
    real space projection operators read in
  non local Contribution for L=           0  read in
    real space projection operators read in
  non local Contribution for L=           1  read in
    real space projection operators read in
  non local Contribution for L=           1  read in
    real space projection operators read in
    PAW grid and wavefunctions read in
 
   number of l-projection  operators is LMAX  =           6
   number of lm-projection operators is LMMAX =          18
 
 POTCAR:    PAW_PBE O 08Apr2002                   
   VRHFIN =O: s2p4                                                                                  
   LEXCH  = PE                                                                                      
   EATOM  =   432.3788 eV,   31.7789 Ry                                                             
                                                                                                    
   TITEL  = PAW_PBE O 08Apr2002                                                                     
   LULTRA =        F    use ultrasoft PP ?                                                          
   IUNSCR =        1    unscreen: 0-lin 1-nonlin 2-no                                               
   RPACOR =    1.200    partial core radius                                                         
   POMASS =   16.000; ZVAL   =    6.000    mass and valenz                                          
   RCORE  =    1.520    outmost cutoff radius                                                       
   RWIGS  =    1.550; RWIGS  =    0.820    wigner-seitz radius (au A)                               
   ENMAX  =  400.000; ENMIN  =  300.000 eV                                                          
   ICORE  =        2    local potential                                                             
   LCOR   =        T    correct aug charges                                                         
   LPAW   =        T    paw PP                                                                      
   EAUG   =  605.392                                                                                
   DEXC   =    0.000                                                                                
   RMAX   =    1.553    core radius for proj-oper                                                   
   RAUG   =    1.300    factor for augmentation sphere                                              
   RDEP   =    1.550    radius for radial grids                                                     
   RDEPT  =    1.329    core radius for aug-charge                                                  
                                                                                                    
   Atomic configuration                                                                             
    4 entries                                                                                       
     n  l   j            E        occ.                                                              
     1  0  0.50      -514.6923   2.0000                                                             
     2  0  0.50       -23.9615   2.0000                                                             
     2  1  0.50        -9.0305   4.0000                                                             
     3  2  1.50        -9.5241   0.0000                                                             
   Description                                                                                      
     l       E           TYP  RCUT    TYP  RCUT                                                     
     0    -23.9615318     23  1.200                                                                 
     0     -9.5240782     23  1.200                                                                 
     1     -9.0304911     23  1.520                                                                 
     1      8.1634956     23  1.520                                                                 
     2     -9.5240782      7  1.500                                                                 
  local pseudopotential read in
  partial core-charges read in
  partial kinetic energy density read in
  kinetic energy density of atom read in
  atomic valenz-charges read in
  non local Contribution for L=           0  read in
    real space projection operators read in
  non local Contribution for L=           0  read in
    real space projection operators read in
  non local Contribution for L=           1  read in
    real space projection operators read in
  non local Contribution for L=           1  read in
    real space projection operators read in
    PAW grid and wavefunctions read in
 
   number of l-projection  operators is LMAX  =           4
   number of lm-projection operators is LMMAX =           8
 
 Optimization of the real space projectors (new method)

 maximal supplied QI-value         = 16.25
 optimisation between [QCUT,QGAM] = [ 11.38, 22.75] = [ 36.24,144.96] Ry 
 Optimized for a Real-space Cutoff    1.52 Angstroem

   l    n(q)    QCUT    max X(q) W(low)/X(q) W(high)/X(q)  e(spline) 
   2      9    11.376     4.610    0.21E-03    0.10E-03    0.26E-06
   2      9    11.376     8.522    0.33E-03    0.16E-03    0.37E-06
   0     10    11.376    51.609    0.62E-04    0.20E-04    0.13E-06
   0     10    11.376    27.747    0.54E-04    0.20E-04    0.13E-06
   1     10    11.376    20.408    0.13E-04    0.99E-04    0.19E-06
   1     10    11.376    13.425    0.12E-04    0.87E-04    0.17E-06
 Optimization of the real space projectors (new method)

 maximal supplied QI-value         = 13.98
 optimisation between [QCUT,QGAM] = [ 11.33, 22.79] = [ 35.93,145.49] Ry 
 Optimized for a Real-space Cutoff    1.56 Angstroem

   l    n(q)    QCUT    max X(q) W(low)/X(q) W(high)/X(q)  e(spline) 
   2     10    11.327   152.873    0.32E-03    0.72E-03    0.11E-05
   2     10    11.327   151.010    0.32E-03    0.72E-03    0.11E-05
   0     11    11.327    72.114    0.43E-04    0.61E-04    0.13E-06
   0     11    11.327    44.596    0.40E-04    0.57E-04    0.12E-06
   1     10    11.327    13.742    0.16E-03    0.10E-03    0.19E-06
   1     10    11.327     8.461    0.12E-03    0.78E-04    0.15E-06
 Optimization of the real space projectors (new method)

 maximal supplied QI-value         = 24.76
 optimisation between [QCUT,QGAM] = [ 11.39, 22.77] = [ 36.31,145.25] Ry 
 Optimized for a Real-space Cutoff    1.00 Angstroem

   l    n(q)    QCUT    max X(q) W(low)/X(q) W(high)/X(q)  e(spline) 
   0      7    11.387    20.381    0.39E-03    0.13E-02    0.15E-06
   0      7    11.387    15.268    0.42E-03    0.14E-02    0.17E-06
   1      6    11.387     5.964    0.41E-03    0.11E-02    0.17E-06
   1      6    11.387     5.382    0.39E-03    0.87E-03    0.15E-06
  PAW_PBE Cu 22Jun2005                  :
 energy of atom  1       EATOM=-1390.9808
 kinetic energy error for atom=    0.0043 (will be added to EATOM!!)
  PAW_PBE Os 17Jan2003                  :
 energy of atom  2       EATOM= -417.5999
 kinetic energy error for atom=    0.0029 (will be added to EATOM!!)
  PAW_PBE O 08Apr2002                   :
 energy of atom  3       EATOM= -432.3788
 kinetic energy error for atom=    0.0224 (will be added to EATOM!!)
 
 
 POSCAR: Cu-Os-O
  positions in direct lattice
  velocities in cartesian coordinates
 exchange correlation table for  LEXCH =        8
   RHO(1)=    0.500       N(1)  =     2000
   RHO(2)=  100.500       N(2)  =     4000

 VTST: version 3.2, (02/03/18)

 CHAIN: initializing optimizer
 
 OPT: Using VASP Conjugate-Gradient optimizer
 CHAIN: Read ICHAIN            0
 
 POSCAR: Cu-Os-O
  positions in direct lattice
  velocities in cartesian coordinates
 


--------------------------------------------------------------------------------------------------------


 ion  position               nearest neighbor table
   1  0.000  0.000  0.252-   7 2.57   3 2.57   4 2.57   2 2.57   6 2.57   8 2.57  12 2.57  10 2.57
                            16 2.57
   2  0.333  0.000  0.252-   8 2.57   9 2.57   5 2.57   1 2.57   3 2.57  11 2.57   4 2.57  10 2.57
                            17 2.57
   3  0.667  0.000  0.252-   1 2.57   7 2.57   6 2.57   9 2.57   2 2.57  12 2.57   5 2.57  18 2.57
                            11 2.57
   4  0.000  0.333  0.252-   5 2.57   6 2.57   1 2.57   7 2.57   2 2.57  13 2.57   9 2.57  10 2.57
                            15 2.57
   5  0.333  0.333  0.252-   4 2.57   2 2.57   7 2.57  13 2.57   8 2.57   6 2.57   3 2.57  11 2.57
                            14 2.57
   6  0.667  0.333  0.252-   4 2.57   9 2.57  15 2.57   3 2.57   1 2.57   8 2.57  14 2.57   5 2.57
                            12 2.57
   7  0.000  0.667  0.252-   1 2.57   3 2.57  16 2.57  18 2.57   4 2.57   5 2.57   8 2.57   9 2.57
                            13 2.57
   8  0.333  0.667  0.252-   9 2.57   2 2.57  17 2.57   6 2.57   1 2.57   7 2.57   5 2.57  14 2.57
                            16 2.57
   9  0.667  0.667  0.252-   8 2.57   6 2.57   2 2.57  17 2.57   3 2.57   7 2.57   4 2.57  15 2.57
                            18 2.57
  10  0.111  0.111  0.351-  20 2.53  11 2.57  12 2.57  13 2.57   1 2.57   2 2.57   4 2.57  15 2.57
                            16 2.57  17 2.57  26 2.57  19 2.57
  11  0.444  0.111  0.351-  20 2.54  21 2.54  10 2.57  13 2.57   2 2.57  17 2.57  14 2.57  12 2.57
                             5 2.57   3 2.57  18 2.57  27 2.57
  12  0.778  0.111  0.351-  21 2.53  15 2.57  10 2.57  14 2.57  18 2.57   3 2.57   1 2.57  16 2.57
                            11 2.57   6 2.57  19 2.57  25 2.57
  13  0.111  0.444  0.351-  23 2.54  20 2.54  16 2.57  18 2.57  10 2.57  11 2.57  14 2.57   5 2.57
                             4 2.57   7 2.57  15 2.57  22 2.57
  14  0.444  0.444  0.351-  21 2.54  23 2.54  15 2.57  17 2.57  12 2.57  16 2.57  13 2.57  11 2.57
                             6 2.57   8 2.57   5 2.57  24 2.57
  15  0.778  0.444  0.351-  19 2.56  14 2.57  17 2.57  12 2.57   6 2.57  18 2.57  10 2.57   9 2.57
                            13 2.57   4 2.57  24 2.57  22 2.57
  16  0.111  0.778  0.351-  23 2.53  18 2.57  13 2.57   7 2.57  14 2.57  17 2.57  12 2.57  10 2.57
                             8 2.57   1 2.57  25 2.57  26 2.57
  17  0.444  0.778  0.351-  26 2.56  14 2.57  15 2.57   8 2.57   9 2.57  11 2.57  16 2.57  18 2.57
                            10 2.57   2 2.57  27 2.57  24 2.57
  18  0.778  0.778  0.351-  25 2.56  16 2.57  13 2.57   7 2.57  15 2.57  12 2.57  17 2.57   9 2.57
                             3 2.57  11 2.57  22 2.57  27 2.57
  19  0.888  0.223  0.449-  21 2.55  20 2.55  28 2.55  22 2.56  24 2.56  15 2.56  12 2.57  10 2.57
                            32 2.57  31 2.57  25 2.57  26 2.57
  20  0.221  0.221  0.448-  10 2.53  36 2.53  11 2.54  13 2.54  26 2.55  19 2.55  27 2.57  22 2.57
                            23 2.59  21 2.59  29 2.60  31 2.60
  21  0.558  0.221  0.448-  12 2.53  36 2.53  14 2.54  11 2.54  19 2.55  25 2.55  24 2.57  27 2.57
                            20 2.59  23 2.59  32 2.60  30 2.60
  22  0.888  0.556  0.449-  35 2.55  24 2.55  27 2.55  19 2.56  25 2.56  18 2.57  15 2.57  23 2.57
                            20 2.57  13 2.57  31 2.58  33 2.58
  23  0.221  0.558  0.448-  16 2.53  36 2.53  13 2.54  14 2.54  25 2.55  26 2.55  22 2.57  24 2.57
                            20 2.59  21 2.59  33 2.60  34 2.60
  24  0.556  0.556  0.449-  35 2.55  22 2.55  27 2.55  19 2.56  26 2.56  15 2.57  17 2.57  21 2.57
                            23 2.57  14 2.57  32 2.58  34 2.58
  25  0.888  0.888  0.449-  21 2.55  23 2.55  28 2.55  22 2.56  27 2.56  18 2.56  16 2.57  12 2.57
                            33 2.57  30 2.57  19 2.57  26 2.57
  26  0.223  0.888  0.449-  20 2.55  23 2.55  28 2.55  27 2.56  24 2.56  17 2.56  10 2.57  16 2.57
                            29 2.57  34 2.57  25 2.57  19 2.57
  27  0.556  0.888  0.449-  35 2.55  24 2.55  22 2.55  26 2.56  25 2.56  17 2.57  18 2.57  20 2.57
                            21 2.57  11 2.57  29 2.58  30 2.58
  28  0.000  0.000  0.547-  25 2.55  19 2.55  26 2.55  33 2.56  30 2.56  31 2.56  29 2.56  32 2.56
                            34 2.56
  29  0.333  0.000  0.548-  31 2.56  28 2.56  34 2.57  36 2.57  35 2.57  30 2.57  26 2.57  27 2.58
                            20 2.60
  30  0.667  0.000  0.548-  32 2.56  28 2.56  33 2.57  36 2.57  35 2.57  29 2.57  25 2.57  27 2.58
                            21 2.60
  31  0.000  0.333  0.548-  29 2.56  28 2.56  32 2.57  36 2.57  35 2.57  33 2.57  19 2.57  22 2.58
                            20 2.60
  32  0.667  0.333  0.548-  30 2.56  28 2.56  31 2.57  36 2.57  35 2.57  34 2.57  19 2.57  24 2.58
                            21 2.60
  33  0.000  0.667  0.548-  34 2.56  28 2.56  30 2.57  36 2.57  35 2.57  31 2.57  25 2.57  22 2.58
                            23 2.60
  34  0.333  0.667  0.548-  33 2.56  28 2.56  29 2.57  36 2.57  35 2.57  32 2.57  26 2.57  24 2.58
                            23 2.60
  35  0.667  0.667  0.547-  24 2.55  27 2.55  22 2.55  34 2.57  32 2.57  29 2.57  30 2.57  33 2.57
                            31 2.57
  36  0.333  0.333  0.544-  37 1.76  23 2.53  20 2.53  21 2.53  31 2.57  29 2.57  33 2.57  34 2.57
                            32 2.57  30 2.57
  37  0.333  0.333  0.627-  36 1.76
 
  LATTYP: Found a hexagonal cell.
 ALAT       =     7.6967864036
 C/A-ratio  =     2.7653617908
  
  Lattice vectors:
  
 A1 = (  -3.8483927580,  -6.6656128093,   0.0000000000)
 A2 = (   7.6967864037,   0.0000000000,   0.0000000000)
 A3 = (   0.0000000000,   0.0000000000,  21.2843990326)


Analysis of symmetry for initial positions (statically):
=====================================================================
 Subroutine PRICEL returns:
 Original cell was already a primitive cell.
 

 Routine SETGRP: Setting up the symmetry group for a 
 hexagonal supercell.


 Subroutine GETGRP returns: Found  6 space group operations
 (whereof  6 operations were pure point group operations)
 out of a pool of 24 trial point group operations.


The static configuration has the point symmetry C_3v.


Analysis of symmetry for dynamics (positions and initial velocities):
=====================================================================
 Subroutine PRICEL returns:
 Original cell was already a primitive cell.
 

 Routine SETGRP: Setting up the symmetry group for a 
 hexagonal supercell.


 Subroutine GETGRP returns: Found  6 space group operations
 (whereof  6 operations were pure point group operations)
 out of a pool of 24 trial point group operations.


The dynamic configuration has the point symmetry C_3v.


Analysis of constrained symmetry for selective dynamics:
=====================================================================
 Subroutine PRICEL returns:
 Original cell was already a primitive cell.
 

 Routine SETGRP: Setting up the symmetry group for a 
 hexagonal supercell.


 Subroutine GETGRP returns: Found  6 space group operations
 (whereof  6 operations were pure point group operations)
 out of a pool of 24 trial point group operations.


The constrained configuration has the point symmetry C_3v.


 Subroutine INISYM returns: Found  6 space group operations
 (whereof  6 operations are pure point group operations),
 and found     1 'primitive' translations


----------------------------------------------------------------------------------------

                                     Primitive cell                                     

  volume of cell :    1091.9705

  direct lattice vectors                    reciprocal lattice vectors
     7.696786404  0.000000000  0.000000000     0.129924354 -0.075011849  0.000000000
     3.848392758  6.665612809  0.000000000     0.000000000  0.150023716  0.000000000
     0.000000000  0.000000000 21.284399033     0.000000000  0.000000000  0.046982769

  length of vectors
     7.696786404  7.696786404 21.284399033     0.150023716  0.150023716  0.046982769

  position of ions in fractional coordinates (direct lattice)
     0.000000000  0.000000000  0.252370745
     0.333333343  0.000000000  0.252370745
     0.666666687  0.000000000  0.252370745
     1.000000000  0.333333343  0.252370745
     0.333333313  0.333333343  0.252370745
     0.666666687  0.333333343  0.252370745
     1.000000000  0.666666687  0.252370745
     0.333333373  0.666666687  0.252370745
     0.666666627  0.666666687  0.252370745
     0.111111119  0.111111112  0.350790262
     0.444444418  0.111111112  0.350790262
     0.777777791  0.111111112  0.350790262
     0.111111119  0.444444448  0.350790262
     0.444444478  0.444444448  0.350790262
     0.777777731  0.444444448  0.350790262
     0.111111112  0.777777731  0.350790262
     0.444444478  0.777777731  0.350790262
     0.777777851  0.777777731  0.350790262
     0.888489608  0.223020800  0.449343033
     0.221224753  0.221224738  0.447740870
     0.557550555  0.221224738  0.447740870
     0.887835629  0.556082155  0.449402378
     0.221224723  0.557550495  0.447740870
     0.556082215  0.556082155  0.449402378
     0.888489608  0.888489608  0.449343033
     0.223020815  0.888489608  0.449343033
     0.556082155  0.887835629  0.449402378
     0.000000000  0.000000000  0.546965684
     0.332662001  0.000362845  0.548408402
     0.666975184  0.000362845  0.548408402
     0.000362845  0.332662001  0.548408402
     0.666975184  0.332662001  0.548408402
     0.000362845  0.666975184  0.548408402
     0.332662031  0.666975184  0.548408402
     0.666666627  0.666666687  0.546895864
     0.333333313  0.333333343  0.543862794
     0.333333313  0.333333343  0.626553260

  ion indices of the primitive-cell ions
   primitive index   ion index
                 1           1
                 2           2
                 3           3
                 4           4
                 5           5
                 6           6
                 7           7
                 8           8
                 9           9
                10          10
                11          11
                12          12
                13          13
                14          14
                15          15
                16          16
                17          17
                18          18
                19          19
                20          20
                21          21
                22          22
                23          23
                24          24
                25          25
                26          26
                27          27
                28          28
                29          29
                30          30
                31          31
                32          32
                33          33
                34          34
                35          35
                36          36
                37          37

----------------------------------------------------------------------------------------

 
 
 KPOINTS: Automatic mesh                          

Automatic generation of k-mesh.
 Grid dimensions read from file:
 generate k-points for:    8    8    1

 Generating k-lattice:

  Cartesian coordinates                     Fractional coordinates (reciprocal lattice)
     0.016240544 -0.009376481  0.000000000     0.125000000 -0.000000000  0.000000000
     0.000000000  0.018752964  0.000000000     0.000000000  0.125000000  0.000000000
     0.000000000  0.000000000  0.046982769     0.000000000  0.000000000  1.000000000

  Length of vectors
     0.018752964  0.018752964  0.046982769

  Shift w.r.t. Gamma in fractional coordinates (k-lattice)
     0.000000000  0.000000000  0.000000000

 TETIRR: Found     36 inequivalent tetrahedra from      384
 
 Subroutine IBZKPT returns following result:
 ===========================================
 
 Found     10 irreducible k-points:
 
 Following reciprocal coordinates:
            Coordinates               Weight
  0.000000  0.000000  0.000000      1.000000
  0.125000 -0.000000  0.000000      6.000000
  0.250000 -0.000000  0.000000      6.000000
  0.375000 -0.000000  0.000000      6.000000
  0.500000 -0.000000  0.000000      3.000000
  0.250000  0.125000  0.000000      6.000000
  0.375000  0.125000  0.000000     12.000000
  0.500000  0.125000  0.000000     12.000000
  0.500000  0.250000  0.000000      6.000000
 -0.375000  0.250000  0.000000      6.000000
 
 Following cartesian coordinates:
            Coordinates               Weight
  0.000000  0.000000  0.000000      1.000000
  0.016241 -0.009376  0.000000      6.000000
  0.032481 -0.018753  0.000000      6.000000
  0.048722 -0.028129  0.000000      6.000000
  0.064962 -0.037506  0.000000      3.000000
  0.032481  0.000000  0.000000      6.000000
  0.048722 -0.009376  0.000000     12.000000
  0.064962 -0.018753  0.000000     12.000000
  0.064962  0.000000  0.000000      6.000000
 -0.048722  0.065635  0.000000      6.000000
 


--------------------------------------------------------------------------------------------------------




 Dimension of arrays:
   k-points           NKPTS =     10   k-points in BZ     NKDIM =     10   number of bands    NBANDS=    252
   number of dos      NEDOS =    301   number of ions     NIONS =     37
   non local maximal  LDIM  =      6   non local SUM 2l+1 LMDIM =     18
   total plane-waves  NPLWV = 211680
   max r-space proj   IRMAX =   3157   max aug-charges    IRDMAX=  11646
   dimension x,y,z NGX =    42 NGY =   42 NGZ =  120
   dimension x,y,z NGXF=    84 NGYF=   84 NGZF=  240
   support grid    NGXF=    84 NGYF=   84 NGZF=  240
   ions per type =              35   1   1
   NGX,Y,Z   is equivalent  to a cutoff of   9.07,  9.07,  9.37 a.u.
   NGXF,Y,Z  is equivalent  to a cutoff of  18.14, 18.14, 18.75 a.u.

 SYSTEM =  unknown system                          
 POSCAR =  Cu-Os-O                                 

 Startparameter for this run:
   NWRITE =      2    write-flag & timer
   PREC   = normal    normal or accurate (medium, high low for compatibility)
   ISTART =      0    job   : 0-new  1-cont  2-samecut
   ICHARG =     11    charge: 1-file 2-atom 10-const
   ISPIN  =      1    spin polarized calculation?
   LNONCOLLINEAR =      F non collinear calculations
   LSORBIT =      F    spin-orbit coupling
   INIWAV =      1    electr: 0-lowe 1-rand  2-diag
   LASPH  =      F    aspherical Exc in radial PAW
   METAGGA=      F    non-selfconsistent MetaGGA calc.

 Electronic Relaxation 1
   ENCUT  =  500.0 eV  36.75 Ry    6.06 a.u.  14.03 14.03 38.81*2*pi/ulx,y,z
   ENINI  =  500.0     initial cutoff
   ENAUG  =  605.4 eV  augmentation charge cutoff
   NELM   =    150;   NELMIN=  2; NELMDL= -5     # of ELM steps 
   EDIFF  = 0.1E-04   stopping-criterion for ELM
   LREAL  =      T    real-space projection
   NLSPLINE    = F    spline interpolate recip. space projectors
   LCOMPAT=      F    compatible to vasp.4.4
   GGA_COMPAT  = T    GGA compatible to vasp.4.4-vasp.4.6
   LMAXPAW     = -100 max onsite density
   LMAXMIX     =    2 max onsite mixed and CHGCAR
   VOSKOWN=      0    Vosko Wilk Nusair interpolation
   ROPT   =   -0.00050  -0.00050  -0.00050
 Ionic relaxation
   EDIFFG = -.1E-01   stopping-criterion for IOM
   NSW    =      0    number of steps for IOM
   NBLOCK =      1;   KBLOCK =      1    inner block; outer block 
   IBRION =     -1    ionic relax: 0-MD 1-quasi-New 2-CG
   NFREE  =      1    steps in history (QN), initial steepest desc. (CG)
   ISIF   =      2    stress and relaxation
   IWAVPR =     10    prediction:  0-non 1-charg 2-wave 3-comb
   ISYM   =      2    0-nonsym 1-usesym 2-fastsym
   LCORR  =      T    Harris-Foulkes like correction to forces

   POTIM  = 0.5000    time-step for ionic-motion
   TEIN   =    0.0    initial temperature
   TEBEG  =    0.0;   TEEND  =   0.0 temperature during run
   SMASS  =  -3.00    Nose mass-parameter (am)
   estimated Nose-frequenzy (Omega)   =  0.10E-29 period in steps = 0.13E+47 mass=  -0.135E-26a.u.
   SCALEE = 1.0000    scale energy and forces
   NPACO  =    256;   APACO  = 16.0  distance and # of slots for P.C.
   PSTRESS=    0.0 pullay stress

  Mass of Ions in am
   POMASS =  63.55190.20 16.00
  Ionic Valenz
   ZVAL   =  11.00  8.00  6.00
  Atomic Wigner-Seitz radii
   RWIGS  =  -1.00 -1.00 -1.00
  virtual crystal weights 
   VCA    =   1.00  1.00  1.00
   NELECT =     399.0000    total number of electrons
   NUPDOWN=      -1.0000    fix difference up-down

 DOS related values:
   EMIN   =  10.00;   EMAX   =-10.00  energy-range for DOS
   EFERMI =   0.00
   ISMEAR =    -5;   SIGMA  =   0.10  broadening in eV -4-tet -1-fermi 0-gaus

 Electronic relaxation 2 (details)
   IALGO  =     68    algorithm
   LDIAG  =      T    sub-space diagonalisation (order eigenvalues)
   LSUBROT=      F    optimize rotation matrix (better conditioning)
   TURBO    =      0    0=normal 1=particle mesh
   IRESTART =      0    0=no restart 2=restart with 2 vectors
   NREBOOT  =      0    no. of reboots
   NMIN     =      0    reboot dimension
   EREF     =   0.00    reference energy to select bands
   IMIX   =      4    mixing-type and parameters
     AMIX     =   0.40;   BMIX     =  1.00
     AMIX_MAG =   1.60;   BMIX_MAG =  1.00
     AMIN     =   0.10
     WC   =   100.;   INIMIX=   1;  MIXPRE=   1;  MAXMIX= -45

 Intra band minimization:
   WEIMIN = 0.0000     energy-eigenvalue tresh-hold
   EBREAK =  0.99E-08  absolut break condition
   DEPER  =   0.30     relativ break condition  

   TIME   =   0.40     timestep for ELM

  volume/ion in A,a.u.               =      29.51       199.16
  Fermi-wavevector in a.u.,A,eV,Ry     =   1.170385  2.211707 18.637282  1.369802
  Thomas-Fermi vector in A             =   2.306844
 
 Write flags
   LWAVE        =      F    write WAVECAR
   LDOWNSAMPLE  =      F    k-point downsampling of WAVECAR
   LCHARG       =      F    write CHGCAR
   LVTOT        =      F    write LOCPOT, total local potential
   LVHAR        =      F    write LOCPOT, Hartree potential only
   LELF         =      F    write electronic localiz. function (ELF)
   LORBIT       =     10    0 simple, 1 ext, 2 COOP (PROOUT), +10 PAW based schemes


 Dipole corrections
   LMONO  =      F    monopole corrections only (constant potential shift)
   LDIPOL =      F    correct potential (dipole corrections)
   IDIPOL =      0    1-x, 2-y, 3-z, 4-all directions 
   EPSILON=  1.0000000 bulk dielectric constant

 Exchange correlation treatment:
   GGA     =    --    GGA type
   LEXCH   =     8    internal setting for exchange type
   VOSKOWN=      0    Vosko Wilk Nusair interpolation
   LHFCALC =     F    Hartree Fock is set to
   LHFONE  =     F    Hartree Fock one center treatment
   AEXX    =    0.0000 exact exchange contribution

 Linear response parameters
   LEPSILON=     F    determine dielectric tensor
   LRPA    =     F    only Hartree local field effects (RPA)
   LNABLA  =     F    use nabla operator in PAW spheres
   LVEL    =     F    velocity operator in full k-point grid
   LINTERFAST=   F  fast interpolation
   KINTER  =     0    interpolate to denser k-point grid
   CSHIFT  =0.1000    complex shift for real part using Kramers Kronig
   OMEGAMAX=  -1.0    maximum frequency
   DEG_THRESHOLD= 0.2000000E-02 threshold for treating states as degnerate
   RTIME   =   -0.100 relaxation time in fs
  (WPLASMAI=    0.000 imaginary part of plasma frequency in eV, 0.658/RTIME)
   DFIELD  = 0.0000000 0.0000000 0.0000000 field for delta impulse in time
 
 Orbital magnetization related:
   ORBITALMAG=     F  switch on orbital magnetization
   LCHIMAG   =     F  perturbation theory with respect to B field
   DQ        =  0.001000  dq finite difference perturbation B field
   LLRAUG    =     F  two centre corrections for induced B field



--------------------------------------------------------------------------------------------------------


 Static calculation
 charge density and potential remain constant during run
 non-spin polarized calculation
 RMM-DIIS sequential band-by-band and
  variant of blocked Davidson during initial phase
 perform sub-space diagonalisation
    before iterative eigenvector-optimisation
 no mixing
 using additional bands           52
 real space projection scheme for non local part
 use partial core corrections
 calculate Harris-corrections to forces 
   (improved forces if not selfconsistent)
 use gradient corrections 
 WARNING: stress and forces are not correct
  (second derivative of E(xc) not defined)
 use of overlap-Matrix (Vanderbilt PP)
 Fermi weights with tetrahedron method with Bloechl corrections


--------------------------------------------------------------------------------------------------------


  energy-cutoff  :      500.00
  volume of cell :     1091.97
      direct lattice vectors                 reciprocal lattice vectors
     7.696786404  0.000000000  0.000000000     0.129924354 -0.075011849  0.000000000
     3.848392758  6.665612809  0.000000000     0.000000000  0.150023716  0.000000000
     0.000000000  0.000000000 21.284399033     0.000000000  0.000000000  0.046982769

  length of vectors
     7.696786404  7.696786404 21.284399033     0.150023716  0.150023716  0.046982769


 
 k-points in units of 2pi/SCALE and weight: Automatic mesh                          
   0.00000000  0.00000000  0.00000000       0.016
   0.01624054 -0.00937648  0.00000000       0.094
   0.03248109 -0.01875296  0.00000000       0.094
   0.04872163 -0.02812944  0.00000000       0.094
   0.06496218 -0.03750592  0.00000000       0.047
   0.03248109  0.00000000  0.00000000       0.094
   0.04872163 -0.00937648  0.00000000       0.188
   0.06496218 -0.01875296  0.00000000       0.188
   0.06496218  0.00000000  0.00000000       0.094
  -0.04872163  0.06563537  0.00000000       0.094
 
 k-points in reciprocal lattice and weights: Automatic mesh                          
   0.00000000  0.00000000  0.00000000       0.016
   0.12500000 -0.00000000  0.00000000       0.094
   0.25000000 -0.00000000  0.00000000       0.094
   0.37500000 -0.00000000  0.00000000       0.094
   0.50000000 -0.00000000  0.00000000       0.047
   0.25000000  0.12500000  0.00000000       0.094
   0.37500000  0.12500000  0.00000000       0.188
   0.50000000  0.12500000  0.00000000       0.188
   0.50000000  0.25000000  0.00000000       0.094
  -0.37500000  0.25000000  0.00000000       0.094
 
 position of ions in fractional coordinates (direct lattice) 
   0.00000000  0.00000000  0.25237075
   0.33333334  0.00000000  0.25237075
   0.66666669  0.00000000  0.25237075
   0.00000000  0.33333334  0.25237075
   0.33333331  0.33333334  0.25237075
   0.66666669  0.33333334  0.25237075
   0.00000000  0.66666669  0.25237075
   0.33333337  0.66666669  0.25237075
   0.66666663  0.66666669  0.25237075
   0.11111112  0.11111111  0.35079026
   0.44444442  0.11111111  0.35079026
   0.77777779  0.11111111  0.35079026
   0.11111112  0.44444445  0.35079026
   0.44444448  0.44444445  0.35079026
   0.77777773  0.44444445  0.35079026
   0.11111111  0.77777773  0.35079026
   0.44444448  0.77777773  0.35079026
   0.77777785  0.77777773  0.35079026
   0.88848961  0.22302080  0.44934303
   0.22122475  0.22122474  0.44774087
   0.55755055  0.22122474  0.44774087
   0.88783563  0.55608216  0.44940238
   0.22122472  0.55755049  0.44774087
   0.55608222  0.55608216  0.44940238
   0.88848961  0.88848961  0.44934303
   0.22302082  0.88848961  0.44934303
   0.55608216  0.88783563  0.44940238
   0.00000000  0.00000000  0.54696568
   0.33266200  0.00036284  0.54840840
   0.66697518  0.00036284  0.54840840
   0.00036284  0.33266200  0.54840840
   0.66697518  0.33266200  0.54840840
   0.00036284  0.66697518  0.54840840
   0.33266203  0.66697518  0.54840840
   0.66666663  0.66666669  0.54689586
   0.33333331  0.33333334  0.54386279
   0.33333331  0.33333334  0.62655326
 
 position of ions in cartesian coordinates  (Angst):
   0.00000000  0.00000000  5.37155964
   2.56559554  0.00000000  5.37155964
   5.13119109  0.00000000  5.37155964
   1.28279762  2.22187100  5.37155964
   3.84839293  2.22187100  5.37155964
   6.41398872  2.22187100  5.37155964
   2.56559525  4.44374201  5.37155964
   5.13119102  4.44374201  5.37155964
   7.69678588  4.44374201  5.37155964
   1.28279775  0.74062365  7.46635991
   3.84839295  0.74062365  7.46635991
   6.41398873  0.74062365  7.46635991
   2.56559535  2.96249461  7.46635991
   5.13119101  2.96249461  7.46635991
   7.69678586  2.96249461  7.46635991
   3.84839268  5.18436521  7.46635991
   6.41398840  5.18436521  7.46635991
   8.97958418  5.18436521  7.46635991
   7.69678637  1.48657030  9.56399641
   2.55407935  1.47459845  9.52989534
   5.14270721  1.47459845  9.52989534
   8.97350374  3.70662834  9.56525955
   3.84839272  3.71641572  9.52989534
   6.42006857  3.70662834  9.56525955
  10.25777171  5.92232771  9.56399641
   5.13580055  5.92232771  9.56399641
   7.69678578  5.91796854  9.56525955
   0.00000000  0.00000000 11.64183588
   2.56182473  0.00241858 11.67254326
   5.13496190  0.00241858 11.67254326
   1.28300677  2.21739609 11.67254326
   6.41377957  2.21739609 11.67254326
   2.56957521  4.44579833 11.67254326
   5.12721107  4.44579833 11.67254326
   7.69678588  4.44374201 11.64034980
   3.84839293  2.22187100 11.57579272
   3.84839293  2.22187100 13.33580960
 


--------------------------------------------------------------------------------------------------------


 k-point   1 :   0.0000 0.0000 0.0000  plane waves:   27671
 k-point   2 :   0.1250-0.0000 0.0000  plane waves:   27649
 k-point   3 :   0.2500-0.0000 0.0000  plane waves:   27714
 k-point   4 :   0.3750-0.0000 0.0000  plane waves:   27740
 k-point   5 :   0.5000-0.0000 0.0000  plane waves:   27782
 k-point   6 :   0.2500 0.1250 0.0000  plane waves:   27698
 k-point   7 :   0.3750 0.1250 0.0000  plane waves:   27702
 k-point   8 :   0.5000 0.1250 0.0000  plane waves:   27747
 k-point   9 :   0.5000 0.2500 0.0000  plane waves:   27734
 k-point  10 :  -0.3750 0.2500 0.0000  plane waves:   27782

 maximum and minimum number of plane-waves per node :     27782    27649

 maximum number of plane-waves:     27782
 maximum index in each direction: 
   IXMAX=   14   IYMAX=   14   IZMAX=   38
   IXMIN=  -14   IYMIN=  -14   IZMIN=  -38


 serial   3D FFT for wavefunctions
 parallel 3D FFT for charge:
    minimum data exchange during FFTs selected (reduces bandwidth)


 total amount of memory used by VASP MPI-rank0   104735. kBytes
=======================================================================

   base      :      30000. kBytes
   nonlr-proj:      17849. kBytes
   fftplans  :       2916. kBytes
   grid      :      12390. kBytes
   one-center:        575. kBytes
   wavefun   :      41005. kBytes
 
     INWAV:  cpu time    0.0000: real time    0.0000
 initial charge density was supplied:
 number of electron     398.9999923 magnetization 
 keeping initial charge density in first step


--------------------------------------------------------------------------------------------------------


 Maximum index for non-local projection operator         3029
 Maximum index for augmentation-charges          547 (set IRDMAX)


--------------------------------------------------------------------------------------------------------


 First call to EWALD:  gamma=   0.172
 Maximum number of real-space cells 4x 4x 2
 Maximum number of reciprocal cells 2x 2x 5

    FEWALD:  cpu time    0.0015: real time    0.0016


--------------------------------------- Iteration      1(   1)  ---------------------------------------


    POTLOK:  cpu time    0.0261: real time    0.0265
    SETDIJ:  cpu time    0.0043: real time    0.0044
     EDDAV:  cpu time    5.7222: real time    5.7238
 BZINTS: Fermi energy:   14.112904;  399.000000 electrons
         Band energy: 0.262395E+04;  BLOECHL correction:   -0.038357
       DOS:  cpu time    0.0102: real time    0.0102
    --------------------------------------------
      LOOP:  cpu time    5.7629: real time    5.7650

 eigenvalue-minimisations  :  5040
 total energy-change (2. order) : 0.3631098E+04  (-0.1717685E+05)
 number of electron     398.9999923 magnetization 
 augmentation part      398.9999923 magnetization 

 Free energy of the ion-electron system (eV)
  ---------------------------------------------------
  alpha Z        PSCENC =       908.15722222
  Ewald energy   TEWEN  =    146692.54587468
  -Hartree energ DENC   =   -193959.76207327
  -exchange      EXHF   =         0.00000000
  -V(xc)+E(xc)   XCENC  =      1554.36616486
  PAW double counting   =     46879.81444766   -50602.10592044
  entropy T*S    EENTRO =         0.00000000
  eigenvalues    EBANDS =      2623.94942734
  atomic energy  EATOM  =     49534.13254211
  Solvation  Ediel_sol  =         0.00000000
  ---------------------------------------------------
  free energy    TOTEN  =      3631.09768517 eV

  energy without entropy =     3631.09768517  energy(sigma->0) =     3631.09768517


--------------------------------------------------------------------------------------------------------




--------------------------------------- Iteration      1(   2)  ---------------------------------------


     EDDAV:  cpu time    5.6876: real time    5.6907
 BZINTS: Fermi energy:    3.350325;  399.000000 electrons
         Band energy:-0.628024E+03;  BLOECHL correction:   -0.016988
       DOS:  cpu time    0.0099: real time    0.0099
    --------------------------------------------
      LOOP:  cpu time    5.6975: real time    5.7006

 eigenvalue-minimisations  :  5040
 total energy-change (2. order) :-0.3251974E+04  (-0.3120104E+04)
 number of electron     398.9999923 magnetization 
 augmentation part      398.9999923 magnetization 

 Free energy of the ion-electron system (eV)
  ---------------------------------------------------
  alpha Z        PSCENC =       908.15722222
  Ewald energy   TEWEN  =    146692.54587468
  -Hartree energ DENC   =   -193959.76207327
  -exchange      EXHF   =         0.00000000
  -V(xc)+E(xc)   XCENC  =      1554.36616486
  PAW double counting   =     46879.81444766   -50602.10592044
  entropy T*S    EENTRO =         0.00000000
  eigenvalues    EBANDS =      -628.02442166
  atomic energy  EATOM  =     49534.13254211
  Solvation  Ediel_sol  =         0.00000000
  ---------------------------------------------------
  free energy    TOTEN  =       379.12383618 eV

  energy without entropy =      379.12383618  energy(sigma->0) =      379.12383618


--------------------------------------------------------------------------------------------------------




--------------------------------------- Iteration      1(   3)  ---------------------------------------


     EDDAV:  cpu time    6.1538: real time    6.1540
 BZINTS: Fermi energy:    0.381564;  399.000000 electrons
         Band energy:-0.110924E+04;  BLOECHL correction:   -0.043617
       DOS:  cpu time    0.0096: real time    0.0096
    --------------------------------------------
      LOOP:  cpu time    6.1634: real time    6.1636

 eigenvalue-minimisations  :  5544
 total energy-change (2. order) :-0.4812182E+03  (-0.4515718E+03)
 number of electron     398.9999923 magnetization 
 augmentation part      398.9999923 magnetization 

 Free energy of the ion-electron system (eV)
  ---------------------------------------------------
  alpha Z        PSCENC =       908.15722222
  Ewald energy   TEWEN  =    146692.54587468
  -Hartree energ DENC   =   -193959.76207327
  -exchange      EXHF   =         0.00000000
  -V(xc)+E(xc)   XCENC  =      1554.36616486
  PAW double counting   =     46879.81444766   -50602.10592044
  entropy T*S    EENTRO =         0.00000000
  eigenvalues    EBANDS =     -1109.24263932
  atomic energy  EATOM  =     49534.13254211
  Solvation  Ediel_sol  =         0.00000000
  ---------------------------------------------------
  free energy    TOTEN  =      -102.09438148 eV

  energy without entropy =     -102.09438148  energy(sigma->0) =     -102.09438148


--------------------------------------------------------------------------------------------------------




--------------------------------------- Iteration      1(   4)  ---------------------------------------


     EDDAV:  cpu time    8.0601: real time    8.0605
 BZINTS: Fermi energy:    0.092600;  399.000000 electrons
         Band energy:-0.114482E+04;  BLOECHL correction:   -0.048605
       DOS:  cpu time    0.0088: real time    0.0088
    --------------------------------------------
      LOOP:  cpu time    8.0689: real time    8.0693

 eigenvalue-minimisations  :  7644
 total energy-change (2. order) :-0.3557427E+02  (-0.3427303E+02)
 number of electron     398.9999923 magnetization 
 augmentation part      398.9999923 magnetization 

 Free energy of the ion-electron system (eV)
  ---------------------------------------------------
  alpha Z        PSCENC =       908.15722222
  Ewald energy   TEWEN  =    146692.54587468
  -Hartree energ DENC   =   -193959.76207327
  -exchange      EXHF   =         0.00000000
  -V(xc)+E(xc)   XCENC  =      1554.36616486
  PAW double counting   =     46879.81444766   -50602.10592044
  entropy T*S    EENTRO =         0.00000000
  eigenvalues    EBANDS =     -1144.81690855
  atomic energy  EATOM  =     49534.13254211
  Solvation  Ediel_sol  =         0.00000000
  ---------------------------------------------------
  free energy    TOTEN  =      -137.66865071 eV

  energy without entropy =     -137.66865071  energy(sigma->0) =     -137.66865071


--------------------------------------------------------------------------------------------------------




--------------------------------------- Iteration      1(   5)  ---------------------------------------


     EDDAV:  cpu time    6.4819: real time    6.4823
 BZINTS: Fermi energy:    0.076928;  399.000000 electrons
         Band energy:-0.114554E+04;  BLOECHL correction:   -0.045157
       DOS:  cpu time    0.0103: real time    0.0103
    --------------------------------------------
      LOOP:  cpu time    6.4922: real time    6.4926

 eigenvalue-minimisations  :  5908
 total energy-change (2. order) :-0.7233016E+00  (-0.7178218E+00)
 number of electron     398.9999923 magnetization 
 augmentation part      398.9999923 magnetization 

 Free energy of the ion-electron system (eV)
  ---------------------------------------------------
  alpha Z        PSCENC =       908.15722222
  Ewald energy   TEWEN  =    146692.54587468
  -Hartree energ DENC   =   -193959.76207327
  -exchange      EXHF   =         0.00000000
  -V(xc)+E(xc)   XCENC  =      1554.36616486
  PAW double counting   =     46879.81444766   -50602.10592044
  entropy T*S    EENTRO =         0.00000000
  eigenvalues    EBANDS =     -1145.54021016
  atomic energy  EATOM  =     49534.13254211
  Solvation  Ediel_sol  =         0.00000000
  ---------------------------------------------------
  free energy    TOTEN  =      -138.39195232 eV

  energy without entropy =     -138.39195232  energy(sigma->0) =     -138.39195232


--------------------------------------------------------------------------------------------------------




--------------------------------------- Iteration      1(   6)  ---------------------------------------


    EDDIAG:  cpu time    1.0569: real time    1.0573
  RMM-DIIS:  cpu time    3.1010: real time    3.1011
    ORTHCH:  cpu time    0.2083: real time    0.2083
 BZINTS: Fermi energy:    0.076867;  399.000000 electrons
         Band energy:-0.114555E+04;  BLOECHL correction:   -0.045141
       DOS:  cpu time    0.0099: real time    0.0099
    --------------------------------------------
      LOOP:  cpu time    4.3760: real time    4.3766

 eigenvalue-minimisations  :  5401
 total energy-change (2. order) :-0.1086809E-01  (-0.1086849E-01)
 number of electron     398.9999923 magnetization 
 augmentation part      398.9999923 magnetization 

 Free energy of the ion-electron system (eV)
  ---------------------------------------------------
  alpha Z        PSCENC =       908.15722222
  Ewald energy   TEWEN  =    146692.54587468
  -Hartree energ DENC   =   -193959.76207327
  -exchange      EXHF   =         0.00000000
  -V(xc)+E(xc)   XCENC  =      1554.36616486
  PAW double counting   =     46879.81444766   -50602.10592044
  entropy T*S    EENTRO =         0.00000000
  eigenvalues    EBANDS =     -1145.55107825
  atomic energy  EATOM  =     49534.13254211
  Solvation  Ediel_sol  =         0.00000000
  ---------------------------------------------------
  free energy    TOTEN  =      -138.40282041 eV

  energy without entropy =     -138.40282041  energy(sigma->0) =     -138.40282041


--------------------------------------------------------------------------------------------------------




--------------------------------------- Iteration      1(   7)  ---------------------------------------


    EDDIAG:  cpu time    1.0557: real time    1.0558
  RMM-DIIS:  cpu time    4.4024: real time    4.4025
    ORTHCH:  cpu time    0.2080: real time    0.2080
 BZINTS: Fermi energy:    0.076849;  399.000000 electrons
         Band energy:-0.114556E+04;  BLOECHL correction:   -0.045136
       DOS:  cpu time    0.0102: real time    0.0102
    --------------------------------------------
      LOOP:  cpu time    5.6764: real time    5.6766

 eigenvalue-minimisations  :  7641
 total energy-change (2. order) :-0.4581267E-02  (-0.4497179E-02)
 number of electron     398.9999923 magnetization 
 augmentation part      398.9999923 magnetization 

 Free energy of the ion-electron system (eV)
  ---------------------------------------------------
  alpha Z        PSCENC =       908.15722222
  Ewald energy   TEWEN  =    146692.54587468
  -Hartree energ DENC   =   -193959.76207327
  -exchange      EXHF   =         0.00000000
  -V(xc)+E(xc)   XCENC  =      1554.36616486
  PAW double counting   =     46879.81444766   -50602.10592044
  entropy T*S    EENTRO =         0.00000000
  eigenvalues    EBANDS =     -1145.55565952
  atomic energy  EATOM  =     49534.13254211
  Solvation  Ediel_sol  =         0.00000000
  ---------------------------------------------------
  free energy    TOTEN  =      -138.40740168 eV

  energy without entropy =     -138.40740168  energy(sigma->0) =     -138.40740168


--------------------------------------------------------------------------------------------------------




--------------------------------------- Iteration      1(   8)  ---------------------------------------


    EDDIAG:  cpu time    1.0553: real time    1.0555
  RMM-DIIS:  cpu time    3.4458: real time    3.4459
    ORTHCH:  cpu time    0.2082: real time    0.2082
 BZINTS: Fermi energy:    0.076845;  399.000000 electrons
         Band energy:-0.114556E+04;  BLOECHL correction:   -0.045136
       DOS:  cpu time    0.0100: real time    0.0100
    --------------------------------------------
      LOOP:  cpu time    4.7193: real time    4.7197

 eigenvalue-minimisations  :  6043
 total energy-change (2. order) :-0.2909015E-03  (-0.2977303E-03)
 number of electron     398.9999923 magnetization 
 augmentation part      398.9999923 magnetization 

 Free energy of the ion-electron system (eV)
  ---------------------------------------------------
  alpha Z        PSCENC =       908.15722222
  Ewald energy   TEWEN  =    146692.54587468
  -Hartree energ DENC   =   -193959.76207327
  -exchange      EXHF   =         0.00000000
  -V(xc)+E(xc)   XCENC  =      1554.36616486
  PAW double counting   =     46879.81444766   -50602.10592044
  entropy T*S    EENTRO =         0.00000000
  eigenvalues    EBANDS =     -1145.55595042
  atomic energy  EATOM  =     49534.13254211
  Solvation  Ediel_sol  =         0.00000000
  ---------------------------------------------------
  free energy    TOTEN  =      -138.40769258 eV

  energy without entropy =     -138.40769258  energy(sigma->0) =     -138.40769258


--------------------------------------------------------------------------------------------------------




--------------------------------------- Iteration      1(   9)  ---------------------------------------


    EDDIAG:  cpu time    1.0564: real time    1.0567
  RMM-DIIS:  cpu time    4.2505: real time    4.2506
    ORTHCH:  cpu time    0.2083: real time    0.2083
 BZINTS: Fermi energy:    0.076845;  399.000000 electrons
         Band energy:-0.114556E+04;  BLOECHL correction:   -0.045135
       DOS:  cpu time    0.0096: real time    0.0096
    --------------------------------------------
      LOOP:  cpu time    5.5248: real time    5.5252

 eigenvalue-minimisations  :  7294
 total energy-change (2. order) :-0.5398231E-04  (-0.5371813E-04)
 number of electron     398.9999923 magnetization 
 augmentation part      398.9999923 magnetization 

 Free energy of the ion-electron system (eV)
  ---------------------------------------------------
  alpha Z        PSCENC =       908.15722222
  Ewald energy   TEWEN  =    146692.54587468
  -Hartree energ DENC   =   -193959.76207327
  -exchange      EXHF   =         0.00000000
  -V(xc)+E(xc)   XCENC  =      1554.36616486
  PAW double counting   =     46879.81444766   -50602.10592044
  entropy T*S    EENTRO =         0.00000000
  eigenvalues    EBANDS =     -1145.55600440
  atomic energy  EATOM  =     49534.13254211
  Solvation  Ediel_sol  =         0.00000000
  ---------------------------------------------------
  free energy    TOTEN  =      -138.40774656 eV

  energy without entropy =     -138.40774656  energy(sigma->0) =     -138.40774656


--------------------------------------------------------------------------------------------------------




--------------------------------------- Iteration      1(  10)  ---------------------------------------


    EDDIAG:  cpu time    1.0554: real time    1.0555
  RMM-DIIS:  cpu time    2.4800: real time    2.4801
    ORTHCH:  cpu time    0.2083: real time    0.2083
 BZINTS: Fermi energy:    0.076845;  399.000000 electrons
         Band energy:-0.114556E+04;  BLOECHL correction:   -0.045135
       DOS:  cpu time    0.0101: real time    0.0101
    --------------------------------------------
      LOOP:  cpu time    3.7538: real time    3.7540

 eigenvalue-minimisations  :  3873
 total energy-change (2. order) :-0.2017972E-05  (-0.2063627E-05)
 number of electron     398.9999923 magnetization 
 augmentation part      398.9999923 magnetization 

 Free energy of the ion-electron system (eV)
  ---------------------------------------------------
  alpha Z        PSCENC =       908.15722222
  Ewald energy   TEWEN  =    146692.54587468
  -Hartree energ DENC   =   -193959.76207327
  -exchange      EXHF   =         0.00000000
  -V(xc)+E(xc)   XCENC  =      1554.36616486
  PAW double counting   =     46879.81444766   -50602.10592044
  entropy T*S    EENTRO =         0.00000000
  eigenvalues    EBANDS =     -1145.55600642
  atomic energy  EATOM  =     49534.13254211
  Solvation  Ediel_sol  =         0.00000000
  ---------------------------------------------------
  free energy    TOTEN  =      -138.40774858 eV

  energy without entropy =     -138.40774858  energy(sigma->0) =     -138.40774858


--------------------------------------------------------------------------------------------------------




 average (electrostatic) potential at core
  the test charge radii are     0.9430  1.1957  0.7215
  (the norm of the test charge is              1.0000)
       1 -70.9098       2 -70.9014       3 -70.9013       4 -70.9014       5 -70.9037
       6 -70.9010       7 -70.9013       8 -70.9010       9 -70.9253      10 -71.1803
      11 -71.1603      12 -71.1800      13 -71.1603      14 -71.1600      15 -71.1604
      16 -71.1799      17 -71.1603      18 -71.1604      19 -71.1322      20 -71.3391
      21 -71.3388      22 -71.1529      23 -71.3388      24 -71.1528      25 -71.1320
      26 -71.1321      27 -71.1529      28 -70.8265      29 -70.9439      30 -70.9438
      31 -70.9439      32 -70.9437      33 -70.9438      34 -70.9436      35 -70.8328
      36 -52.7470      37 -76.6467
 
 
 
 E-fermi :   0.0768     XC(G=0):  -5.9405     alpha+bet : -5.3466

 Fermi energy:         0.0768448796

 k-point     1 :       0.0000    0.0000    0.0000
  band No.  band energies     occupation 
      1     -18.8381      2.00000
      2      -8.7785      2.00000
      3      -7.5270      2.00000
      4      -6.1320      2.00000
      5      -5.9178      2.00000
      6      -5.8636      2.00000
      7      -5.8634      2.00000
      8      -5.7497      2.00000
      9      -5.7496      2.00000
     10      -5.7258      2.00000
     11      -5.4882      2.00000
     12      -5.2650      2.00000
     13      -5.2649      2.00000
     14      -5.0757      2.00000
     15      -5.0704      2.00000
     16      -5.0704      2.00000
     17      -4.9649      2.00000
     18      -4.9497      2.00000
     19      -4.9496      2.00000
     20      -4.8159      2.00000
     21      -4.4825      2.00000
     22      -4.4824      2.00000
     23      -4.3453      2.00000
     24      -4.2703      2.00000
     25      -4.2702      2.00000
     26      -4.2598      2.00000
     27      -4.0254      2.00000
     28      -4.0254      2.00000
     29      -3.9891      2.00000
     30      -3.9823      2.00000
     31      -3.9822      2.00000
     32      -3.9705      2.00000
     33      -3.8958      2.00000
     34      -3.8958      2.00000
     35      -3.8159      2.00000
     36      -3.8140      2.00000
     37      -3.8139      2.00000
     38      -3.7985      2.00000
     39      -3.7825      2.00000
     40      -3.7824      2.00000
     41      -3.7717      2.00000
     42      -3.7485      2.00000
     43      -3.7269      2.00000
     44      -3.7269      2.00000
     45      -3.6781      2.00000
     46      -3.6781      2.00000
     47      -3.6561      2.00000
     48      -3.6561      2.00000
     49      -3.5406      2.00000
     50      -3.5355      2.00000
     51      -3.4959      2.00000
     52      -3.4959      2.00000
     53      -3.4709      2.00000
     54      -3.4614      2.00000
     55      -3.4229      2.00000
     56      -3.4229      2.00000
     57      -3.4108      2.00000
     58      -3.3951      2.00000
     59      -3.1301      2.00000
     60      -3.1301      2.00000
     61      -3.1256      2.00000
     62      -3.1186      2.00000
     63      -3.0960      2.00000
     64      -3.0960      2.00000
     65      -3.0467      2.00000
     66      -3.0333      2.00000
     67      -3.0333      2.00000
     68      -3.0196      2.00000
     69      -3.0196      2.00000
     70      -2.9882      2.00000
     71      -2.9882      2.00000
     72      -2.9614      2.00000
     73      -2.9578      2.00000
     74      -2.9577      2.00000
     75      -2.9496      2.00000
     76      -2.8872      2.00000
     77      -2.8872      2.00000
     78      -2.8818      2.00000
     79      -2.8351      2.00000
     80      -2.8351      2.00000
     81      -2.7911      2.00000
     82      -2.7911      2.00000
     83      -2.7736      2.00000
     84      -2.7677      2.00000
     85      -2.7677      2.00000
     86      -2.7592      2.00000
     87      -2.7170      2.00000
     88      -2.7169      2.00000
     89      -2.7100      2.00000
     90      -2.6648      2.00000
     91      -2.6647      2.00000
     92      -2.6489      2.00000
     93      -2.6435      2.00000
     94      -2.6435      2.00000
     95      -2.6316      2.00000
     96      -2.6316      2.00000
     97      -2.5946      2.00000
     98      -2.5946      2.00000
     99      -2.5911      2.00000
    100      -2.5857      2.00000
    101      -2.5857      2.00000
    102      -2.5651      2.00000
    103      -2.5651      2.00000
    104      -2.5295      2.00000
    105      -2.5225      2.00000
    106      -2.5225      2.00000
    107      -2.5076      2.00000
    108      -2.5076      2.00000
    109      -2.4332      2.00000
    110      -2.4308      2.00000
    111      -2.4308      2.00000
    112      -2.2942      2.00000
    113      -2.2836      2.00000
    114      -2.2834      2.00000
    115      -2.2834      2.00000
    116      -2.2614      2.00000
    117      -2.2614      2.00000
    118      -2.2601      2.00000
    119      -2.2586      2.00000
    120      -2.2586      2.00000
    121      -2.2559      2.00000
    122      -2.2389      2.00000
    123      -2.2176      2.00000
    124      -2.1945      2.00000
    125      -2.1945      2.00000
    126      -2.0831      2.00000
    127      -2.0831      2.00000
    128      -2.0715      2.00000
    129      -2.0715      2.00000
    130      -2.0600      2.00000
    131      -2.0542      2.00000
    132      -2.0498      2.00000
    133      -2.0498      2.00000
    134      -2.0316      2.00000
    135      -2.0316      2.00000
    136      -1.9991      2.00000
    137      -1.9691      2.00000
    138      -1.9691      2.00000
    139      -1.9491      2.00000
    140      -1.9490      2.00000
    141      -1.9459      2.00000
    142      -1.9281      2.00000
    143      -1.9281      2.00000
    144      -1.8818      2.00000
    145      -1.8818      2.00000
    146      -1.8472      2.00000
    147      -1.8472      2.00000
    148      -1.8359      2.00000
    149      -1.8217      2.00000
    150      -1.8054      2.00000
    151      -1.8053      2.00000
    152      -1.7923      2.00000
    153      -1.7922      2.00000
    154      -1.7844      2.00000
    155      -1.7732      2.00000
    156      -1.7731      2.00000
    157      -1.7555      2.00000
    158      -1.7287      2.00000
    159      -1.6958      2.00000
    160      -1.6880      2.00000
    161      -1.6812      2.00000
    162      -1.6812      2.00000
    163      -1.6687      2.00000
    164      -1.6687      2.00000
    165      -1.6657      2.00000
    166      -1.6563      2.00000
    167      -1.6532      2.00000
    168      -1.6532      2.00000
    169      -1.6366      2.00000
    170      -1.6283      2.00000
    171      -1.6280      2.00000
    172      -1.6279      2.00000
    173      -1.6086      2.00000
    174      -1.6086      2.00000
    175      -1.5989      2.00000
    176      -1.5967      2.00000
    177      -1.5967      2.00000
    178      -1.5925      2.00000
    179      -1.5902      2.00000
    180      -1.5898      2.00000
    181      -1.5898      2.00000
    182      -1.5854      2.00000
    183      -1.5853      2.00000
    184      -1.5824      2.00000
    185      -1.5636      2.00000
    186      -1.5635      2.00000
    187      -1.5230      2.00000
    188      -1.5229      2.00000
    189      -1.4858      2.00000
    190      -1.4837      2.00000
    191      -1.4837      2.00000
    192      -1.4717      2.00000
    193      -1.4629      2.00000
    194      -1.4629      2.00000
    195      -1.0847      2.00000
    196      -0.6857      2.00000
    197      -0.6504      2.00000
    198      -0.6504      2.00000
    199      -0.2762      2.00000
    200      -0.2478      2.00000
    201      -0.2478      2.00000
    202      -0.1996      2.00000
    203      -0.1996      2.84988
    204      -0.0362      1.51363
    205       0.3816      0.00000
    206       0.3817      0.00000
    207       1.2781      0.00000
    208       2.0447      0.00000
    209       2.0500      0.00000
    210       2.0501      0.00000
    211       2.3180      0.00000
    212       2.3180      0.00000
    213       3.4352      0.00000
    214       3.4494      0.00000
    215       3.7418      0.00000
    216       3.7418      0.00000
    217       3.9065      0.00000
    218       3.9188      0.00000
    219       3.9188      0.00000
    220       4.5244      0.00000
    221       4.5458      0.00000
    222       4.5458      0.00000
    223       4.5829      0.00000
    224       4.5839      0.00000
    225       4.5839      0.00000
    226       4.8102      0.00000
    227       4.8102      0.00000
    228       4.8683      0.00000
    229       5.0708      0.00000
    230       5.0708      0.00000
    231       5.1897      0.00000
    232       5.3586      0.00000
    233       5.9096      0.00000
    234       6.1940      0.00000
    235       6.2691      0.00000
    236       6.3893      0.00000
    237       6.3893      0.00000
    238       6.6443      0.00000
    239       6.6444      0.00000
    240       6.9170      0.00000
    241       6.9170      0.00000
    242       6.9428      0.00000
    243       7.0600      0.00000
    244       7.0602      0.00000
    245       7.0951      0.00000
    246       7.4487      0.00000
    247       7.5282      0.00000
    248       7.5530      0.00000
    249       7.5552      0.00000
    250       7.6263      0.00000
    251       7.6321      0.00000
    252       7.7485      0.00000

 k-point     2 :       0.1250   -0.0000    0.0000
  band No.  band energies     occupation 
      1     -18.8381      2.00000
      2      -8.7233      2.00000
      3      -7.4739      2.00000
      4      -6.3829      2.00000
      5      -6.1162      2.00000
      6      -6.0381      2.00000
      7      -5.9550      2.00000
      8      -5.7123      2.00000
      9      -5.5593      2.00000
     10      -5.4897      2.00000
     11      -5.3705      2.00000
     12      -5.3130      2.00000
     13      -5.2491      2.00000
     14      -5.1596      2.00000
     15      -5.1214      2.00000
     16      -5.1143      2.00000
     17      -4.9272      2.00000
     18      -4.8614      2.00000
     19      -4.8226      2.00000
     20      -4.7113      2.00000
     21      -4.4894      2.00000
     22      -4.4632      2.00000
     23      -4.3573      2.00000
     24      -4.2787      2.00000
     25      -4.2588      2.00000
     26      -4.2459      2.00000
     27      -4.0617      2.00000
     28      -4.0291      2.00000
     29      -4.0047      2.00000
     30      -3.9787      2.00000
     31      -3.9635      2.00000
     32      -3.9518      2.00000
     33      -3.9245      2.00000
     34      -3.9189      2.00000
     35      -3.8995      2.00000
     36      -3.8976      2.00000
     37      -3.8579      2.00000
     38      -3.8528      2.00000
     39      -3.7918      2.00000
     40      -3.7723      2.00000
     41      -3.7694      2.00000
     42      -3.7141      2.00000
     43      -3.6945      2.00000
     44      -3.6863      2.00000
     45      -3.6709      2.00000
     46      -3.6620      2.00000
     47      -3.6073      2.00000
     48      -3.6023      2.00000
     49      -3.5537      2.00000
     50      -3.5471      2.00000
     51      -3.5435      2.00000
     52      -3.5055      2.00000
     53      -3.4929      2.00000
     54      -3.4199      2.00000
     55      -3.4064      2.00000
     56      -3.3866      2.00000
     57      -3.3809      2.00000
     58      -3.3673      2.00000
     59      -3.2173      2.00000
     60      -3.1885      2.00000
     61      -3.1806      2.00000
     62      -3.1272      2.00000
     63      -3.1051      2.00000
     64      -3.0788      2.00000
     65      -3.0609      2.00000
     66      -3.0569      2.00000
     67      -3.0379      2.00000
     68      -3.0280      2.00000
     69      -3.0277      2.00000
     70      -2.9940      2.00000
     71      -2.9858      2.00000
     72      -2.9696      2.00000
     73      -2.9513      2.00000
     74      -2.9469      2.00000
     75      -2.9241      2.00000
     76      -2.8994      2.00000
     77      -2.8846      2.00000
     78      -2.8700      2.00000
     79      -2.8255      2.00000
     80      -2.8161      2.00000
     81      -2.8068      2.00000
     82      -2.8022      2.00000
     83      -2.7824      2.00000
     84      -2.7593      2.00000
     85      -2.7586      2.00000
     86      -2.7478      2.00000
     87      -2.7338      2.00000
     88      -2.7209      2.00000
     89      -2.7157      2.00000
     90      -2.6817      2.00000
     91      -2.6736      2.00000
     92      -2.6589      2.00000
     93      -2.6546      2.00000
     94      -2.6395      2.00000
     95      -2.6352      2.00000
     96      -2.6199      2.00000
     97      -2.6187      2.00000
     98      -2.5949      2.00000
     99      -2.5735      2.00000
    100      -2.5661      2.00000
    101      -2.5555      2.00000
    102      -2.5550      2.00000
    103      -2.5493      2.00000
    104      -2.5408      2.00000
    105      -2.5340      2.00000
    106      -2.5329      2.00000
    107      -2.4944      2.00000
    108      -2.4890      2.00000
    109      -2.4779      2.00000
    110      -2.4619      2.00000
    111      -2.4452      2.00000
    112      -2.4293      2.00000
    113      -2.3989      2.00000
    114      -2.3819      2.00000
    115      -2.3454      2.00000
    116      -2.3063      2.00000
    117      -2.2960      2.00000
    118      -2.2855      2.00000
    119      -2.2694      2.00000
    120      -2.2573      2.00000
    121      -2.2493      2.00000
    122      -2.2491      2.00000
    123      -2.2387      2.00000
    124      -2.2283      2.00000
    125      -2.2219      2.00000
    126      -2.1525      2.00000
[...]
  0.000   0.000   0.000   0.000   0.000   0.000   0.000   0.000   0.000   0.000   0.000   0.000   0.000   0.000   0.000   0.000
  0.000   0.000   0.000   0.000   0.000   0.000   0.000   0.000   0.000   0.000   0.000   0.000   0.000   0.000   0.000   0.000
  0.000   0.000   0.000   0.000   0.000   0.000   0.000   0.000   0.000   0.000   0.000   0.000   0.000   0.000   0.000   0.000
  0.000   0.000   0.000   0.000   0.000   0.000   0.000   0.000   0.000   0.000   0.000   0.000   0.000   0.000   0.000   0.000
  0.000   0.000   0.000   0.000   0.000   0.000   0.000   0.000   0.000   0.000   0.000   0.000   0.000   0.000   0.000   0.000
  0.000   0.000   0.000   0.000   0.000   0.000   0.000   0.000   0.000   0.000   1.000   0.000   0.000   0.000   0.000   0.000
  0.000   0.000   0.000   0.000   0.000   0.000   0.000   0.000   0.000   0.000   0.000   0.000   0.000   0.000   0.000   0.000
  0.000   0.000   0.000   0.000   0.000   0.000   0.000   0.000   0.000   0.000   0.000   0.000   0.000   0.000   0.000   0.000
  0.000   0.000   0.000   0.000   0.000   0.000   0.000   0.000   0.000   0.000   0.000   0.000   0.000   0.000   0.000   0.000
  0.000   0.000   0.000   0.000   0.000   0.000   0.000   0.000   0.000   0.000   0.000   0.000   0.000   0.000   0.000   0.000
  0.000   0.000   0.000   0.000   0.000   0.000   0.000   0.000   0.000   0.000   0.000   0.000   0.000   0.000   0.000   0.000
  0.000   0.000   0.000   0.000   0.000   0.000   0.000   0.000   0.000   0.000   0.000   0.000   0.000   0.000   0.000   0.000
  0.000   0.000   0.000   0.000   0.000   0.000   0.000   0.000   0.000   0.000   0.000   0.000   0.000   0.000   0.000   0.000


------------------------ aborting loop because EDIFF is reached ----------------------------------------





 total charge

# of ion       s       p       d       tot
------------------------------------------
    1        0.450   0.282   9.192   9.923
    2        0.449   0.285   9.187   9.921
    3        0.449   0.285   9.187   9.921
    4        0.449   0.285   9.187   9.921
    5        0.451   0.284   9.185   9.920
    6        0.449   0.285   9.187   9.921
    7        0.449   0.285   9.187   9.921
    8        0.449   0.285   9.187   9.921
    9        0.446   0.285   9.187   9.918
   10        0.445   0.370   9.179   9.994
   11        0.441   0.371   9.182   9.993
   12        0.445   0.370   9.179   9.994
   13        0.441   0.371   9.182   9.993
   14        0.441   0.371   9.182   9.993
   15        0.439   0.367   9.183   9.989
   16        0.445   0.370   9.179   9.994
   17        0.439   0.367   9.183   9.989
   18        0.439   0.367   9.183   9.989
   19        0.440   0.367   9.184   9.991
   20        0.466   0.403   9.162  10.031
   21        0.466   0.403   9.162  10.031
   22        0.431   0.369   9.185   9.985
   23        0.466   0.403   9.162  10.031
   24        0.431   0.369   9.185   9.985
   25        0.440   0.367   9.184   9.991
   26        0.440   0.367   9.184   9.991
   27        0.431   0.369   9.185   9.985
   28        0.454   0.286   9.191   9.931
   29        0.446   0.309   9.187   9.941
   30        0.446   0.309   9.187   9.941
   31        0.446   0.309   9.187   9.941
   32        0.446   0.309   9.187   9.941
   33        0.446   0.309   9.187   9.941
   34        0.446   0.309   9.187   9.941
   35        0.445   0.289   9.191   9.925
   36        0.727   0.736   6.037   7.499
   37        1.607   3.256   0.000   4.863
--------------------------------------------------
tot         17.932  15.717 327.452 361.101
 
    CHARGE:  cpu time    0.2105: real time    0.2106
    FORLOC:  cpu time    0.0074: real time    0.0074
    FORNL :  cpu time    1.1887: real time    1.1889
    STRESS:  cpu time    3.5322: real time    3.5324
    FORCOR:  cpu time    0.0279: real time    0.0280
    FORHAR:  cpu time    0.0116: real time    0.0116
    OFIELD:  cpu time    0.0001: real time    0.0001

  FORCE on cell =-STRESS in cart. coord.  units (eV):
  Direction    XX          YY          ZZ          XY          YZ          ZX
  --------------------------------------------------------------------------------------
  Alpha Z   908.15722   908.15722   908.15722
  Ewald  172684.69776172684.69733************     0.00039     0.00012     0.00018
  Hartree185755.50530185755.50527************     0.00004     0.00006     0.00007
  E(xc)   -2313.72493 -2313.72446 -2317.53146    -0.00041    -0.00003    -0.00006
  Local  ************************371683.22665     0.01868    -0.00060    -0.00097
  n-local  -805.04720  -789.39279  -804.55246     8.59833    -0.02914     0.27118
  augment  3331.18908  3331.20934  3345.52210    -0.01755     0.00028     0.00052
  Kinetic  3381.24915  3384.45613  3380.56928     3.17883     1.74631    -1.08043
  Fock        0.00000     0.00000     0.00000     0.00000     0.00000     0.00000
  -------------------------------------------------------------------------------------
  Total      -0.56201    -0.56201     4.02263     0.00000     0.00000    -0.00000
  in kB      -0.82460    -0.82460     5.90215     0.00000     0.00000    -0.00000
  external pressure =        1.42 kB  Pullay stress =        0.00 kB


 VOLUME and BASIS-vectors are now :
 -----------------------------------------------------------------------------
  energy-cutoff  :      500.00
  volume of cell :     1091.97
      direct lattice vectors                 reciprocal lattice vectors
     7.696786404  0.000000000  0.000000000     0.129924354 -0.075011849  0.000000000
     3.848392758  6.665612809  0.000000000     0.000000000  0.150023716  0.000000000
     0.000000000  0.000000000 21.284399033     0.000000000  0.000000000  0.046982769

  length of vectors
     7.696786404  7.696786404 21.284399033     0.150023716  0.150023716  0.046982769


 FORCES acting on ions
    electron-ion (+dipol)            ewald-force                    non-local-force                 convergence-correction
 -----------------------------------------------------------------------------------------------
   -.417E-04 0.931E-07 0.349E+04   0.580E-04 -.436E-05 -.348E+04   0.769E-17 -.384E-17 -.276E+01   -.344E-03 -.219E-03 -.643E+00
   -.184E+00 0.348E-02 0.349E+04   0.888E-02 -.189E+00 -.348E+04   0.872E-01 0.204E+00 -.187E+01   0.883E-01 -.403E-02 -.550E+00
   0.184E+00 0.351E-02 0.349E+04   -.896E-02 -.189E+00 -.348E+04   -.872E-01 0.204E+00 -.187E+01   -.874E-01 -.149E-02 -.549E+00
   -.888E-01 -.161E+00 0.349E+04   -.159E+00 0.102E+00 -.348E+04   0.220E+00 -.267E-01 -.187E+01   0.408E-01 0.784E-01 -.550E+00
   -.652E-04 -.550E-05 0.349E+04   0.116E-03 -.101E-04 -.349E+04   0.593E-17 -.266E-17 -.165E+01   0.122E-01 0.745E-02 -.462E+00
   0.888E-01 -.161E+00 0.349E+04   0.159E+00 0.102E+00 -.348E+04   -.220E+00 -.267E-01 -.187E+01   -.424E-01 0.796E-01 -.549E+00
   0.949E-01 0.157E+00 0.349E+04   -.168E+00 0.868E-01 -.348E+04   0.133E+00 -.178E+00 -.187E+01   -.449E-01 -.750E-01 -.549E+00
   -.948E-01 0.157E+00 0.349E+04   0.168E+00 0.868E-01 -.348E+04   -.133E+00 -.178E+00 -.187E+01   0.484E-01 -.764E-01 -.549E+00
   -.144E-03 -.329E-04 0.349E+04   0.263E-03 0.206E-04 -.348E+04   -.220E-17 -.415E-17 -.228E+01   -.132E-01 -.677E-02 -.585E+00
   0.354E+01 0.204E+01 0.118E+04   -.304E+01 -.175E+01 -.118E+04   -.598E+00 -.345E+00 -.112E+01   0.670E-01 0.384E-01 0.235E+00
   -.911E-04 0.138E+01 0.118E+04   0.190E-03 -.163E+01 -.118E+04   -.150E-07 0.226E+00 -.275E+00   0.121E-01 -.811E-02 0.251E+00
   -.354E+01 0.204E+01 0.118E+04   0.304E+01 -.175E+01 -.118E+04   0.598E+00 -.345E+00 -.112E+01   -.688E-01 0.397E-01 0.235E+00
   0.119E+01 -.688E+00 0.118E+04   -.142E+01 0.817E+00 -.118E+04   0.196E+00 -.113E+00 -.275E+00   -.502E-03 0.153E-01 0.251E+00
   -.119E+01 -.688E+00 0.118E+04   0.141E+01 0.817E+00 -.118E+04   -.196E+00 -.113E+00 -.275E+00   0.243E-01 0.140E-01 0.250E+00
   -.143E-03 -.301E+00 0.118E+04   0.299E-03 0.117E+00 -.118E+04   -.694E-08 0.104E+00 -.870E+00   -.359E-02 0.543E-01 0.178E+00
   -.918E-04 -.409E+01 0.118E+04   0.186E-03 0.351E+01 -.118E+04   -.460E-07 0.690E+00 -.112E+01   -.506E-03 -.809E-01 0.236E+00
   -.261E+00 0.150E+00 0.118E+04   0.101E+00 -.580E-01 -.118E+04   0.902E-01 -.521E-01 -.870E+00   0.456E-01 -.302E-01 0.178E+00
   0.261E+00 0.150E+00 0.118E+04   -.101E+00 -.581E-01 -.118E+04   -.902E-01 -.521E-01 -.870E+00   -.443E-01 -.272E-01 0.180E+00
   -.563E-04 -.386E+00 -.114E+04   0.686E-04 0.308E+00 0.114E+04   -.152E-08 0.228E-01 0.836E+00   -.110E-01 0.197E-02 0.822E+00
   -.220E+02 -.127E+02 -.114E+04   0.230E+02 0.133E+02 0.114E+04   -.123E+01 -.708E+00 -.659E+00   0.156E+00 0.892E-01 0.931E+00
   0.220E+02 -.127E+02 -.114E+04   -.230E+02 0.133E+02 0.114E+04   0.123E+01 -.708E+00 -.659E+00   -.175E+00 0.887E-01 0.931E+00
   -.162E+02 0.933E+01 -.114E+04   0.154E+02 -.892E+01 0.114E+04   0.762E+00 -.440E+00 0.106E+01   0.201E-01 -.102E-01 0.849E+00
   -.882E-04 0.254E+02 -.114E+04   0.144E-03 -.266E+02 0.114E+04   -.942E-07 0.142E+01 -.659E+00   0.302E-04 -.177E+00 0.931E+00
   0.162E+02 0.933E+01 -.114E+04   -.154E+02 -.892E+01 0.114E+04   -.762E+00 -.440E+00 0.106E+01   -.203E-01 -.116E-01 0.849E+00
   0.334E+00 0.193E+00 -.114E+04   -.267E+00 -.154E+00 0.114E+04   -.198E-01 -.114E-01 0.836E+00   -.173E-01 -.109E-01 0.821E+00
   -.334E+00 0.193E+00 -.114E+04   0.266E+00 -.154E+00 0.114E+04   0.198E-01 -.114E-01 0.836E+00   -.397E-02 -.118E-01 0.822E+00
   -.115E-03 -.187E+02 -.114E+04   0.242E-03 0.178E+02 0.114E+04   -.586E-07 0.880E+00 0.106E+01   0.938E-03 0.232E-01 0.849E+00
   -.454E-04 0.116E-04 -.342E+04   0.366E-04 -.334E-04 0.341E+04   -.208E-17 -.384E-17 0.185E+01   -.224E-03 -.445E-03 0.758E+00
   -.614E+01 -.546E+01 -.341E+04   0.540E+01 0.376E+01 0.341E+04   0.372E+00 0.110E+01 0.235E+01   0.143E+00 0.172E+00 0.834E+00
   0.614E+01 -.546E+01 -.341E+04   -.540E+01 0.376E+01 0.341E+04   -.372E+00 0.110E+01 0.235E+01   -.142E+00 0.174E+00 0.833E+00
   -.780E+01 -.258E+01 -.341E+04   0.596E+01 0.279E+01 0.341E+04   0.114E+01 -.226E+00 0.235E+01   0.221E+00 0.380E-01 0.834E+00
   0.780E+01 -.258E+01 -.341E+04   -.596E+01 0.279E+01 0.341E+04   -.114E+01 -.226E+00 0.235E+01   -.221E+00 0.389E-01 0.834E+00
   -.166E+01 0.805E+01 -.341E+04   0.559E+00 -.656E+01 0.341E+04   0.764E+00 -.871E+00 0.235E+01   0.795E-01 -.210E+00 0.833E+00
   0.166E+01 0.805E+01 -.341E+04   -.559E+00 -.656E+01 0.341E+04   -.764E+00 -.871E+00 0.235E+01   -.766E-01 -.211E+00 0.834E+00
   -.158E-03 -.310E-04 -.342E+04   0.255E-03 0.461E-05 0.342E+04   0.411E-17 0.159E-17 0.223E+01   -.128E-01 -.638E-02 0.788E+00
   -.299E-04 -.200E-04 -.225E+04   0.102E-03 0.192E-04 0.225E+04   0.286E-17 -.353E-18 0.255E+01   0.168E-02 0.813E-03 0.666E+00
   0.174E-03 -.850E-04 -.219E+04   0.188E-04 0.846E-05 0.223E+04   -.369E-17 0.133E-17 -.323E+02   0.312E-02 0.190E-02 -.592E-01
 -----------------------------------------------------------------------------------------------
   -.108E-03 -.103E-03 0.206E+02   0.175E-12 0.469E-12 -.182E-11   -.108E-15 -.219E-15 -.326E+02   -.228E-01 -.455E-02 0.120E+02
 
 
 POSITION                                       TOTAL-FORCE (eV/Angst)
 -----------------------------------------------------------------------------------
      0.00000      0.00000      5.37156         0.000000      0.000000     -0.017313
      2.56560      0.00000      5.37156         0.001002      0.015828      0.067865
      5.13119      0.00000      5.37156        -0.001002      0.015828      0.067865
      1.28280      2.22187      5.37156         0.014209     -0.007046      0.067865
      3.84839      2.22187      5.37156         0.000000     -0.000000      0.041358
      6.41399      2.22187      5.37156        -0.014209     -0.007046      0.067865
      2.56560      4.44374      5.37156         0.013206     -0.008782      0.067865
      5.13119      4.44374      5.37156        -0.013206     -0.008782      0.067865
      7.69679      4.44374      5.37156         0.000000     -0.000000      0.031170
      1.28280      0.74062      7.46636        -0.027356     -0.015794     -0.060599
      3.84839      0.74062      7.46636         0.000000     -0.045688     -0.074245
      6.41399      0.74062      7.46636         0.027356     -0.015794     -0.060599
      2.56560      2.96249      7.46636        -0.039567      0.022844     -0.074245
      5.13119      2.96249      7.46636         0.039567      0.022844     -0.074245
      7.69679      2.96249      7.46636         0.000000     -0.026439     -0.002977
      3.84839      5.18437      7.46636        -0.000000      0.031588     -0.060599
      6.41399      5.18437      7.46636        -0.022896      0.013219     -0.002977
      8.97958      5.18437      7.46636         0.022896      0.013219     -0.002977
      7.69679      1.48657      9.56400         0.000000     -0.047190     -0.015176
      2.55408      1.47460      9.52990        -0.050433     -0.029117     -0.205849
      5.14271      1.47460      9.52990         0.050433     -0.029117     -0.205849
      8.97350      3.70663      9.56526         0.062487     -0.036077     -0.010507
      3.84839      3.71642      9.52990        -0.000000      0.058235     -0.205849
      6.42007      3.70663      9.56526        -0.062487     -0.036077     -0.010507
     10.25777      5.92233      9.56400         0.040868      0.023595     -0.015176
      5.13580      5.92233      9.56400        -0.040868      0.023595     -0.015176
      7.69679      5.91797      9.56526        -0.000000      0.072154     -0.010507
      0.00000      0.00000     11.64184         0.000000      0.000000      0.007134
      2.56182      0.00242     11.67254        -0.224480     -0.432525     -0.281955
      5.13496      0.00242     11.67254         0.224480     -0.432525     -0.281955
      1.28301      2.21740     11.67254        -0.486818      0.021857     -0.281955
      6.41378      2.21740     11.67254         0.486818      0.021857     -0.281955
      2.56958      4.44580     11.67254        -0.262338      0.410668     -0.281955
      5.12721      4.44580     11.67254         0.262338      0.410668     -0.281955
      7.69679      4.44374     11.64035         0.000000     -0.000000      0.062273
      3.84839      2.22187     11.57579         0.000000     -0.000000      2.361736
      3.84839      2.22187     13.33581         0.000000      0.000000     -0.093762
 -----------------------------------------------------------------------------------
    total drift:                               -0.022886     -0.004657      0.006062


--------------------------------------------------------------------------------------------------------



  FREE ENERGIE OF THE ION-ELECTRON SYSTEM (eV)
  ---------------------------------------------------
  free  energy   TOTEN  =      -138.40774858 eV

  energy  without entropy=     -138.40774858  energy(sigma->0) =     -138.40774858
 


--------------------------------------------------------------------------------------------------------


    POTLOK:  cpu time    0.0280: real time    0.0280


--------------------------------------------------------------------------------------------------------


 stress matrix after NEB project (eV)
     -0.56201      0.00000     -0.00000
      0.00000     -0.56201     -0.00000
     -0.00000      0.00000      4.02263
  FORCES: max atom, RMS     0.093762    0.015414
  FORCE total and by dimension    0.093762    0.093762
  Stress total and by dimension    4.100399    4.022632
     LOOP+:  cpu time   61.2895: real time   61.3032
 -----------------------------------------------------------------------------
|                                                                             |
|           W    W    AA    RRRRR   N    N  II  N    N   GGGG   !!!           |
|           W    W   A  A   R    R  NN   N  II  NN   N  G    G  !!!           |
|           W    W  A    A  R    R  N N  N  II  N N  N  G       !!!           |
|           W WW W  AAAAAA  RRRRR   N  N N  II  N  N N  G  GGG   !            |
|           WW  WW  A    A  R   R   N   NN  II  N   NN  G    G                |
|           W    W  A    A  R    R  N    N  II  N    N   GGGG   !!!           |
|                                                                             |
|     Tetrahedron method does not include variations of the Fermi             |
|     occupations, so forces and stress will be inaccurate. We suggest        |
|     using a different smearing scheme ISMEAR = 1 or 2 for metals in         |
|     relaxations.                                                            |
|                                                                             |
 -----------------------------------------------------------------------------

    4ORBIT:  cpu time    0.0000: real time    0.0000



 total charge

# of ion       s       p       d       tot
------------------------------------------
    1        0.450   0.282   9.192   9.923
    2        0.449   0.285   9.187   9.921
    3        0.449   0.285   9.187   9.921
    4        0.449   0.285   9.187   9.921
    5        0.451   0.284   9.185   9.920
    6        0.449   0.285   9.187   9.921
    7        0.449   0.285   9.187   9.921
    8        0.449   0.285   9.187   9.921
    9        0.446   0.285   9.187   9.918
   10        0.445   0.370   9.179   9.994
   11        0.441   0.371   9.182   9.993
   12        0.445   0.370   9.179   9.994
   13        0.441   0.371   9.182   9.993
   14        0.441   0.371   9.182   9.993
   15        0.439   0.367   9.183   9.989
   16        0.445   0.370   9.179   9.994
   17        0.439   0.367   9.183   9.989
   18        0.439   0.367   9.183   9.989
   19        0.440   0.367   9.184   9.991
   20        0.466   0.403   9.162  10.031
   21        0.466   0.403   9.162  10.031
   22        0.431   0.369   9.185   9.985
   23        0.466   0.403   9.162  10.031
   24        0.431   0.369   9.185   9.985
   25        0.440   0.367   9.184   9.991
   26        0.440   0.367   9.184   9.991
   27        0.431   0.369   9.185   9.985
   28        0.454   0.286   9.191   9.931
   29        0.446   0.309   9.187   9.941
   30        0.446   0.309   9.187   9.941
   31        0.446   0.309   9.187   9.941
   32        0.446   0.309   9.187   9.941
   33        0.446   0.309   9.187   9.941
   34        0.446   0.309   9.187   9.941
   35        0.445   0.289   9.191   9.925
   36        0.727   0.736   6.037   7.499
   37        1.607   3.256   0.000   4.863
--------------------------------------------------
tot         17.932  15.717 327.452 361.101
 
 BZINTS: Fermi energy:    0.076845;  399.000000 electrons
         Band energy:-0.114556E+04;  BLOECHL correction:   -0.045135

 total amount of memory used by VASP MPI-rank0   104735. kBytes
=======================================================================

   base      :      30000. kBytes
   nonlr-proj:      17849. kBytes
   fftplans  :       2916. kBytes
   grid      :      12390. kBytes
   one-center:        575. kBytes
   wavefun   :      41005. kBytes
 
  
  
 General timing and accounting informations for this job:
 ========================================================
  
                  Total CPU time used (sec):       67.217
                            User time (sec):       64.541
                          System time (sec):        2.676
                         Elapsed time (sec):       67.568
  
                   Maximum memory used (kb):      344604.
                   Average memory used (kb):          N/A
  
                          Minor page faults:        70347
                          Major page faults:            0
                 Voluntary context switches:         4207
