PROCAR new format
# of k-points:   10         # of bands:  252         # of ions:   37

 k-point     1 :    0.00000000 0.00000000 0.00000000     weight = 0.01562500

band     1 # energy  -18.83810516 # occ.  2.00000000
 
ion      s      p      d    tot
    1  0.000  0.000  0.000  0.000
    2  0.000  0.000  0.000  0.000
    3  0.000  0.000  0.000  0.000
    4  0.000  0.000  0.000  0.000
    5  0.000  0.000  0.000  0.000
    6  0.000  0.000  0.000  0.000
    7  0.000  0.000  0.000  0.000
    8  0.000  0.000  0.000  0.000
    9  0.000  0.000  0.000  0.000
   10  0.000  0.000  0.000  0.000
   11  0.000  0.000  0.000  0.000
   12  0.000  0.000  0.000  0.000
   13  0.000  0.000  0.000  0.000
   14  0.000  0.000  0.000  0.000
   15  0.000  0.000  0.000  0.000
   16  0.000  0.000  0.000  0.000
   17  0.000  0.000  0.000  0.000
   18  0.000  0.000  0.000  0.000
   19  0.000  0.000  0.000  0.000
   20  0.000  0.000  0.000  0.000
   21  0.000  0.000  0.000  0.000
   22  0.000  0.000  0.000  0.000
   23  0.000  0.000  0.000  0.000
   24  0.000  0.000  0.000  0.000
   25  0.000  0.000  0.000  0.000
   26  0.000  0.000  0.000  0.000
   27  0.000  0.000  0.000  0.000
   28  0.000  0.000  0.000  0.000
   29  0.000  0.000  0.000  0.000
   30  0.000  0.000  0.000  0.000
   31  0.000  0.000  0.000  0.000
   32  0.000  0.000  0.000  0.000
   33  0.000  0.000  0.000  0.000
   34  0.000  0.000  0.000  0.000
   35  0.000  0.000  0.000  0.000
   36  0.044  0.049  0.097  0.189
   37  0.758  0.017  0.000  0.776
tot    0.802  0.067  0.097  0.966
 
band     2 # energy   -8.77850427 # occ.  2.00000000
 
ion      s      p      d    tot
    1  0.006  0.001  0.000  0.007
    2  0.006  0.001  0.000  0.007
    3  0.006  0.001  0.000  0.007
    4  0.006  0.001  0.000  0.007
    5  0.006  0.001  0.000  0.007
    6  0.006  0.001  0.000  0.007
    7  0.006  0.001  0.000  0.007
    8  0.006  0.001  0.000  0.007
    9  0.006  0.001  0.000  0.007
   10  0.023  0.000  0.000  0.023
   11  0.024  0.000  0.000  0.024
   12  0.023  0.000  0.000  0.023
   13  0.024  0.000  0.000  0.024
   14  0.024  0.000  0.000  0.024
   15  0.023  0.000  0.000  0.023
   16  0.023  0.000  0.000  0.023
   17  0.023  0.000  0.000  0.023
   18  0.023  0.000  0.000  0.023
   19  0.024  0.000  0.000  0.024
   20  0.028  0.000  0.000  0.028
   21  0.028  0.000  0.000  0.028
   22  0.024  0.000  0.000  0.025
   23  0.028  0.000  0.000  0.028
   24  0.024  0.000  0.000  0.025
   25  0.024  0.000  0.000  0.024
   26  0.024  0.000  0.000  0.024
   27  0.024  0.000  0.000  0.025
   28  0.007  0.001  0.000  0.008
   29  0.008  0.001  0.000  0.008
   30  0.008  0.001  0.000  0.008
   31  0.008  0.001  0.000  0.008
   32  0.008  0.001  0.000  0.008
   33  0.008  0.001  0.000  0.008
   34  0.008  0.001  0.000  0.008
   35  0.007  0.001  0.000  0.008
   36  0.017  0.002  0.000  0.020
   37  0.001  0.001  0.000  0.002
tot    0.568  0.018  0.001  0.588
 
band     3 # energy   -7.52704565 # occ.  2.00000000
 
ion      s      p      d    tot
    1  0.018  0.001  0.000  0.019
    2  0.017  0.001  0.000  0.019
    3  0.017  0.001  0.000  0.019
    4  0.017  0.001  0.000  0.019
    5  0.017  0.001  0.000  0.018
    6  0.017  0.001  0.000  0.019
    7  0.017  0.001  0.000  0.019
    8  0.017  0.001  0.000  0.019
    9  0.018  0.001  0.000  0.019
   10  0.012  0.002  0.001  0.014
   11  0.011  0.002  0.001  0.014
   12  0.012  0.002  0.001  0.014
   13  0.011  0.002  0.001  0.014
   14  0.011  0.002  0.001  0.014
   15  0.012  0.002  0.001  0.014
   16  0.012  0.002  0.001  0.014
   17  0.012  0.002  0.001  0.014
   18  0.012  0.002  0.001  0.014
   19  0.007  0.002  0.000  0.010
   20  0.009  0.003  0.000  0.012
   21  0.009  0.003  0.000  0.012
   22  0.007  0.002  0.000  0.010
   23  0.009  0.003  0.000  0.012
   24  0.007  0.002  0.000  0.010
   25  0.007  0.002  0.000  0.010
   26  0.007  0.002  0.000  0.010
   27  0.007  0.002  0.000  0.010
   28  0.016  0.001  0.001  0.017
   29  0.019  0.001  0.001  0.020
   30  0.019  0.001  0.001  0.020
   31  0.019  0.001  0.001  0.020
   32  0.019  0.001  0.001  0.020
   33  0.019  0.001  0.001  0.020
   34  0.019  0.001  0.001  0.020
   35  0.016  0.001  0.001  0.017
   36  0.041  0.002  0.003  0.047
   37  0.002  0.002  0.000  0.004
tot    0.518  0.056  0.022  0.596
 
band     4 # energy   -6.13197828 # occ.  2.00000000
 
ion      s      p      d    tot
    1  0.003  0.000  0.001  0.004
    2  0.002  0.000  0.001  0.003
    3  0.002  0.000  0.001  0.003
    4  0.002  0.000  0.001  0.003
    5  0.000  0.000  0.001  0.001
    6  0.002  0.000  0.001  0.003
    7  0.002  0.000  0.001  0.003
    8  0.002  0.000  0.001  0.003
    9  0.007  0.000  0.000  0.008
   10  0.000  0.001  0.002  0.003
   11  0.006  0.003  0.001  0.010
   12  0.000  0.001  0.002  0.003
   13  0.006  0.003  0.001  0.010
   14  0.006  0.003  0.001  0.010
   15  0.002  0.000  0.002  0.005
   16  0.000  0.001  0.002  0.003
   17  0.002  0.000  0.002  0.005
   18  0.002  0.000  0.002  0.005
   19  0.001  0.001  0.005  0.007
   20  0.027  0.007  0.013  0.047
   21  0.027  0.007  0.013  0.047
   22  0.001  0.003  0.003  0.006
   23  0.027  0.007  0.013  0.047
   24  0.001  0.003  0.003  0.006
   25  0.001  0.001  0.005  0.007
   26  0.001  0.001  0.005  0.007
   27  0.001  0.003  0.003  0.006
   28  0.012  0.000  0.001  0.013
   29  0.008  0.000  0.004  0.012
   30  0.008  0.000  0.004  0.012
   31  0.008  0.000  0.004  0.012
   32  0.008  0.000  0.004  0.012
   33  0.008  0.000  0.004  0.012
   34  0.008  0.000  0.004  0.012
   35  0.016  0.000  0.001  0.017
   36  0.020  0.001  0.210  0.230
   37  0.016  0.162  0.000  0.179
tot    0.247  0.213  0.316  0.776
 
band     5 # energy   -5.91778459 # occ.  2.00000000
 
ion      s      p      d    tot
    1  0.009  0.000  0.004  0.013
    2  0.012  0.000  0.004  0.017
    3  0.012  0.000  0.004  0.017
    4  0.012  0.000  0.004  0.017
    5  0.026  0.000  0.003  0.029
    6  0.012  0.000  0.004  0.017
    7  0.012  0.000  0.004  0.017
    8  0.012  0.000  0.004  0.017
    9  0.006  0.000  0.006  0.011
   10  0.004  0.004  0.002  0.010
   11  0.001  0.003  0.003  0.007
   12  0.004  0.004  0.002  0.010
   13  0.001  0.003  0.003  0.007
   14  0.001  0.003  0.003  0.007
   15  0.010  0.004  0.002  0.016
   16  0.004  0.004  0.002  0.010
   17  0.010  0.004  0.002  0.016
   18  0.010  0.004  0.002  0.016
   19  0.017  0.002  0.004  0.023
   20  0.001  0.005  0.007  0.014
   21  0.001  0.005  0.007  0.014
   22  0.012  0.004  0.003  0.019
   23  0.001  0.005  0.007  0.014
   24  0.012  0.004  0.003  0.019
   25  0.017  0.002  0.004  0.023
   26  0.017  0.002  0.004  0.023
   27  0.012  0.004  0.003  0.019
   28  0.001  0.001  0.005  0.008
   29  0.010  0.002  0.008  0.020
   30  0.010  0.002  0.008  0.020
   31  0.010  0.002  0.008  0.020
   32  0.010  0.002  0.008  0.020
   33  0.010  0.002  0.008  0.020
   34  0.010  0.002  0.008  0.020
   35  0.001  0.001  0.005  0.006
   36  0.088  0.001  0.003  0.091
   37  0.004  0.015  0.000  0.020
tot    0.405  0.096  0.166  0.667
 
band     6 # energy   -5.86356525 # occ.  2.00000000
 
ion      s      p      d    tot
    1  0.000  0.001  0.003  0.005
    2  0.005  0.001  0.001  0.008
    3  0.001  0.001  0.001  0.003
    4  0.006  0.002  0.002  0.010
    5  0.000  0.002  0.003  0.005
    6  0.004  0.001  0.002  0.007
    7  0.000  0.001  0.001  0.002
    8  0.002  0.001  0.001  0.004
    9  0.000  0.000  0.001  0.001
   10  0.039  0.004  0.003  0.047
   11  0.003  0.009  0.005  0.017
   12  0.018  0.002  0.008  0.027
   13  0.013  0.006  0.005  0.024
   14  0.028  0.001  0.005  0.035
   15  0.000  0.005  0.005  0.010
   16  0.004  0.001  0.010  0.015
   17  0.000  0.004  0.004  0.008
   18  0.001  0.002  0.003  0.005
   19  0.001  0.011  0.001  0.014
   20  0.071  0.002  0.011  0.084
   21  0.032  0.003  0.015  0.050
   22  0.006  0.003  0.007  0.017
   23  0.008  0.004  0.017  0.029
   24  0.014  0.004  0.002  0.020
   25  0.013  0.001  0.006  0.020
   26  0.006  0.007  0.003  0.016
   27  0.002  0.003  0.010  0.015
   28  0.000  0.002  0.003  0.004
   29  0.008  0.003  0.005  0.016
   30  0.003  0.001  0.003  0.007
   31  0.008  0.004  0.006  0.018
   32  0.004  0.002  0.006  0.012
   33  0.001  0.001  0.003  0.004
   34  0.001  0.001  0.005  0.007
   35  0.000  0.000  0.003  0.003
   36  0.000  0.004  0.081  0.085
   37  0.000  0.022  0.000  0.022
tot    0.305  0.121  0.249  0.675
 
band     7 # energy   -5.86342723 # occ.  2.00000000
 
ion      s      p      d    tot
    1  0.000  0.001  0.003  0.005
    2  0.001  0.001  0.001  0.003
    3  0.005  0.001  0.002  0.008
    4  0.000  0.001  0.001  0.002
    5  0.000  0.002  0.003  0.005
    6  0.002  0.001  0.001  0.004
    7  0.006  0.002  0.002  0.010
    8  0.004  0.001  0.001  0.007
    9  0.000  0.000  0.001  0.001
   10  0.001  0.000  0.011  0.013
   11  0.026  0.002  0.005  0.033
   12  0.023  0.003  0.006  0.032
   13  0.017  0.005  0.005  0.026
   14  0.001  0.009  0.005  0.015
   15  0.001  0.002  0.003  0.006
   16  0.036  0.004  0.004  0.044
   17  0.000  0.003  0.004  0.007
   18  0.000  0.006  0.005  0.010
   19  0.012  0.001  0.005  0.019
   20  0.003  0.004  0.017  0.024
   21  0.042  0.003  0.014  0.059
   22  0.008  0.003  0.006  0.018
   23  0.066  0.002  0.011  0.079
   24  0.001  0.003  0.011  0.014
   25  0.001  0.012  0.001  0.013
   26  0.008  0.005  0.004  0.017
   27  0.013  0.004  0.003  0.020
   28  0.000  0.002  0.003  0.004
   29  0.000  0.001  0.004  0.006
   30  0.005  0.003  0.006  0.014
   31  0.000  0.001  0.003  0.004
   32  0.005  0.002  0.003  0.009
   33  0.008  0.003  0.006  0.018
   34  0.007  0.003  0.004  0.015
   35  0.000  0.000  0.003  0.003
   36  0.000  0.004  0.081  0.085
   37  0.000  0.022  0.000  0.022
tot    0.305  0.121  0.249  0.675
 
band     8 # energy   -5.74967805 # occ.  2.00000000
 
ion      s      p      d    tot
    1  0.000  0.001  0.002  0.004
    2  0.008  0.002  0.002  0.012
    3  0.001  0.001  0.002  0.003
    4  0.009  0.002  0.002  0.013
    5  0.000  0.000  0.003  0.004
    6  0.005  0.002  0.002  0.009
    7  0.000  0.001  0.002  0.003
    8  0.004  0.001  0.002  0.008
    9  0.000  0.003  0.005  0.008
   10  0.000  0.012  0.002  0.014
   11  0.017  0.003  0.004  0.024
   12  0.006  0.004  0.004  0.014
   13  0.014  0.003  0.005  0.023
   14  0.000  0.002  0.012  0.014
   15  0.045  0.003  0.006  0.054
   16  0.007  0.003  0.005  0.014
   17  0.039  0.004  0.007  0.049
   18  0.000  0.005  0.011  0.016
   19  0.038  0.004  0.005  0.047
   20  0.000  0.011  0.003  0.015
   21  0.000  0.005  0.004  0.009
   22  0.034  0.004  0.006  0.043
   23  0.000  0.004  0.005  0.008
   24  0.000  0.011  0.005  0.016
   25  0.000  0.000  0.017  0.017
   26  0.033  0.003  0.007  0.043
   27  0.039  0.003  0.006  0.048
   28  0.000  0.002  0.005  0.007
   29  0.013  0.003  0.003  0.019
   30  0.002  0.002  0.004  0.008
   31  0.014  0.003  0.003  0.020
   32  0.007  0.001  0.003  0.011
   33  0.001  0.002  0.004  0.006
   34  0.005  0.001  0.003  0.010
   35  0.000  0.004  0.005  0.009
   36  0.000  0.000  0.017  0.017
   37  0.000  0.000  0.000  0.000
tot    0.341  0.115  0.184  0.640
 
band     9 # energy   -5.74955947 # occ.  2.00000000
 
ion      s      p      d    tot
    1  0.000  0.001  0.002  0.004
    2  0.001  0.001  0.002  0.004
    3  0.008  0.002  0.002  0.013
    4  0.000  0.001  0.002  0.003
    5  0.000  0.000  0.003  0.004
    6  0.004  0.001  0.002  0.007
    7  0.009  0.002  0.002  0.013
    8  0.005  0.001  0.002  0.008
    9  0.000  0.003  0.005  0.008
   10  0.009  0.000  0.006  0.015
   11  0.004  0.002  0.010  0.016
   12  0.003  0.008  0.003  0.014
   13  0.006  0.002  0.009  0.018
   14  0.021  0.004  0.002  0.027
   15  0.011  0.005  0.010  0.025
   16  0.002  0.010  0.002  0.014
   17  0.017  0.004  0.009  0.031
   18  0.056  0.003  0.004  0.063
   19  0.009  0.001  0.014  0.025
   20  0.000  0.002  0.005  0.007
   21  0.000  0.008  0.004  0.012
   22  0.015  0.008  0.005  0.028
   23  0.000  0.010  0.004  0.013
   24  0.048  0.002  0.006  0.055
   25  0.047  0.005  0.002  0.054
   26  0.015  0.001  0.012  0.029
   27  0.010  0.009  0.005  0.024
   28  0.000  0.002  0.005  0.007
   29  0.001  0.001  0.004  0.005
   30  0.012  0.002  0.003  0.017
   31  0.000  0.001  0.004  0.005
   32  0.007  0.002  0.004  0.013
   33  0.013  0.002  0.003  0.018
   34  0.009  0.003  0.004  0.015
   35  0.000  0.004  0.005  0.009
   36  0.000  0.000  0.017  0.017
   37  0.000  0.000  0.000  0.000
tot    0.341  0.115  0.184  0.640
 
band    10 # energy   -5.72577456 # occ.  2.00000000
 
ion      s      p      d    tot
    1  0.023  0.003  0.001  0.026
    2  0.000  0.002  0.004  0.006
    3  0.000  0.002  0.004  0.006
    4  0.000  0.002  0.004  0.006
    5  0.001  0.000  0.001  0.002
    6  0.000  0.002  0.004  0.006
    7  0.000  0.002  0.004  0.006
    8  0.000  0.002  0.004  0.006
    9  0.008  0.002  0.000  0.010
   10  0.029  0.006  0.006  0.041
   11  0.006  0.000  0.012  0.017
   12  0.029  0.006  0.006  0.041
   13  0.006  0.000  0.012  0.017
   14  0.006  0.000  0.012  0.018
   15  0.012  0.008  0.003  0.024
   16  0.029  0.006  0.006  0.041
   17  0.012  0.008  0.003  0.024
   18  0.012  0.008  0.003  0.023
   19  0.022  0.009  0.002  0.033
   20  0.000  0.003  0.011  0.013
   21  0.000  0.003  0.011  0.013
   22  0.024  0.002  0.009  0.036
   23  0.000  0.003  0.011  0.013
   24  0.025  0.002  0.009  0.036
   25  0.022  0.009  0.002  0.033
   26  0.022  0.009  0.002  0.033
   27  0.024  0.002  0.009  0.036
   28  0.020  0.003  0.000  0.023
   29  0.000  0.002  0.004  0.006
   30  0.000  0.002  0.004  0.006
   31  0.000  0.002  0.004  0.006
   32  0.000  0.002  0.004  0.006
   33  0.000  0.002  0.004  0.006
   34  0.000  0.002  0.004  0.006
   35  0.011  0.002  0.001  0.015
   36  0.000  0.000  0.000  0.000
   37  0.000  0.000  0.000  0.000
tot    0.344  0.114  0.180  0.639
 
band    11 # energy   -5.48819760 # occ.  2.00000000
 
ion      s      p      d    tot
    1  0.009  0.000  0.002  0.011
    2  0.003  0.002  0.007  0.012
    3  0.003  0.002  0.007  0.012
    4  0.003  0.002  0.007  0.012
    5  0.008  0.004  0.005  0.017
    6  0.003  0.002  0.007  0.012
    7  0.003  0.002  0.007  0.012
    8  0.003  0.002  0.007  0.012
    9  0.026  0.001  0.000  0.028
   10  0.000  0.003  0.010  0.013
   11  0.033  0.007  0.000  0.040
   12  0.000  0.003  0.010  0.013
   13  0.033  0.007  0.000  0.040
   14  0.033  0.007  0.000  0.040
   15  0.007  0.001  0.013  0.021
   16  0.000  0.003  0.010  0.013
   17  0.007  0.001  0.013  0.021
   18  0.007  0.001  0.013  0.021
   19  0.001  0.000  0.003  0.003
   20  0.005  0.004  0.017  0.026
   21  0.005  0.004  0.017  0.026
   22  0.002  0.002  0.003  0.007
   23  0.005  0.004  0.017  0.026
   24  0.002  0.002  0.003  0.007
   25  0.001  0.000  0.003  0.003
   26  0.001  0.000  0.003  0.003
   27  0.002  0.002  0.003  0.007
   28  0.001  0.000  0.000  0.001
   29  0.000  0.000  0.001  0.002
   30  0.000  0.000  0.001  0.002
   31  0.000  0.000  0.001  0.002
   32  0.000  0.000  0.001  0.002
   33  0.000  0.000  0.001  0.002
   34  0.000  0.000  0.001  0.002
   35  0.003  0.000  0.000  0.003
   36  0.008  0.004  0.110  0.122
   37  0.011  0.145  0.000  0.156
tot    0.228  0.219  0.303  0.750
 
band    12 # energy   -5.26497226 # occ.  2.00000000
 
ion      s      p      d    tot
    1  0.000  0.001  0.004  0.004
    2  0.005  0.001  0.002  0.008
    3  0.000  0.001  0.002  0.002
    4  0.006  0.001  0.002  0.010
    5  0.000  0.003  0.004  0.006
    6  0.008  0.002  0.002  0.011
    7  0.000  0.001  0.002  0.003
    8  0.006  0.001  0.002  0.010
    9  0.000  0.001  0.003  0.004
   10  0.010  0.001  0.001  0.013
   11  0.003  0.002  0.005  0.010
   12  0.004  0.001  0.007  0.012
   13  0.007  0.001  0.005  0.013
   14  0.020  0.001  0.002  0.023
   15  0.000  0.003  0.002  0.006
   16  0.002  0.000  0.009  0.011
   17  0.000  0.003  0.002  0.006
   18  0.001  0.000  0.003  0.005
   19  0.000  0.000  0.001  0.002
   20  0.000  0.004  0.007  0.011
   21  0.000  0.002  0.018  0.020
   22  0.000  0.001  0.003  0.003
   23  0.000  0.001  0.021  0.022
   24  0.000  0.001  0.005  0.006
   25  0.001  0.000  0.002  0.003
   26  0.000  0.000  0.001  0.002
   27  0.000  0.000  0.002  0.002
   28  0.000  0.000  0.000  0.000
   29  0.003  0.001  0.009  0.012
   30  0.002  0.000  0.002  0.004
   31  0.002  0.001  0.011  0.014
   32  0.000  0.002  0.010  0.012
   33  0.002  0.000  0.002  0.004
   34  0.000  0.002  0.008  0.009
   35  0.000  0.000  0.001  0.001
   36  0.000  0.004  0.250  0.255
   37  0.000  0.220  0.000  0.220
tot    0.083  0.264  0.412  0.760
 
band    13 # energy   -5.26494288 # occ.  2.00000000
 
ion      s      p      d    tot
    1  0.000  0.001  0.004  0.004
    2  0.004  0.001  0.002  0.007
    3  0.008  0.002  0.002  0.012
    4  0.002  0.001  0.002  0.005
    5  0.000  0.003  0.004  0.006
    6  0.001  0.001  0.002  0.003
    7  0.008  0.002  0.002  0.012
    8  0.002  0.001  0.002  0.005
    9  0.000  0.001  0.003  0.004
   10  0.000  0.000  0.011  0.011
   11  0.017  0.001  0.003  0.021
   12  0.007  0.001  0.005  0.012
   13  0.013  0.001  0.003  0.018
   14  0.000  0.002  0.006  0.008
   15  0.001  0.001  0.003  0.005
   16  0.009  0.001  0.003  0.013
   17  0.001  0.001  0.003  0.005
   18  0.000  0.004  0.002  0.006
   19  0.001  0.000  0.002  0.003
   20  0.000  0.000  0.024  0.024
   21  0.000  0.003  0.013  0.016
   22  0.000  0.001  0.004  0.005
   23  0.000  0.004  0.009  0.013
   24  0.000  0.000  0.001  0.001
   25  0.000  0.001  0.001  0.002
   26  0.001  0.000  0.001  0.002
   27  0.000  0.001  0.004  0.006
   28  0.000  0.000  0.000  0.000
   29  0.000  0.001  0.005  0.006
   30  0.001  0.002  0.012  0.014
   31  0.001  0.001  0.003  0.004
   32  0.003  0.000  0.004  0.007
   33  0.001  0.002  0.012  0.015
   34  0.003  0.000  0.006  0.009
   35  0.000  0.000  0.001  0.001
   36  0.000  0.004  0.250  0.255
   37  0.000  0.220  0.000  0.220
tot    0.084  0.264  0.412  0.760
 
band    14 # energy   -5.07568457 # occ.  2.00000000
 
ion      s      p      d    tot
    1  0.000  0.002  0.008  0.010
    2  0.005  0.001  0.010  0.016
    3  0.005  0.001  0.010  0.016
    4  0.005  0.001  0.010  0.016
    5  0.036  0.001  0.004  0.040
    6  0.005  0.001  0.010  0.016
    7  0.005  0.001  0.010  0.016
    8  0.005  0.001  0.010  0.016
    9  0.001  0.001  0.009  0.011
   10  0.011  0.001  0.018  0.030
   11  0.000  0.002  0.019  0.021
   12  0.011  0.001  0.018  0.030
   13  0.000  0.002  0.019  0.021
   14  0.000  0.002  0.019  0.021
   15  0.013  0.000  0.019  0.032
   16  0.011  0.001  0.018  0.030
   17  0.013  0.000  0.019  0.032
   18  0.013  0.000  0.019  0.032
   19  0.009  0.002  0.011  0.023
   20  0.000  0.001  0.025  0.026
   21  0.000  0.001  0.025  0.026
   22  0.003  0.001  0.014  0.018
   23  0.000  0.001  0.025  0.026
   24  0.003  0.001  0.014  0.018
   25  0.009  0.002  0.011  0.023
   26  0.009  0.002  0.011  0.023
   27  0.003  0.001  0.014  0.018
   28  0.005  0.002  0.003  0.009
   29  0.001  0.002  0.011  0.014
   30  0.001  0.002  0.011  0.014
   31  0.001  0.002  0.011  0.014
   32  0.001  0.002  0.011  0.014
   33  0.001  0.002  0.011  0.014
   34  0.001  0.002  0.011  0.014
   35  0.001  0.001  0.002  0.004
   36  0.043  0.001  0.016  0.060
   37  0.000  0.000  0.000  0.001
tot    0.228  0.048  0.487  0.764
 
band    15 # energy   -5.07044503 # occ.  2.00000000
 
ion      s      p      d    tot
    1  0.000  0.005  0.009  0.013
    2  0.004  0.002  0.004  0.010
    3  0.017  0.003  0.005  0.025
    4  0.010  0.003  0.005  0.017
    5  0.000  0.000  0.009  0.009
    6  0.006  0.002  0.004  0.012
    7  0.019  0.004  0.005  0.027
    8  0.001  0.001  0.004  0.007
    9  0.000  0.004  0.008  0.012
   10  0.016  0.002  0.006  0.024
   11  0.000  0.002  0.011  0.013
   12  0.002  0.004  0.013  0.019
   13  0.000  0.003  0.012  0.016
   14  0.001  0.001  0.007  0.008
   15  0.010  0.002  0.013  0.025
   16  0.007  0.003  0.011  0.021
   17  0.003  0.001  0.017  0.021
   18  0.025  0.004  0.004  0.033
   19  0.003  0.002  0.010  0.015
   20  0.001  0.002  0.012  0.015
   21  0.000  0.002  0.012  0.014
   22  0.001  0.001  0.022  0.024
   23  0.000  0.002  0.012  0.014
   24  0.006  0.002  0.002  0.011
   25  0.007  0.006  0.006  0.019
   26  0.001  0.001  0.011  0.013
   27  0.003  0.002  0.015  0.020
   28  0.000  0.004  0.005  0.009
   29  0.003  0.003  0.011  0.016
   30  0.026  0.002  0.009  0.037
   31  0.009  0.002  0.010  0.022
   32  0.012  0.002  0.011  0.025
   33  0.025  0.002  0.009  0.036
   34  0.004  0.002  0.012  0.018
   35  0.000  0.004  0.007  0.011
   36  0.000  0.000  0.076  0.076
   37  0.000  0.009  0.000  0.009
tot    0.222  0.096  0.397  0.715
 
band    16 # energy   -5.07042354 # occ.  2.00000000
 
ion      s      p      d    tot
    1  0.000  0.005  0.009  0.013
    2  0.015  0.003  0.004  0.022
    3  0.001  0.002  0.004  0.007
    4  0.009  0.002  0.004  0.016
    5  0.000  0.000  0.009  0.009
    6  0.013  0.003  0.005  0.021
    7  0.000  0.001  0.004  0.006
    8  0.018  0.003  0.005  0.026
    9  0.000  0.004  0.008  0.012
   10  0.000  0.004  0.014  0.019
   11  0.001  0.002  0.009  0.012
   12  0.015  0.002  0.007  0.024
   13  0.001  0.001  0.007  0.009
   14  0.000  0.003  0.013  0.017
   15  0.015  0.003  0.010  0.028
   16  0.010  0.003  0.009  0.022
   17  0.022  0.004  0.005  0.032
   18  0.001  0.000  0.018  0.019
   19  0.004  0.004  0.008  0.016
   20  0.000  0.002  0.012  0.014
   21  0.001  0.002  0.012  0.015
   22  0.006  0.002  0.004  0.012
   23  0.001  0.002  0.012  0.015
   24  0.000  0.001  0.024  0.025
   25  0.000  0.000  0.012  0.012
   26  0.006  0.005  0.007  0.018
   27  0.004  0.002  0.011  0.016
   28  0.000  0.004  0.005  0.009
   29  0.024  0.002  0.010  0.035
   30  0.000  0.003  0.011  0.014
   31  0.017  0.002  0.011  0.029
   32  0.014  0.002  0.009  0.026
   33  0.001  0.003  0.012  0.015
   34  0.022  0.002  0.009  0.033
   35  0.000  0.004  0.007  0.011
   36  0.000  0.000  0.076  0.076
   37  0.000  0.009  0.000  0.009
tot    0.222  0.096  0.397  0.715
 
band    17 # energy   -4.96489288 # occ.  2.00000000
 
ion      s      p      d    tot
    1  0.033  0.003  0.000  0.036
    2  0.000  0.003  0.010  0.013
    3  0.000  0.003  0.010  0.013
    4  0.000  0.003  0.010  0.013
    5  0.001  0.000  0.001  0.001
    6  0.000  0.003  0.010  0.013
    7  0.000  0.003  0.010  0.013
    8  0.000  0.003  0.010  0.013
    9  0.030  0.004  0.001  0.035
   10  0.007  0.003  0.011  0.021
   11  0.001  0.000  0.016  0.017
   12  0.007  0.003  0.011  0.021
   13  0.001  0.000  0.016  0.017
   14  0.001  0.000  0.016  0.017
   15  0.008  0.004  0.017  0.029
   16  0.007  0.003  0.011  0.021
   17  0.008  0.004  0.017  0.029
   18  0.008  0.004  0.017  0.029
   19  0.004  0.003  0.017  0.024
   20  0.000  0.000  0.016  0.016
   21  0.000  0.000  0.016  0.016
   22  0.013  0.004  0.011  0.027
   23  0.000  0.000  0.016  0.016
   24  0.013  0.004  0.011  0.027
   25  0.004  0.003  0.017  0.024
   26  0.004  0.003  0.017  0.024
   27  0.013  0.004  0.011  0.027
   28  0.035  0.003  0.000  0.037
   29  0.000  0.003  0.010  0.013
   30  0.000  0.003  0.010  0.013
   31  0.000  0.003  0.010  0.013
   32  0.000  0.003  0.010  0.013
   33  0.000  0.003  0.010  0.013
   34  0.000  0.003  0.010  0.013
   35  0.027  0.004  0.002  0.033
   36  0.000  0.000  0.000  0.000
   37  0.000  0.000  0.000  0.000
tot    0.227  0.090  0.390  0.707
 
band    18 # energy   -4.94966227 # occ.  2.00000000
 
ion      s      p      d    tot
    1  0.000  0.001  0.007  0.008
    2  0.008  0.002  0.004  0.014
    3  0.002  0.001  0.004  0.007
    4  0.015  0.003  0.004  0.021
    5  0.000  0.004  0.006  0.011
    6  0.014  0.003  0.004  0.020
    7  0.001  0.001  0.004  0.006
    8  0.006  0.002  0.004  0.011
    9  0.000  0.001  0.009  0.010
   10  0.008  0.003  0.007  0.017
   11  0.001  0.001  0.020  0.021
   12  0.005  0.002  0.008  0.015
   13  0.007  0.002  0.011  0.021
   14  0.012  0.003  0.005  0.020
   15  0.000  0.002  0.014  0.017
   16  0.000  0.001  0.011  0.012
   17  0.000  0.001  0.010  0.011
   18  0.001  0.000  0.007  0.007
   19  0.000  0.004  0.020  0.024
   20  0.014  0.003  0.011  0.028
   21  0.008  0.002  0.014  0.025
   22  0.005  0.002  0.010  0.017
   23  0.001  0.001  0.019  0.021
   24  0.008  0.003  0.008  0.019
   25  0.002  0.000  0.007  0.010
   26  0.001  0.002  0.013  0.016
   27  0.000  0.001  0.013  0.014
   28  0.000  0.002  0.014  0.017
   29  0.014  0.003  0.005  0.022
   30  0.003  0.002  0.006  0.011
   31  0.028  0.003  0.003  0.034
   32  0.027  0.003  0.003  0.033
   33  0.002  0.002  0.006  0.010
   34  0.012  0.003  0.005  0.019
   35  0.000  0.001  0.012  0.014
   36  0.000  0.024  0.018  0.042
   37  0.000  0.075  0.000  0.075
tot    0.205  0.171  0.325  0.701
 
band    19 # energy   -4.94961943 # occ.  2.00000000
 
ion      s      p      d    tot
    1  0.000  0.001  0.007  0.008
    2  0.007  0.002  0.004  0.013
    3  0.013  0.003  0.004  0.019
    4  0.000  0.001  0.004  0.005
    5  0.000  0.004  0.006  0.011
    6  0.001  0.001  0.004  0.006
    7  0.014  0.003  0.004  0.021
    8  0.009  0.002  0.004  0.015
    9  0.000  0.001  0.009  0.010
   10  0.001  0.001  0.011  0.012
   11  0.013  0.003  0.004  0.020
   12  0.004  0.002  0.009  0.014
   13  0.006  0.002  0.013  0.021
   14  0.001  0.001  0.019  0.021
   15  0.001  0.000  0.006  0.007
   16  0.008  0.003  0.006  0.017
   17  0.000  0.001  0.011  0.012
   18  0.000  0.002  0.014  0.016
   19  0.002  0.000  0.007  0.009
   20  0.001  0.001  0.019  0.021
   21  0.007  0.002  0.015  0.024
   22  0.004  0.002  0.010  0.016
   23  0.014  0.004  0.010  0.028
   24  0.001  0.001  0.012  0.014
   25  0.000  0.004  0.019  0.023
   26  0.001  0.002  0.014  0.017
   27  0.009  0.003  0.007  0.019
   28  0.000  0.002  0.014  0.017
   29  0.015  0.003  0.004  0.022
   30  0.026  0.003  0.003  0.032
   31  0.001  0.002  0.006  0.009
   32  0.002  0.002  0.006  0.010
   33  0.027  0.003  0.003  0.033
   34  0.016  0.003  0.005  0.024
   35  0.000  0.001  0.012  0.014
   36  0.000  0.024  0.018  0.042
   37  0.000  0.075  0.000  0.075
tot    0.205  0.171  0.325  0.701
 
band    20 # energy   -4.81589886 # occ.  2.00000000
 
ion      s      p      d    tot
    1  0.009  0.000  0.002  0.011
    2  0.001  0.001  0.007  0.009
    3  0.001  0.001  0.007  0.009
    4  0.001  0.001  0.007  0.009
    5  0.011  0.003  0.003  0.017
    6  0.001  0.001  0.007  0.009
    7  0.001  0.001  0.007  0.009
    8  0.001  0.001  0.007  0.009
    9  0.008  0.000  0.001  0.010
   10  0.001  0.000  0.019  0.020
   11  0.007  0.003  0.017  0.026
   12  0.001  0.000  0.019  0.020
   13  0.007  0.003  0.017  0.026
   14  0.007  0.003  0.017  0.026
   15  0.000  0.000  0.009  0.009
   16  0.001  0.000  0.019  0.020
   17  0.000  0.000  0.009  0.009
   18  0.000  0.000  0.009  0.009
   19  0.000  0.000  0.018  0.018
   20  0.016  0.001  0.006  0.022
   21  0.016  0.001  0.006  0.022
   22  0.000  0.002  0.025  0.027
   23  0.016  0.001  0.006  0.022
   24  0.000  0.002  0.025  0.027
   25  0.000  0.000  0.017  0.018
   26  0.000  0.000  0.017  0.018
   27  0.000  0.002  0.025  0.027
   28  0.012  0.000  0.003  0.014
   29  0.002  0.003  0.015  0.019
   30  0.002  0.003  0.015  0.019
   31  0.002  0.003  0.015  0.019
   32  0.002  0.003  0.015  0.019
   33  0.002  0.003  0.015  0.019
   34  0.002  0.003  0.015  0.019
   35  0.028  0.000  0.004  0.032
   36  0.002  0.017  0.056  0.075
   37  0.004  0.086  0.000  0.090
tot    0.162  0.148  0.476  0.786
 
band    21 # energy   -4.48252346 # occ.  2.00000000
 
ion      s      p      d    tot
    1  0.000  0.001  0.023  0.023
    2  0.015  0.002  0.006  0.023
    3  0.007  0.001  0.006  0.014
    4  0.015  0.002  0.006  0.023
    5  0.000  0.001  0.011  0.012
    6  0.002  0.001  0.006  0.010
    7  0.005  0.001  0.006  0.013
    8  0.002  0.001  0.006  0.009
    9  0.000  0.003  0.004  0.007
   10  0.000  0.000  0.056  0.056
   11  0.000  0.003  0.015  0.018
   12  0.000  0.000  0.020  0.020
   13  0.000  0.003  0.013  0.016
   14  0.000  0.000  0.002  0.002
   15  0.000  0.005  0.014  0.019
   16  0.000  0.000  0.016  0.017
   17  0.000  0.004  0.015  0.019
   18  0.000  0.000  0.027  0.027
   19  0.009  0.002  0.009  0.019
   20  0.000  0.000  0.061  0.062
   21  0.000  0.000  0.032  0.032
   22  0.003  0.001  0.015  0.019
   23  0.000  0.000  0.028  0.029
   24  0.000  0.001  0.005  0.006
   25  0.000  0.000  0.022  0.023
   26  0.008  0.002  0.010  0.020
   27  0.004  0.001  0.016  0.021
   28  0.000  0.000  0.005  0.005
   29  0.006  0.001  0.021  0.028
   30  0.000  0.001  0.018  0.019
   31  0.006  0.001  0.021  0.028
   32  0.006  0.000  0.020  0.027
   33  0.000  0.001  0.017  0.018
   34  0.006  0.000  0.020  0.026
   35  0.000  0.000  0.003  0.003
   36  0.000  0.000  0.102  0.102