 vasp.6.2.0 18Jan21 (build Jun 12 2021 23:27:24) complex                        
  
 executed on             LinuxIFC date 2022.05.30  17:18:27
 running on   28 total cores
 distrk:  each k-point on   28 cores,    1 groups
 distr:  one band on NCORE=   1 cores,   28 groups


--------------------------------------------------------------------------------------------------------


 INCAR:
   ISMEAR = -5
   SIGMA = 0.1
   ISPIN = 1
   EDIFF = 1.d-5
   EDIFFG = -0.01
   NSW = 0
   NELM = 150
   ENCUT = 500
   ISIF = 2
   IBRION = 2
   LREAL = Auto
   ALGO = Fast
   ICHARG = 11
   LORBIT = 10
   LCHARG = .F.
   LWAVE = .F.

 POTCAR:    PAW_PBE Ag 02Apr2005                  
 POTCAR:    PAW_PBE Nb_sv 25May2007               
 POTCAR:    PAW_PBE O 08Apr2002                   
 -----------------------------------------------------------------------------
|                                                                             |
|           W    W    AA    RRRRR   N    N  II  N    N   GGGG   !!!           |
|           W    W   A  A   R    R  NN   N  II  NN   N  G    G  !!!           |
|           W    W  A    A  R    R  N N  N  II  N N  N  G       !!!           |
|           W WW W  AAAAAA  RRRRR   N  N N  II  N  N N  G  GGG   !            |
|           WW  WW  A    A  R   R   N   NN  II  N   NN  G    G                |
|           W    W  A    A  R    R  N    N  II  N    N   GGGG   !!!           |
|                                                                             |
|     For optimal performance we recommend to set                             |
|       NCORE = 2 up to number-of-cores-per-socket                            |
|     NCORE specifies how many cores store one orbital (NPAR=cpu/NCORE).      |
|     This setting can greatly improve the performance of VASP for DFT.       |
|     The default, NCORE=1 might be grossly inefficient on modern             |
|     multi-core architectures or massively parallel machines. Do your        |
|     own testing! More info at https://www.vasp.at/wiki/index.php/NCORE      |
|     Unfortunately you need to use the default for GW and RPA                |
|     calculations (for HF NCORE is supported but not extensively tested      |
|     yet).                                                                   |
|                                                                             |
 -----------------------------------------------------------------------------

 POTCAR:    PAW_PBE Ag 02Apr2005                  
   VRHFIN =Ag : s1 d10                                                                              
   LEXCH  = PE                                                                                      
   EATOM  =  1037.2675 eV,   76.2370 Ry                                                             
                                                                                                    
   TITEL  = PAW_PBE Ag 02Apr2005                                                                    
   LULTRA =        F    use ultrasoft PP ?                                                          
   IUNSCR =        1    unscreen: 0-lin 1-nonlin 2-no                                               
   RPACOR =    2.000    partial core radius                                                         
   POMASS =  107.868; ZVAL   =   11.000    mass and valenz                                          
   RCORE  =    2.500    outmost cutoff radius                                                       
   RWIGS  =    2.840; RWIGS  =    1.503    wigner-seitz radius (au A)                               
   ENMAX  =  249.844; ENMIN  =  187.383 eV                                                          
   ICORE  =        3    local potential                                                             
   LCOR   =        T    correct aug charges                                                         
   LPAW   =        T    paw PP                                                                      
   EAUG   =  412.496                                                                                
   DEXC   =    0.000                                                                                
   RMAX   =    2.560    core radius for proj-oper                                                   
   RAUG   =    1.300    factor for augmentation sphere                                              
   RDEP   =    2.576    radius for radial grids                                                     
   RDEPT  =    2.072    core radius for aug-charge                                                  
                                                                                                    
   Atomic configuration                                                                             
   12 entries                                                                                       
     n  l   j            E        occ.                                                              
     1  0  0.50    -25324.9161   2.0000                                                             
     2  0  0.50     -3728.5341   2.0000                                                             
     2  1  1.50     -3344.0404   6.0000                                                             
     3  0  0.50      -683.5581   2.0000                                                             
     3  1  1.50      -557.3225   6.0000                                                             
     3  2  2.50      -358.3853  10.0000                                                             
     4  0  0.50       -95.0341   2.0000                                                             
     4  1  1.50       -58.5511   6.0000                                                             
     4  2  2.50        -7.4440  10.0000                                                             
     5  0  0.50        -4.4045   1.0000                                                             
     5  1  0.50        -1.3606   0.0000                                                             
     4  3  2.50        -1.3606   0.0000                                                             
   Description                                                                                      
     l       E           TYP  RCUT    TYP  RCUT                                                     
     2     -7.4439781     23  2.400                                                                 
     2     -8.8045607     23  2.400                                                                 
     0     -4.4044681     23  2.400                                                                 
     0      1.9520038     23  2.400                                                                 
     1     -1.3605826     23  2.500                                                                 
     1     27.2116520     23  2.500                                                                 
     3     -4.0817478     23  2.400                                                                 
  local pseudopotential read in
  partial core-charges read in
  partial kinetic energy density read in
  atomic valenz-charges read in
  non local Contribution for L=           2  read in
    real space projection operators read in
  non local Contribution for L=           2  read in
    real space projection operators read in
  non local Contribution for L=           0  read in
    real space projection operators read in
  non local Contribution for L=           0  read in
    real space projection operators read in
  non local Contribution for L=           1  read in
    real space projection operators read in
  non local Contribution for L=           1  read in
    real space projection operators read in
    PAW grid and wavefunctions read in
 
   number of l-projection  operators is LMAX  =           6
   number of lm-projection operators is LMMAX =          18
 
 POTCAR:    PAW_PBE Nb_sv 25May2007               
   VRHFIN =Nb: 4p5s4d                                                                               
   LEXCH  = PE                                                                                      
   EATOM  =  1555.1913 eV,  114.3033 Ry                                                             
                                                                                                    
   TITEL  = PAW_PBE Nb_sv 25May2007                                                                 
   LULTRA =        F    use ultrasoft PP ?                                                          
   IUNSCR =        1    unscreen: 0-lin 1-nonlin 2-no                                               
   RPACOR =    1.800    partial core radius                                                         
   POMASS =   92.910; ZVAL   =   13.000    mass and valenz                                          
   RCORE  =    2.400    outmost cutoff radius                                                       
   RWIGS  =    2.400; RWIGS  =    1.270    wigner-seitz radius (au A)                               
   ENMAX  =  293.235; ENMIN  =  219.927 eV                                                          
   ICORE  =        3    local potential                                                             
   LCOR   =        T    correct aug charges                                                         
   LPAW   =        T    paw PP                                                                      
   EAUG   =  455.659                                                                                
   DEXC   =    0.000                                                                                
   RMAX   =    2.456    core radius for proj-oper                                                   
   RAUG   =    1.300    factor for augmentation sphere                                              
   RDEP   =    2.451    radius for radial grids                                                     
   RDEPT  =    1.956    core radius for aug-charge                                                  
                                                                                                    
   Atomic configuration                                                                             
   11 entries                                                                                       
     n  l   j            E        occ.                                                              
     1  0  0.50    -18805.2457   2.0000                                                             
     2  0  0.50     -2630.2869   2.0000                                                             
     2  1  1.50     -2348.4046   6.0000                                                             
     3  0  0.50      -438.8757   2.0000                                                             
     3  1  1.50      -346.7588   6.0000                                                             
     3  2  2.50      -196.2560  10.0000                                                             
     4  0  0.50       -58.3859   2.0000                                                             
     5  0  0.50        -3.9816   1.0000                                                             
     4  1  1.50       -34.5141   6.0000                                                             
     4  2  2.50        -3.0408   4.0000                                                             
     4  3  2.50        -1.3606   0.0000                                                             
   Description                                                                                      
     l       E           TYP  RCUT    TYP  RCUT                                                     
     0    -58.3859094     23  2.200                                                                 
     0     -3.9816262     23  2.200                                                                 
     1    -34.5140738     23  2.200                                                                 
     1     13.6058260     23  2.200                                                                 
     2     -3.0408010     23  2.200                                                                 
     2     -0.1283038     23  2.200                                                                 
     3     -1.3605826     23  2.400                                                                 
  local pseudopotential read in
  partial core-charges read in
  partial kinetic energy density read in
  atomic valenz-charges read in
  non local Contribution for L=           0  read in
    real space projection operators read in
  non local Contribution for L=           0  read in
    real space projection operators read in
  non local Contribution for L=           1  read in
    real space projection operators read in
  non local Contribution for L=           1  read in
    real space projection operators read in
  non local Contribution for L=           2  read in
    real space projection operators read in
  non local Contribution for L=           2  read in
    real space projection operators read in
    PAW grid and wavefunctions read in
 
   number of l-projection  operators is LMAX  =           6
   number of lm-projection operators is LMMAX =          18
 
 POTCAR:    PAW_PBE O 08Apr2002                   
   VRHFIN =O: s2p4                                                                                  
   LEXCH  = PE                                                                                      
   EATOM  =   432.3788 eV,   31.7789 Ry                                                             
                                                                                                    
   TITEL  = PAW_PBE O 08Apr2002                                                                     
   LULTRA =        F    use ultrasoft PP ?                                                          
   IUNSCR =        1    unscreen: 0-lin 1-nonlin 2-no                                               
   RPACOR =    1.200    partial core radius                                                         
   POMASS =   16.000; ZVAL   =    6.000    mass and valenz                                          
   RCORE  =    1.520    outmost cutoff radius                                                       
   RWIGS  =    1.550; RWIGS  =    0.820    wigner-seitz radius (au A)                               
   ENMAX  =  400.000; ENMIN  =  300.000 eV                                                          
   ICORE  =        2    local potential                                                             
   LCOR   =        T    correct aug charges                                                         
   LPAW   =        T    paw PP                                                                      
   EAUG   =  605.392                                                                                
   DEXC   =    0.000                                                                                
   RMAX   =    1.553    core radius for proj-oper                                                   
   RAUG   =    1.300    factor for augmentation sphere                                              
   RDEP   =    1.550    radius for radial grids                                                     
   RDEPT  =    1.329    core radius for aug-charge                                                  
                                                                                                    
   Atomic configuration                                                                             
    4 entries                                                                                       
     n  l   j            E        occ.                                                              
     1  0  0.50      -514.6923   2.0000                                                             
     2  0  0.50       -23.9615   2.0000                                                             
     2  1  0.50        -9.0305   4.0000                                                             
     3  2  1.50        -9.5241   0.0000                                                             
   Description                                                                                      
     l       E           TYP  RCUT    TYP  RCUT                                                     
     0    -23.9615318     23  1.200                                                                 
     0     -9.5240782     23  1.200                                                                 
     1     -9.0304911     23  1.520                                                                 
     1      8.1634956     23  1.520                                                                 
     2     -9.5240782      7  1.500                                                                 
  local pseudopotential read in
  partial core-charges read in
  partial kinetic energy density read in
  kinetic energy density of atom read in
  atomic valenz-charges read in
  non local Contribution for L=           0  read in
    real space projection operators read in
  non local Contribution for L=           0  read in
    real space projection operators read in
  non local Contribution for L=           1  read in
    real space projection operators read in
  non local Contribution for L=           1  read in
    real space projection operators read in
    PAW grid and wavefunctions read in
 
   number of l-projection  operators is LMAX  =           4
   number of lm-projection operators is LMMAX =           8
 
 Optimization of the real space projectors (new method)

 maximal supplied QI-value         = 15.12
 optimisation between [QCUT,QGAM] = [ 11.34, 22.83] = [ 36.00,145.93] Ry 
 Optimized for a Real-space Cutoff    1.43 Angstroem

   l    n(q)    QCUT    max X(q) W(low)/X(q) W(high)/X(q)  e(spline) 
   2      9    11.338    53.897    0.16E-03    0.20E-03    0.28E-06
   2      9    11.338    52.416    0.16E-03    0.20E-03    0.29E-06
   0     10    11.338   122.045    0.31E-04    0.76E-04    0.15E-06
   0     10    11.338    73.629    0.30E-04    0.72E-04    0.15E-06
   1      9    11.338    15.255    0.20E-03    0.19E-04    0.17E-06
   1      9    11.338     9.562    0.16E-03    0.15E-04    0.14E-06
 Optimization of the real space projectors (new method)

 maximal supplied QI-value         = 15.68
 optimisation between [QCUT,QGAM] = [ 11.45, 22.90] = [ 36.71,146.85] Ry 
 Optimized for a Real-space Cutoff    1.56 Angstroem

   l    n(q)    QCUT    max X(q) W(low)/X(q) W(high)/X(q)  e(spline) 
   0     11    11.450    10.201    0.21E-04    0.96E-05    0.78E-07
   0     11    11.450     8.174    0.31E-04    0.18E-04    0.14E-06
   1     10    11.450     3.488    0.27E-04    0.12E-04    0.96E-07
   1     10    11.450     4.917    0.11E-03    0.11E-03    0.37E-06
   2     10    11.450   153.744    0.37E-03    0.81E-03    0.10E-05
   2     10    11.450   126.342    0.37E-03    0.81E-03    0.10E-05
 Optimization of the real space projectors (new method)

 maximal supplied QI-value         = 24.76
 optimisation between [QCUT,QGAM] = [ 11.39, 22.77] = [ 36.31,145.25] Ry 
 Optimized for a Real-space Cutoff    1.00 Angstroem

   l    n(q)    QCUT    max X(q) W(low)/X(q) W(high)/X(q)  e(spline) 
   0      7    11.387    20.381    0.39E-03    0.13E-02    0.15E-06
   0      7    11.387    15.268    0.42E-03    0.14E-02    0.17E-06
   1      6    11.387     5.964    0.41E-03    0.11E-02    0.17E-06
   1      6    11.387     5.382    0.39E-03    0.87E-03    0.15E-06
  PAW_PBE Ag 02Apr2005                  :
 energy of atom  1       EATOM=-1037.2675
 kinetic energy error for atom=    0.0052 (will be added to EATOM!!)
  PAW_PBE Nb_sv 25May2007               :
 energy of atom  2       EATOM=-1555.1913
 kinetic energy error for atom=    0.0069 (will be added to EATOM!!)
  PAW_PBE O 08Apr2002                   :
 energy of atom  3       EATOM= -432.3788
 kinetic energy error for atom=    0.0224 (will be added to EATOM!!)
 
 
 POSCAR: Ag-Nb-O2
  positions in direct lattice
  velocities in cartesian coordinates
 exchange correlation table for  LEXCH =        8
   RHO(1)=    0.500       N(1)  =     2000
   RHO(2)=  100.500       N(2)  =     4000

 VTST: version 3.2, (02/03/18)

 CHAIN: initializing optimizer
 
 OPT: Using VASP Conjugate-Gradient optimizer
 CHAIN: Read ICHAIN            0
 
 POSCAR: Ag-Nb-O2
  positions in direct lattice
  velocities in cartesian coordinates
 


--------------------------------------------------------------------------------------------------------


 ion  position               nearest neighbor table
   1  0.000  0.000  0.217-   2 2.93   8 2.93   7 2.93   6 2.93   4 2.93  12 2.93  16 2.93  10 2.93
                             3 2.93
   2  0.333  0.000  0.217-   1 2.93   8 2.93   9 2.93   3 2.93   4 2.93   5 2.93  10 2.93  17 2.93
                            11 2.93
   3  0.667  0.000  0.217-   9 2.93   2 2.93   5 2.93  11 2.93   7 2.93  18 2.93   1 2.93   6 2.93
                            12 2.93
   4  0.000  0.333  0.217-   5 2.93   6 2.93   2 2.93   1 2.93   7 2.93  13 2.93  15 2.93   9 2.93
                            10 2.93
   5  0.333  0.333  0.217-   4 2.93   3 2.93   7 2.93   2 2.93   8 2.93  14 2.93  13 2.93  11 2.93
                             6 2.93
   6  0.667  0.333  0.217-   4 2.93   9 2.93   1 2.93  15 2.93   8 2.93  12 2.93   3 2.93   5 2.93
                            14 2.93
   7  0.000  0.667  0.217-   8 2.93   1 2.93   5 2.93   3 2.93   4 2.93  16 2.93  18 2.93  13 2.93
                             9 2.93
   8  0.333  0.667  0.217-   7 2.93   1 2.93   2 2.93   9 2.93   5 2.93  16 2.93   6 2.93  17 2.93
                            14 2.93
   9  0.667  0.667  0.217-   3 2.93   2 2.93   8 2.93   6 2.93  17 2.93   4 2.93  15 2.93   7 2.93
                            18 2.93
  10  0.111  0.111  0.315-  20 2.90  19 2.93  26 2.93  12 2.93  16 2.93  15 2.93  17 2.93  13 2.93
                            11 2.93   2 2.93   1 2.93   4 2.93
  11  0.444  0.111  0.315-  21 2.90  20 2.90  14 2.93  17 2.93  18 2.93   3 2.93  12 2.93  13 2.93
                            10 2.93   5 2.93   2 2.93  27 2.93
  12  0.778  0.111  0.315-  21 2.90  25 2.93  19 2.93  10 2.93  16 2.93  18 2.93  15 2.93  11 2.93
                             1 2.93  14 2.93   6 2.93   3 2.93
  13  0.111  0.444  0.315-  20 2.90  23 2.90  15 2.93  14 2.93  18 2.93  10 2.93  11 2.93  16 2.93
                             4 2.93   5 2.93   7 2.93  22 2.93
  14  0.444  0.444  0.315-  23 2.90  21 2.90  13 2.93  11 2.93  16 2.93   5 2.93  12 2.93  17 2.93
                             8 2.93  15 2.93   6 2.93  24 2.93
  15  0.778  0.444  0.315-  19 2.93  13 2.93  10 2.93  12 2.93  17 2.93  18 2.93   4 2.93   6 2.93
                             9 2.93  14 2.93  24 2.93  22 2.93
  16  0.111  0.778  0.315-  23 2.90  26 2.93  25 2.93  18 2.93  12 2.93  10 2.93  14 2.93  17 2.93
                            13 2.93   7 2.93   8 2.93   1 2.93
  17  0.444  0.778  0.315-  26 2.93  11 2.93  10 2.93   9 2.93  18 2.93  15 2.93  16 2.93   2 2.93
                            14 2.93   8 2.93  27 2.93  24 2.93
  18  0.778  0.778  0.315-  25 2.93  16 2.93  12 2.93  13 2.93  11 2.93  17 2.93  15 2.93   7 2.93
                             3 2.93   9 2.93  22 2.93  27 2.93
  19  0.889  0.222  0.413-  15 2.93  10 2.93  12 2.93  20 2.93  21 2.93  28 2.93  24 2.93  22 2.93
                            26 2.93  25 2.93  32 2.97  31 2.97
  20  0.222  0.222  0.412-  36 2.82  10 2.90  13 2.90  11 2.90  19 2.93  26 2.93  27 2.93  22 2.93
                            21 2.94  23 2.94  31 2.97  29 2.97
  21  0.556  0.222  0.412-  36 2.82  12 2.90  11 2.90  14 2.90  25 2.93  19 2.93  27 2.93  24 2.93
                            20 2.94  23 2.94  30 2.97  32 2.97
  22  0.889  0.556  0.413-  24 2.93  27 2.93  25 2.93  19 2.93  18 2.93  15 2.93  23 2.93  20 2.93
                            35 2.93  13 2.93  33 2.95  31 2.95
  23  0.222  0.556  0.412-  36 2.82  16 2.90  14 2.90  13 2.90  26 2.93  25 2.93  22 2.93  24 2.93
                            21 2.94  20 2.94  34 2.97  33 2.97
  24  0.556  0.556  0.413-  27 2.93  22 2.93  19 2.93  26 2.93  15 2.93  17 2.93  23 2.93  21 2.93
                            35 2.93  14 2.93  32 2.95  34 2.95
  25  0.889  0.889  0.413-  18 2.93  16 2.93  12 2.93  23 2.93  21 2.93  28 2.93  22 2.93  27 2.93
                            26 2.93  19 2.93  33 2.97  30 2.97
  26  0.222  0.889  0.413-  17 2.93  16 2.93  10 2.93  23 2.93  20 2.93  28 2.93  27 2.93  24 2.93
                            25 2.93  19 2.93  34 2.97  29 2.97
  27  0.556  0.889  0.413-  24 2.93  22 2.93  26 2.93  25 2.93  17 2.93  18 2.93  20 2.93  21 2.93
                            35 2.93  11 2.93  29 2.95  30 2.95
  28  0.000  0.000  0.511-  26 2.93  25 2.93  19 2.93  29 2.95  34 2.95  33 2.95  32 2.95  31 2.95
                            30 2.95
  29  0.333  0.004  0.513-  30 2.90  31 2.90  36 2.91  35 2.95  28 2.95  27 2.95  20 2.97  26 2.97
                            34 2.99
  30  0.663  0.004  0.513-  29 2.90  32 2.90  36 2.91  35 2.95  28 2.95  27 2.95  21 2.97  25 2.97
                            33 2.99
  31  0.004  0.333  0.513-  37 2.70  33 2.90  29 2.90  36 2.91  35 2.95  28 2.95  22 2.95  20 2.97
                            19 2.97  32 2.99
  32  0.663  0.333  0.513-  38 2.70  34 2.90  30 2.90  36 2.91  35 2.95  28 2.95  24 2.95  21 2.97
                            19 2.97  31 2.99
  33  0.004  0.663  0.513-  31 2.90  34 2.90  36 2.91  35 2.95  28 2.95  22 2.95  23 2.97  25 2.97
                            30 2.99
  34  0.333  0.663  0.513-  32 2.90  33 2.90  36 2.91  35 2.95  28 2.95  24 2.95  23 2.97  26 2.97
                            29 2.99
  35  0.667  0.667  0.512-  24 2.93  27 2.93  22 2.93  30 2.95  29 2.95  32 2.95  34 2.95  31 2.95
                            33 2.95
  36  0.333  0.333  0.504-  37 1.97  38 1.97  21 2.82  20 2.82  23 2.82  31 2.91  33 2.91  30 2.91
                            29 2.91  34 2.91  32 2.91
  37  0.247  0.337  0.579-  38 1.49  36 1.97  31 2.70
  38  0.416  0.337  0.579-  37 1.49  36 1.97  32 2.70
 
  LATTYP: Found a hexagonal cell.
 ALAT       =     8.7913665772
 C/A-ratio  =     2.7711238095
  
  Lattice vectors:
  
 A1 = (  -4.3956832886,  -7.6135467898,   0.0000000000)
 A2 = (   8.7913665771,   0.0000000000,   0.0000000000)
 A3 = (   0.0000000000,   0.0000000000,  24.3619652401)


Analysis of symmetry for initial positions (statically):
=====================================================================
 Subroutine PRICEL returns:
 Original cell was already a primitive cell.
 

 Routine SETGRP: Setting up the symmetry group for a 
 hexagonal supercell.


 Subroutine GETGRP returns: Found  2 space group operations
 (whereof  2 operations were pure point group operations)
 out of a pool of 24 trial point group operations.


The static configuration has the point symmetry C_1h.


Analysis of symmetry for dynamics (positions and initial velocities):
=====================================================================
 Subroutine PRICEL returns:
 Original cell was already a primitive cell.
 

 Routine SETGRP: Setting up the symmetry group for a 
 hexagonal supercell.


 Subroutine GETGRP returns: Found  2 space group operations
 (whereof  2 operations were pure point group operations)
 out of a pool of 24 trial point group operations.


The dynamic configuration has the point symmetry C_1h.


Analysis of constrained symmetry for selective dynamics:
=====================================================================
 Subroutine PRICEL returns:
 Original cell was already a primitive cell.
 

 Routine SETGRP: Setting up the symmetry group for a 
 hexagonal supercell.


 Subroutine GETGRP returns: Found  2 space group operations
 (whereof  2 operations were pure point group operations)
 out of a pool of 24 trial point group operations.


The constrained configuration has the point symmetry C_1h.


 Subroutine INISYM returns: Found  2 space group operations
 (whereof  2 operations are pure point group operations),
 and found     1 'primitive' translations


----------------------------------------------------------------------------------------

                                     Primitive cell                                     

  volume of cell :    1630.6311

  direct lattice vectors                    reciprocal lattice vectors
     8.791366577  0.000000000  0.000000000     0.113747958 -0.065672414  0.000000000
     4.395683289  7.613546790  0.000000000     0.000000000  0.131344829  0.000000000
     0.000000000  0.000000000 24.361965240     0.000000000  0.000000000  0.041047592

  length of vectors
     8.791366577  8.791366577 24.361965240     0.131344829  0.131344829  0.041047592

  position of ions in fractional coordinates (direct lattice)
     0.000000000  0.000000000  0.216821102
     0.333333313  0.000000000  0.216821102
     0.666666627  0.000000000  0.216821102
     1.000000000  0.333333343  0.216821102
     0.333333313  0.333333343  0.216821102
     0.666666687  0.333333343  0.216821102
     1.000000000  0.666666687  0.216821102
     0.333333313  0.666666687  0.216821102
     0.666666627  0.666666687  0.216821102
     0.111111104  0.111111112  0.315035970
     0.444444448  0.111111112  0.315035970
     0.777777791  0.111111112  0.315035970
     0.111111097  0.444444448  0.315035970
     0.444444418  0.444444448  0.315035970
     0.777777791  0.444444448  0.315035970
     0.111111104  0.777777791  0.315035970
     0.444444448  0.777777791  0.315035970
     0.777777791  0.777777791  0.315035970
     0.888874930  0.222250156  0.412993326
     0.222002280  0.222002295  0.411811746
     0.555995379  0.222002295  0.411811746
     0.888584292  0.555707884  0.413350881
     0.222002295  0.555995439  0.411811746
     0.555707884  0.555707884  0.413350881
     0.888874930  0.888874930  0.412993326
     0.222250126  0.888874930  0.412993326
     0.555707824  0.888584292  0.413350881
     0.000000000  0.000000000  0.511139660
     0.333455740  0.003519001  0.512579943
     0.663025199  0.003519001  0.512579943
     0.003519001  0.333455770  0.512579943
     0.663025259  0.333455770  0.512579943
     0.003519001  0.663025259  0.512579943
     0.333455740  0.663025259  0.512579943
     0.666666627  0.666666687  0.511749101
     0.333333313  0.333333343  0.504444539
     0.246749979  0.337300997  0.579169075
     0.415948993  0.337300997  0.579169075

  ion indices of the primitive-cell ions
   primitive index   ion index
                 1           1
                 2           2
                 3           3
                 4           4
                 5           5
                 6           6
                 7           7
                 8           8
                 9           9
                10          10
                11          11
                12          12
                13          13
                14          14
                15          15
                16          16
                17          17
                18          18
                19          19
                20          20
                21          21
                22          22
                23          23
                24          24
                25          25
                26          26
                27          27
                28          28
                29          29
                30          30
                31          31
                32          32
                33          33
                34          34
                35          35
                36          36
                37          37
                38          38

----------------------------------------------------------------------------------------

 
 
 KPOINTS: Automatic mesh                          

Automatic generation of k-mesh.
 Grid dimensions read from file:
 generate k-points for:    8    8    1

 Generating k-lattice:

  Cartesian coordinates                     Fractional coordinates (reciprocal lattice)
     0.014218495 -0.008209052  0.000000000     0.125000000 -0.000000000  0.000000000
     0.000000000  0.016418104  0.000000000     0.000000000  0.125000000  0.000000000
     0.000000000  0.000000000  0.041047592     0.000000000  0.000000000  1.000000000

  Length of vectors
     0.016418104  0.016418104  0.041047592

  Shift w.r.t. Gamma in fractional coordinates (k-lattice)
     0.000000000  0.000000000  0.000000000

 TETIRR: Found    100 inequivalent tetrahedra from      384
 
 Subroutine IBZKPT returns following result:
 ===========================================
 
 Found     21 irreducible k-points:
 
 Following reciprocal coordinates:
            Coordinates               Weight
  0.000000  0.000000  0.000000      1.000000
  0.125000  0.000000  0.000000      4.000000
  0.000000  0.125000  0.000000      2.000000
  0.250000  0.000000  0.000000      4.000000
  0.000000  0.250000  0.000000      2.000000
  0.375000 -0.000000  0.000000      4.000000
  0.000000  0.375000  0.000000      2.000000
  0.500000  0.000000  0.000000      2.000000
  0.000000  0.500000  0.000000      1.000000
  0.250000  0.125000  0.000000      2.000000
  0.125000  0.250000  0.000000      4.000000
  0.375000  0.125000  0.000000      4.000000
  0.250000  0.375000  0.000000      4.000000
 -0.125000  0.250000  0.000000      4.000000
  0.500000  0.125000  0.000000      4.000000
  0.375000  0.500000  0.000000      4.000000
 -0.125000  0.375000  0.000000      4.000000
  0.500000  0.250000  0.000000      2.000000
  0.250000  0.500000  0.000000      4.000000
 -0.375000  0.250000  0.000000      4.000000
 -0.250000  0.375000  0.000000      2.000000
 
 Following cartesian coordinates:
            Coordinates               Weight
  0.000000  0.000000  0.000000      1.000000
  0.014218 -0.008209  0.000000      4.000000
  0.000000  0.016418  0.000000      2.000000
  0.028437 -0.016418  0.000000      4.000000
  0.000000  0.032836  0.000000      2.000000
  0.042655 -0.024627  0.000000      4.000000
  0.000000  0.049254  0.000000      2.000000
  0.056874 -0.032836  0.000000      2.000000
  0.000000  0.065672  0.000000      1.000000
  0.028437 -0.000000  0.000000      2.000000
  0.014218  0.024627  0.000000      4.000000
  0.042655 -0.008209  0.000000      4.000000
  0.028437  0.032836  0.000000      4.000000
 -0.014218  0.041045  0.000000      4.000000
  0.056874 -0.016418  0.000000      4.000000
  0.042655  0.041045  0.000000      4.000000
 -0.014218  0.057463  0.000000      4.000000
  0.056874 -0.000000  0.000000      2.000000
  0.028437  0.049254  0.000000      4.000000
 -0.042655  0.057463  0.000000      4.000000
 -0.028437  0.065672  0.000000      2.000000
 


--------------------------------------------------------------------------------------------------------




 Dimension of arrays:
   k-points           NKPTS =     21   k-points in BZ     NKDIM =     21   number of bands    NBANDS=    252
   number of dos      NEDOS =    301   number of ions     NIONS =     38
   non local maximal  LDIM  =      6   non local SUM 2l+1 LMDIM =     18
   total plane-waves  NPLWV = 322560
   max r-space proj   IRMAX =   3221   max aug-charges    IRDMAX=   9925
   dimension x,y,z NGX =    48 NGY =   48 NGZ =  140
   dimension x,y,z NGXF=    96 NGYF=   96 NGZF=  280
   support grid    NGXF=    96 NGYF=   96 NGZF=  280
   ions per type =              35   1   2
   NGX,Y,Z   is equivalent  to a cutoff of   9.08,  9.08,  9.55 a.u.
   NGXF,Y,Z  is equivalent  to a cutoff of  18.15, 18.15, 19.11 a.u.

 SYSTEM =  unknown system                          
 POSCAR =  Ag-Nb-O2                                

 Startparameter for this run:
   NWRITE =      2    write-flag & timer
   PREC   = normal    normal or accurate (medium, high low for compatibility)
   ISTART =      0    job   : 0-new  1-cont  2-samecut
   ICHARG =     11    charge: 1-file 2-atom 10-const
   ISPIN  =      1    spin polarized calculation?
   LNONCOLLINEAR =      F non collinear calculations
   LSORBIT =      F    spin-orbit coupling
   INIWAV =      1    electr: 0-lowe 1-rand  2-diag
   LASPH  =      F    aspherical Exc in radial PAW
   METAGGA=      F    non-selfconsistent MetaGGA calc.

 Electronic Relaxation 1
   ENCUT  =  500.0 eV  36.75 Ry    6.06 a.u.  16.03 16.03 44.42*2*pi/ulx,y,z
   ENINI  =  500.0     initial cutoff
   ENAUG  =  605.4 eV  augmentation charge cutoff
   NELM   =    150;   NELMIN=  2; NELMDL= -5     # of ELM steps 
   EDIFF  = 0.1E-04   stopping-criterion for ELM
   LREAL  =      T    real-space projection
   NLSPLINE    = F    spline interpolate recip. space projectors
   LCOMPAT=      F    compatible to vasp.4.4
   GGA_COMPAT  = T    GGA compatible to vasp.4.4-vasp.4.6
   LMAXPAW     = -100 max onsite density
   LMAXMIX     =    2 max onsite mixed and CHGCAR
   VOSKOWN=      0    Vosko Wilk Nusair interpolation
   ROPT   =   -0.00050  -0.00050  -0.00050
 Ionic relaxation
   EDIFFG = -.1E-01   stopping-criterion for IOM
   NSW    =      0    number of steps for IOM
   NBLOCK =      1;   KBLOCK =      1    inner block; outer block 
   IBRION =     -1    ionic relax: 0-MD 1-quasi-New 2-CG
   NFREE  =      1    steps in history (QN), initial steepest desc. (CG)
   ISIF   =      2    stress and relaxation
   IWAVPR =     10    prediction:  0-non 1-charg 2-wave 3-comb
   ISYM   =      2    0-nonsym 1-usesym 2-fastsym
   LCORR  =      T    Harris-Foulkes like correction to forces

   POTIM  = 0.5000    time-step for ionic-motion
   TEIN   =    0.0    initial temperature
   TEBEG  =    0.0;   TEEND  =   0.0 temperature during run
   SMASS  =  -3.00    Nose mass-parameter (am)
   estimated Nose-frequenzy (Omega)   =  0.10E-29 period in steps = 0.13E+47 mass=  -0.177E-26a.u.
   SCALEE = 1.0000    scale energy and forces
   NPACO  =    256;   APACO  = 16.0  distance and # of slots for P.C.
   PSTRESS=    0.0 pullay stress

  Mass of Ions in am
   POMASS = 107.87 92.91 16.00
  Ionic Valenz
   ZVAL   =  11.00 13.00  6.00
  Atomic Wigner-Seitz radii
   RWIGS  =  -1.00 -1.00 -1.00
  virtual crystal weights 
   VCA    =   1.00  1.00  1.00
   NELECT =     410.0000    total number of electrons
   NUPDOWN=      -1.0000    fix difference up-down

 DOS related values:
   EMIN   =  10.00;   EMAX   =-10.00  energy-range for DOS
   EFERMI =   0.00
   ISMEAR =    -5;   SIGMA  =   0.10  broadening in eV -4-tet -1-fermi 0-gaus

 Electronic relaxation 2 (details)
   IALGO  =     68    algorithm
   LDIAG  =      T    sub-space diagonalisation (order eigenvalues)
   LSUBROT=      F    optimize rotation matrix (better conditioning)
   TURBO    =      0    0=normal 1=particle mesh
   IRESTART =      0    0=no restart 2=restart with 2 vectors
   NREBOOT  =      0    no. of reboots
   NMIN     =      0    reboot dimension
   EREF     =   0.00    reference energy to select bands
   IMIX   =      4    mixing-type and parameters
     AMIX     =   0.40;   BMIX     =  1.00
     AMIX_MAG =   1.60;   BMIX_MAG =  1.00
     AMIN     =   0.10
     WC   =   100.;   INIMIX=   1;  MIXPRE=   1;  MAXMIX= -45

 Intra band minimization:
   WEIMIN = 0.0000     energy-eigenvalue tresh-hold
   EBREAK =  0.99E-08  absolut break condition
   DEPER  =   0.30     relativ break condition  

   TIME   =   0.40     timestep for ELM

  volume/ion in A,a.u.               =      42.91       289.58
  Fermi-wavevector in a.u.,A,eV,Ry     =   1.033279  1.952614 14.526467  1.067665
  Thomas-Fermi vector in A             =   2.167518
 
 Write flags
   LWAVE        =      F    write WAVECAR
   LDOWNSAMPLE  =      F    k-point downsampling of WAVECAR
   LCHARG       =      F    write CHGCAR
   LVTOT        =      F    write LOCPOT, total local potential
   LVHAR        =      F    write LOCPOT, Hartree potential only
   LELF         =      F    write electronic localiz. function (ELF)
   LORBIT       =     10    0 simple, 1 ext, 2 COOP (PROOUT), +10 PAW based schemes


 Dipole corrections
   LMONO  =      F    monopole corrections only (constant potential shift)
   LDIPOL =      F    correct potential (dipole corrections)
   IDIPOL =      0    1-x, 2-y, 3-z, 4-all directions 
   EPSILON=  1.0000000 bulk dielectric constant

 Exchange correlation treatment:
   GGA     =    --    GGA type
   LEXCH   =     8    internal setting for exchange type
   VOSKOWN=      0    Vosko Wilk Nusair interpolation
   LHFCALC =     F    Hartree Fock is set to
   LHFONE  =     F    Hartree Fock one center treatment
   AEXX    =    0.0000 exact exchange contribution

 Linear response parameters
   LEPSILON=     F    determine dielectric tensor
   LRPA    =     F    only Hartree local field effects (RPA)
   LNABLA  =     F    use nabla operator in PAW spheres
   LVEL    =     F    velocity operator in full k-point grid
   LINTERFAST=   F  fast interpolation
   KINTER  =     0    interpolate to denser k-point grid
   CSHIFT  =0.1000    complex shift for real part using Kramers Kronig
   OMEGAMAX=  -1.0    maximum frequency
   DEG_THRESHOLD= 0.2000000E-02 threshold for treating states as degnerate
   RTIME   =   -0.100 relaxation time in fs
  (WPLASMAI=    0.000 imaginary part of plasma frequency in eV, 0.658/RTIME)
   DFIELD  = 0.0000000 0.0000000 0.0000000 field for delta impulse in time
 
 Orbital magnetization related:
   ORBITALMAG=     F  switch on orbital magnetization
   LCHIMAG   =     F  perturbation theory with respect to B field
   DQ        =  0.001000  dq finite difference perturbation B field
   LLRAUG    =     F  two centre corrections for induced B field



--------------------------------------------------------------------------------------------------------


 Static calculation
 charge density and potential remain constant during run
 non-spin polarized calculation
 RMM-DIIS sequential band-by-band and
  variant of blocked Davidson during initial phase
 perform sub-space diagonalisation
    before iterative eigenvector-optimisation
 no mixing
 using additional bands           47
 real space projection scheme for non local part
 use partial core corrections
 calculate Harris-corrections to forces 
   (improved forces if not selfconsistent)
 use gradient corrections 
 WARNING: stress and forces are not correct
  (second derivative of E(xc) not defined)
 use of overlap-Matrix (Vanderbilt PP)
 Fermi weights with tetrahedron method with Bloechl corrections


--------------------------------------------------------------------------------------------------------


  energy-cutoff  :      500.00
  volume of cell :     1630.63
      direct lattice vectors                 reciprocal lattice vectors
     8.791366577  0.000000000  0.000000000     0.113747958 -0.065672414  0.000000000
     4.395683289  7.613546790  0.000000000     0.000000000  0.131344829  0.000000000
     0.000000000  0.000000000 24.361965240     0.000000000  0.000000000  0.041047592

  length of vectors
     8.791366577  8.791366577 24.361965240     0.131344829  0.131344829  0.041047592


 
 k-points in units of 2pi/SCALE and weight: Automatic mesh                          
   0.00000000  0.00000000  0.00000000       0.016
   0.01421849 -0.00820905  0.00000000       0.062
   0.00000000  0.01641810  0.00000000       0.031
   0.02843699 -0.01641810  0.00000000       0.062
   0.00000000  0.03283621  0.00000000       0.031
   0.04265548 -0.02462716  0.00000000       0.062
   0.00000000  0.04925431  0.00000000       0.031
   0.05687398 -0.03283621  0.00000000       0.031
   0.00000000  0.06567241  0.00000000       0.016
   0.02843699 -0.00000000  0.00000000       0.031
   0.01421849  0.02462716  0.00000000       0.062
   0.04265548 -0.00820905  0.00000000       0.062
   0.02843699  0.03283621  0.00000000       0.062
  -0.01421849  0.04104526  0.00000000       0.062
   0.05687398 -0.01641810  0.00000000       0.062
   0.04265548  0.04104526  0.00000000       0.062
  -0.01421849  0.05746336  0.00000000       0.062
   0.05687398 -0.00000000  0.00000000       0.031
   0.02843699  0.04925431  0.00000000       0.062
  -0.04265548  0.05746336  0.00000000       0.062
  -0.02843699  0.06567241  0.00000000       0.031
 
 k-points in reciprocal lattice and weights: Automatic mesh                          
   0.00000000  0.00000000  0.00000000       0.016
   0.12500000  0.00000000  0.00000000       0.062
   0.00000000  0.12500000  0.00000000       0.031
   0.25000000  0.00000000  0.00000000       0.062
   0.00000000  0.25000000  0.00000000       0.031
   0.37500000 -0.00000000  0.00000000       0.062
   0.00000000  0.37500000  0.00000000       0.031
   0.50000000  0.00000000  0.00000000       0.031
   0.00000000  0.50000000  0.00000000       0.016
   0.25000000  0.12500000  0.00000000       0.031
   0.12500000  0.25000000  0.00000000       0.062
   0.37500000  0.12500000  0.00000000       0.062
   0.25000000  0.37500000  0.00000000       0.062
  -0.12500000  0.25000000  0.00000000       0.062
   0.50000000  0.12500000  0.00000000       0.062
   0.37500000  0.50000000  0.00000000       0.062
  -0.12500000  0.37500000  0.00000000       0.062
   0.50000000  0.25000000  0.00000000       0.031
   0.25000000  0.50000000  0.00000000       0.062
  -0.37500000  0.25000000  0.00000000       0.062
  -0.25000000  0.37500000  0.00000000       0.031
 
 position of ions in fractional coordinates (direct lattice) 
   0.00000000  0.00000000  0.21682110
   0.33333331  0.00000000  0.21682110
   0.66666663  0.00000000  0.21682110
   0.00000000  0.33333334  0.21682110
   0.33333331  0.33333334  0.21682110
   0.66666669  0.33333334  0.21682110
   0.00000000  0.66666669  0.21682110
   0.33333331  0.66666669  0.21682110
   0.66666663  0.66666669  0.21682110
   0.11111110  0.11111111  0.31503597
   0.44444445  0.11111111  0.31503597
   0.77777779  0.11111111  0.31503597
   0.11111110  0.44444445  0.31503597
   0.44444442  0.44444445  0.31503597
   0.77777779  0.44444445  0.31503597
   0.11111110  0.77777779  0.31503597
   0.44444445  0.77777779  0.31503597
   0.77777779  0.77777779  0.31503597
   0.88887493  0.22225016  0.41299333
   0.22200228  0.22200230  0.41181175
   0.55599538  0.22200230  0.41181175
   0.88858429  0.55570788  0.41335088
   0.22200230  0.55599544  0.41181175
   0.55570788  0.55570788  0.41335088
   0.88887493  0.88887493  0.41299333
   0.22225013  0.88887493  0.41299333
   0.55570782  0.88858429  0.41335088
   0.00000000  0.00000000  0.51113966
   0.33345574  0.00351900  0.51257994
   0.66302520  0.00351900  0.51257994
   0.00351900  0.33345577  0.51257994
   0.66302526  0.33345577  0.51257994
   0.00351900  0.66302526  0.51257994
   0.33345574  0.66302526  0.51257994
   0.66666663  0.66666669  0.51174910
   0.33333331  0.33333334  0.50444454
   0.24674998  0.33730100  0.57916907
   0.41594899  0.33730100  0.57916907
 
 position of ions in cartesian coordinates  (Angst):
   0.00000000  0.00000000  5.28218814
   2.93045535  0.00000000  5.28218814
   5.86091070  0.00000000  5.28218814
   1.46522781  2.53784900  5.28218814
   4.39568315  2.53784900  5.28218814
   7.32613904  2.53784900  5.28218814
   2.93045562  5.07569801  5.28218814
   5.86091096  5.07569801  5.28218814
   8.79136632  5.07569801  5.28218814
   1.46522770  0.84594965  7.67489535
   4.39568332  0.84594965  7.67489535
   7.32613893  0.84594965  7.67489535
   2.93045542  3.38379860  7.67489535
   5.86091083  3.38379860  7.67489535
   8.79136671  3.38379860  7.67489535
   4.39568328  5.92164760  7.67489535
   7.32613890  5.92164760  7.67489535
  10.25659451  5.92164760  7.67489535
   8.79136665  1.69211196 10.06132904
   2.92755521  1.69022486 10.03254343
   5.86381097  1.69022486 10.03254343
  10.25458610  4.23090798 10.07003980
   4.39568342  4.23309729 10.03254343
   7.32814758  4.23090798 10.07003980
  11.72163802  6.76749087 10.06132904
   5.86109501  6.76749087 10.06132904
   8.79136631  6.76527808 10.07003980
   0.00000000  0.00000000 12.45236662
   2.94700006  0.02679208 12.48745475
   5.84436599  0.02679208 12.48745475
   1.49670278  2.53878110 12.48745475
   7.29466406  2.53878110 12.48745475
   2.94538588  5.04797383 12.48745475
   5.84598070  5.04797383 12.48745475
   8.79136632  5.07569801 12.46721382
   4.39568315  2.53784900 12.28926033
   3.65193787  2.56805693 14.10969687
   5.13942843  2.56805693 14.10969687
 


--------------------------------------------------------------------------------------------------------


 k-point   1 :   0.0000 0.0000 0.0000  plane waves:   41267
 k-point   2 :   0.1250 0.0000 0.0000  plane waves:   41346
 k-point   3 :   0.0000 0.1250 0.0000  plane waves:   41346
 k-point   4 :   0.2500 0.0000 0.0000  plane waves:   41360
 k-point   5 :   0.0000 0.2500 0.0000  plane waves:   41360
 k-point   6 :   0.3750-0.0000 0.0000  plane waves:   41412
 k-point   7 :   0.0000 0.3750 0.0000  plane waves:   41412
 k-point   8 :   0.5000 0.0000 0.0000  plane waves:   41412
 k-point   9 :   0.0000 0.5000 0.0000  plane waves:   41412
 k-point  10 :   0.2500 0.1250 0.0000  plane waves:   41336
 k-point  11 :   0.1250 0.2500 0.0000  plane waves:   41336
 k-point  12 :   0.3750 0.1250 0.0000  plane waves:   41420
 k-point  13 :   0.2500 0.3750 0.0000  plane waves:   41420
 k-point  14 :  -0.1250 0.2500 0.0000  plane waves:   41420
 k-point  15 :   0.5000 0.1250 0.0000  plane waves:   41406
 k-point  16 :   0.3750 0.5000 0.0000  plane waves:   41406
 k-point  17 :  -0.1250 0.3750 0.0000  plane waves:   41406
 k-point  18 :   0.5000 0.2500 0.0000  plane waves:   41444
 k-point  19 :   0.2500 0.5000 0.0000  plane waves:   41444
 k-point  20 :  -0.3750 0.2500 0.0000  plane waves:   41438
 k-point  21 :  -0.2500 0.3750 0.0000  plane waves:   41438

 maximum and minimum number of plane-waves per node :     41444    41267

 maximum number of plane-waves:     41444
 maximum index in each direction: 
   IXMAX=   16   IYMAX=   16   IZMAX=   44
   IXMIN=  -16   IYMIN=  -16   IZMIN=  -44


 serial   3D FFT for wavefunctions
 parallel 3D FFT for charge:
    minimum data exchange during FFTs selected (reduces bandwidth)


 total amount of memory used by VASP MPI-rank0   198460. kBytes
=======================================================================

   base      :      30000. kBytes
   nonlr-proj:      15774. kBytes
   fftplans  :       4808. kBytes
   grid      :      19857. kBytes
   one-center:        590. kBytes
   wavefun   :     127431. kBytes
 
     INWAV:  cpu time    0.0000: real time    0.0000
 initial charge density was supplied:
 number of electron     410.0000091 magnetization 
 keeping initial charge density in first step


--------------------------------------------------------------------------------------------------------


 Maximum index for non-local projection operator         3090
 Maximum index for augmentation-charges          717 (set IRDMAX)


--------------------------------------------------------------------------------------------------------


 First call to EWALD:  gamma=   0.151
 Maximum number of real-space cells 4x 4x 2
 Maximum number of reciprocal cells 2x 2x 5

    FEWALD:  cpu time    0.0013: real time    0.0013


--------------------------------------- Iteration      1(   1)  ---------------------------------------


    POTLOK:  cpu time    0.0475: real time    0.0479
    SETDIJ:  cpu time    0.0046: real time    0.0047
     EDDAV:  cpu time   16.5116: real time   16.5133
 BZINTS: Fermi energy:    9.655742;  410.000000 electrons
         Band energy: 0.867794E+03;  BLOECHL correction:   -0.045231
       DOS:  cpu time    0.0294: real time    0.0294
    --------------------------------------------
      LOOP:  cpu time   16.5930: real time   16.5953

 eigenvalue-minimisations  : 10640
 total energy-change (2. order) : 0.2625568E+04  (-0.1899772E+05)
 number of electron     410.0000091 magnetization 
 augmentation part      410.0000091 magnetization 

 Free energy of the ion-electron system (eV)
  ---------------------------------------------------
  alpha Z        PSCENC =       720.95881568
  Ewald energy   TEWEN  =    133422.99323393
  -Hartree energ DENC   =   -172385.74469601
  -exchange      EXHF   =         0.00000000
  -V(xc)+E(xc)   XCENC  =      -277.36941909
  PAW double counting   =     40600.14833301   -39047.29014596
  entropy T*S    EENTRO =         0.00000000
  eigenvalues    EBANDS =       867.79417347
  atomic energy  EATOM  =     38724.07814206
  Solvation  Ediel_sol  =         0.00000000
  ---------------------------------------------------
  free energy    TOTEN  =      2625.56843710 eV

  energy without entropy =     2625.56843710  energy(sigma->0) =     2625.56843710


--------------------------------------------------------------------------------------------------------




--------------------------------------- Iteration      1(   2)  ---------------------------------------


     EDDAV:  cpu time   17.3373: real time   17.3375
 BZINTS: Fermi energy:    1.267714;  410.000000 electrons
         Band energy:-0.174030E+04;  BLOECHL correction:   -0.018915
       DOS:  cpu time    0.0287: real time    0.0287
    --------------------------------------------
      LOOP:  cpu time   17.3660: real time   17.3661

 eigenvalue-minimisations  : 11200
 total energy-change (2. order) :-0.2608099E+04  (-0.2507708E+04)
 number of electron     410.0000091 magnetization 
 augmentation part      410.0000091 magnetization 

 Free energy of the ion-electron system (eV)
  ---------------------------------------------------
  alpha Z        PSCENC =       720.95881568
  Ewald energy   TEWEN  =    133422.99323393
  -Hartree energ DENC   =   -172385.74469601
  -exchange      EXHF   =         0.00000000
  -V(xc)+E(xc)   XCENC  =      -277.36941909
  PAW double counting   =     40600.14833301   -39047.29014596
  entropy T*S    EENTRO =         0.00000000
  eigenvalues    EBANDS =     -1740.30481907
  atomic energy  EATOM  =     38724.07814206
  Solvation  Ediel_sol  =         0.00000000
  ---------------------------------------------------
  free energy    TOTEN  =        17.46944456 eV

  energy without entropy =       17.46944456  energy(sigma->0) =       17.46944456


--------------------------------------------------------------------------------------------------------




--------------------------------------- Iteration      1(   3)  ---------------------------------------


     EDDAV:  cpu time   21.2382: real time   21.2384
 BZINTS: Fermi energy:    0.474312;  410.000000 electrons
         Band energy:-0.186339E+04;  BLOECHL correction:   -0.043032
       DOS:  cpu time    0.0307: real time    0.0307
    --------------------------------------------
      LOOP:  cpu time   21.2689: real time   21.2691

 eigenvalue-minimisations  : 14336
 total energy-change (2. order) :-0.1230877E+03  (-0.1204746E+03)
 number of electron     410.0000091 magnetization 
 augmentation part      410.0000091 magnetization 

 Free energy of the ion-electron system (eV)
  ---------------------------------------------------
  alpha Z        PSCENC =       720.95881568
  Ewald energy   TEWEN  =    133422.99323393
  -Hartree energ DENC   =   -172385.74469601
  -exchange      EXHF   =         0.00000000
  -V(xc)+E(xc)   XCENC  =      -277.36941909
  PAW double counting   =     40600.14833301   -39047.29014596
  entropy T*S    EENTRO =         0.00000000
  eigenvalues    EBANDS =     -1863.39253875
  atomic energy  EATOM  =     38724.07814206
  Solvation  Ediel_sol  =         0.00000000
  ---------------------------------------------------
  free energy    TOTEN  =      -105.61827512 eV

  energy without entropy =     -105.61827512  energy(sigma->0) =     -105.61827512


--------------------------------------------------------------------------------------------------------




--------------------------------------- Iteration      1(   4)  ---------------------------------------


     EDDAV:  cpu time   21.5953: real time   21.5955
 BZINTS: Fermi energy:    0.394725;  410.000000 electrons
         Band energy:-0.186734E+04;  BLOECHL correction:   -0.031653
       DOS:  cpu time    0.0310: real time    0.0310
    --------------------------------------------
      LOOP:  cpu time   21.6262: real time   21.6265

 eigenvalue-minimisations  : 14644
 total energy-change (2. order) :-0.3945094E+01  (-0.3903821E+01)
 number of electron     410.0000091 magnetization 
 augmentation part      410.0000091 magnetization 

 Free energy of the ion-electron system (eV)
  ---------------------------------------------------
  alpha Z        PSCENC =       720.95881568
  Ewald energy   TEWEN  =    133422.99323393
  -Hartree energ DENC   =   -172385.74469601
  -exchange      EXHF   =         0.00000000
  -V(xc)+E(xc)   XCENC  =      -277.36941909
  PAW double counting   =     40600.14833301   -39047.29014596
  entropy T*S    EENTRO =         0.00000000
  eigenvalues    EBANDS =     -1867.33763241
  atomic energy  EATOM  =     38724.07814206
  Solvation  Ediel_sol  =         0.00000000
  ---------------------------------------------------
  free energy    TOTEN  =      -109.56336878 eV

  energy without entropy =     -109.56336878  energy(sigma->0) =     -109.56336878


--------------------------------------------------------------------------------------------------------




--------------------------------------- Iteration      1(   5)  ---------------------------------------


     EDDAV:  cpu time   20.3874: real time   20.3876
 BZINTS: Fermi energy:    0.393162;  410.000000 electrons
         Band energy:-0.186745E+04;  BLOECHL correction:   -0.031613
       DOS:  cpu time    0.0309: real time    0.0309
    --------------------------------------------
      LOOP:  cpu time   20.4184: real time   20.4185

 eigenvalue-minimisations  : 13720
 total energy-change (2. order) :-0.1154634E+00  (-0.1153394E+00)
 number of electron     410.0000091 magnetization 
 augmentation part      410.0000091 magnetization 

 Free energy of the ion-electron system (eV)
  ---------------------------------------------------
  alpha Z        PSCENC =       720.95881568
  Ewald energy   TEWEN  =    133422.99323393
  -Hartree energ DENC   =   -172385.74469601
  -exchange      EXHF   =         0.00000000
  -V(xc)+E(xc)   XCENC  =      -277.36941909
  PAW double counting   =     40600.14833301   -39047.29014596
  entropy T*S    EENTRO =         0.00000000
  eigenvalues    EBANDS =     -1867.45309580
  atomic energy  EATOM  =     38724.07814206
  Solvation  Ediel_sol  =         0.00000000
  ---------------------------------------------------
  free energy    TOTEN  =      -109.67883216 eV

  energy without entropy =     -109.67883216  energy(sigma->0) =     -109.67883216


--------------------------------------------------------------------------------------------------------




--------------------------------------- Iteration      1(   6)  ---------------------------------------


    EDDIAG:  cpu time    3.3350: real time    3.3353
  RMM-DIIS:  cpu time   13.9828: real time   13.9828
    ORTHCH:  cpu time    0.5876: real time    0.5876
 BZINTS: Fermi energy:    0.393124;  410.000000 electrons
         Band energy:-0.186746E+04;  BLOECHL correction:   -0.031612
       DOS:  cpu time    0.0309: real time    0.0309
    --------------------------------------------
      LOOP:  cpu time   17.9363: real time   17.9366

 eigenvalue-minimisations  : 15412
 total energy-change (2. order) :-0.2321921E-02  (-0.2320401E-02)
 number of electron     410.0000091 magnetization 
 augmentation part      410.0000091 magnetization 

 Free energy of the ion-electron system (eV)
  ---------------------------------------------------
  alpha Z        PSCENC =       720.95881568
  Ewald energy   TEWEN  =    133422.99323393
  -Hartree energ DENC   =   -172385.74469601
  -exchange      EXHF   =         0.00000000
  -V(xc)+E(xc)   XCENC  =      -277.36941909
  PAW double counting   =     40600.14833301   -39047.29014596
  entropy T*S    EENTRO =         0.00000000
  eigenvalues    EBANDS =     -1867.45541772
  atomic energy  EATOM  =     38724.07814206
  Solvation  Ediel_sol  =         0.00000000
  ---------------------------------------------------
  free energy    TOTEN  =      -109.68115408 eV

  energy without entropy =     -109.68115408  energy(sigma->0) =     -109.68115408


--------------------------------------------------------------------------------------------------------




--------------------------------------- Iteration      1(   7)  ---------------------------------------


    EDDIAG:  cpu time    3.3461: real time    3.3462
  RMM-DIIS:  cpu time   18.2727: real time   18.2727
    ORTHCH:  cpu time    0.5865: real time    0.5865
 BZINTS: Fermi energy:    0.393107;  410.000000 electrons
         Band energy:-0.186746E+04;  BLOECHL correction:   -0.031611
       DOS:  cpu time    0.0303: real time    0.0303
    --------------------------------------------
      LOOP:  cpu time   22.2355: real time   22.2356

 eigenvalue-minimisations  : 20469
 total energy-change (2. order) :-0.9206912E-03  (-0.9279025E-03)
 number of electron     410.0000091 magnetization 
 augmentation part      410.0000091 magnetization 

 Free energy of the ion-electron system (eV)
  ---------------------------------------------------
  alpha Z        PSCENC =       720.95881568
  Ewald energy   TEWEN  =    133422.99323393
  -Hartree energ DENC   =   -172385.74469601
  -exchange      EXHF   =         0.00000000
  -V(xc)+E(xc)   XCENC  =      -277.36941909
  PAW double counting   =     40600.14833301   -39047.29014596
  entropy T*S    EENTRO =         0.00000000
  eigenvalues    EBANDS =     -1867.45633841
  atomic energy  EATOM  =     38724.07814206
  Solvation  Ediel_sol  =         0.00000000
  ---------------------------------------------------
  free energy    TOTEN  =      -109.68207478 eV

  energy without entropy =     -109.68207478  energy(sigma->0) =     -109.68207478


--------------------------------------------------------------------------------------------------------




--------------------------------------- Iteration      1(   8)  ---------------------------------------


    EDDIAG:  cpu time    3.3468: real time    3.3470
  RMM-DIIS:  cpu time   16.8284: real time   16.8284
    ORTHCH:  cpu time    0.5871: real time    0.5871
 BZINTS: Fermi energy:    0.393104;  410.000000 electrons
         Band energy:-0.186746E+04;  BLOECHL correction:   -0.031611
       DOS:  cpu time    0.0289: real time    0.0289
    --------------------------------------------
      LOOP:  cpu time   20.7912: real time   20.7914

 eigenvalue-minimisations  : 18776
 total energy-change (2. order) :-0.2897464E-03  (-0.2840956E-03)
 number of electron     410.0000091 magnetization 
 augmentation part      410.0000091 magnetization 

 Free energy of the ion-electron system (eV)
  ---------------------------------------------------
  alpha Z        PSCENC =       720.95881568
  Ewald energy   TEWEN  =    133422.99323393
  -Hartree energ DENC   =   -172385.74469601
  -exchange      EXHF   =         0.00000000
  -V(xc)+E(xc)   XCENC  =      -277.36941909
  PAW double counting   =     40600.14833301   -39047.29014596
  entropy T*S    EENTRO =         0.00000000
  eigenvalues    EBANDS =     -1867.45662815
  atomic energy  EATOM  =     38724.07814206
  Solvation  Ediel_sol  =         0.00000000
  ---------------------------------------------------
  free energy    TOTEN  =      -109.68236452 eV

  energy without entropy =     -109.68236452  energy(sigma->0) =     -109.68236452


--------------------------------------------------------------------------------------------------------




--------------------------------------- Iteration      1(   9)  ---------------------------------------


    EDDIAG:  cpu time    3.3387: real time    3.3389
  RMM-DIIS:  cpu time   14.7984: real time   14.7985
    ORTHCH:  cpu time    0.5868: real time    0.5868
 BZINTS: Fermi energy:    0.393102;  410.000000 electrons
         Band energy:-0.186746E+04;  BLOECHL correction:   -0.031611
       DOS:  cpu time    0.0296: real time    0.0296
    --------------------------------------------
      LOOP:  cpu time   18.7535: real time   18.7538

 eigenvalue-minimisations  : 15963
 total energy-change (2. order) :-0.1238219E-03  (-0.1234564E-03)
 number of electron     410.0000091 magnetization 
 augmentation part      410.0000091 magnetization 

 Free energy of the ion-electron system (eV)
  ---------------------------------------------------
  alpha Z        PSCENC =       720.95881568
  Ewald energy   TEWEN  =    133422.99323393
  -Hartree energ DENC   =   -172385.74469601
  -exchange      EXHF   =         0.00000000
  -V(xc)+E(xc)   XCENC  =      -277.36941909
  PAW double counting   =     40600.14833301   -39047.29014596
  entropy T*S    EENTRO =         0.00000000
  eigenvalues    EBANDS =     -1867.45675198
  atomic energy  EATOM  =     38724.07814206
  Solvation  Ediel_sol  =         0.00000000
  ---------------------------------------------------
  free energy    TOTEN  =      -109.68248834 eV

  energy without entropy =     -109.68248834  energy(sigma->0) =     -109.68248834


--------------------------------------------------------------------------------------------------------




--------------------------------------- Iteration      1(  10)  ---------------------------------------


    EDDIAG:  cpu time    3.3337: real time    3.3366
  RMM-DIIS:  cpu time   13.9023: real time   13.9024
    ORTHCH:  cpu time    0.5866: real time    0.5866
 BZINTS: Fermi energy:    0.393102;  410.000000 electrons
         Band energy:-0.186746E+04;  BLOECHL correction:   -0.031612
       DOS:  cpu time    0.0309: real time    0.0309
    --------------------------------------------
      LOOP:  cpu time   17.8535: real time   17.8564

 eigenvalue-minimisations  : 14492
 total energy-change (2. order) :-0.6478894E-04  (-0.6489733E-04)
 number of electron     410.0000091 magnetization 
 augmentation part      410.0000091 magnetization 

 Free energy of the ion-electron system (eV)
  ---------------------------------------------------
  alpha Z        PSCENC =       720.95881568
  Ewald energy   TEWEN  =    133422.99323393
  -Hartree energ DENC   =   -172385.74469601
  -exchange      EXHF   =         0.00000000
  -V(xc)+E(xc)   XCENC  =      -277.36941909
  PAW double counting   =     40600.14833301   -39047.29014596
  entropy T*S    EENTRO =         0.00000000
  eigenvalues    EBANDS =     -1867.45681676
  atomic energy  EATOM  =     38724.07814206
  Solvation  Ediel_sol  =         0.00000000
  ---------------------------------------------------
  free energy    TOTEN  =      -109.68255313 eV

  energy without entropy =     -109.68255313  energy(sigma->0) =     -109.68255313


--------------------------------------------------------------------------------------------------------




--------------------------------------- Iteration      1(  11)  ---------------------------------------


    EDDIAG:  cpu time    3.3291: real time    3.3293
WARNING in EDDRMM: call to ZHEGV failed, returncode =   8  4      5
  RMM-DIIS:  cpu time   12.4105: real time   12.4106
    ORTHCH:  cpu time    0.5871: real time    0.5871
 BZINTS: Fermi energy:    0.393101;  410.000000 electrons
         Band energy:-0.186746E+04;  BLOECHL correction:   -0.031612
       DOS:  cpu time    0.0303: real time    0.0303
    --------------------------------------------
      LOOP:  cpu time   16.3570: real time   16.3573

 eigenvalue-minimisations  : 13059
 total energy-change (2. order) :-0.3133959E-04  (-0.3225470E-04)
 number of electron     410.0000091 magnetization 
 augmentation part      410.0000091 magnetization 

 Free energy of the ion-electron system (eV)
  ---------------------------------------------------
  alpha Z        PSCENC =       720.95881568
  Ewald energy   TEWEN  =    133422.99323393
  -Hartree energ DENC   =   -172385.74469601
  -exchange      EXHF   =         0.00000000
  -V(xc)+E(xc)   XCENC  =      -277.36941909
  PAW double counting   =     40600.14833301   -39047.29014596
  entropy T*S    EENTRO =         0.00000000
  eigenvalues    EBANDS =     -1867.45684810
  atomic energy  EATOM  =     38724.07814206
  Solvation  Ediel_sol  =         0.00000000
  ---------------------------------------------------
  free energy    TOTEN  =      -109.68258447 eV

  energy without entropy =     -109.68258447  energy(sigma->0) =     -109.68258447


--------------------------------------------------------------------------------------------------------




--------------------------------------- Iteration      1(  12)  ---------------------------------------


    EDDIAG:  cpu time    3.3344: real time    3.3347
  RMM-DIIS:  cpu time   11.6609: real time   11.6610
    ORTHCH:  cpu time    0.5875: real time    0.5875
 BZINTS: Fermi energy:    0.393101;  410.000000 electrons
         Band energy:-0.186746E+04;  BLOECHL correction:   -0.031612
       DOS:  cpu time    0.0333: real time    0.0333
    --------------------------------------------
      LOOP:  cpu time   15.6162: real time   15.6165

 eigenvalue-minimisations  : 11722
 total energy-change (2. order) :-0.1646767E-04  (-0.1717374E-04)
 number of electron     410.0000091 magnetization 
 augmentation part      410.0000091 magnetization 

 Free energy of the ion-electron system (eV)
  ---------------------------------------------------
  alpha Z        PSCENC =       720.95881568
  Ewald energy   TEWEN  =    133422.99323393
  -Hartree energ DENC   =   -172385.74469601
  -exchange      EXHF   =         0.00000000
  -V(xc)+E(xc)   XCENC  =      -277.36941909
  PAW double counting   =     40600.14833301   -39047.29014596
  entropy T*S    EENTRO =         0.00000000
  eigenvalues    EBANDS =     -1867.45686457
  atomic energy  EATOM  =     38724.07814206
  Solvation  Ediel_sol  =         0.00000000
  ---------------------------------------------------
  free energy    TOTEN  =      -109.68260094 eV

  energy without entropy =     -109.68260094  energy(sigma->0) =     -109.68260094


--------------------------------------------------------------------------------------------------------




--------------------------------------- Iteration      1(  13)  ---------------------------------------


    EDDIAG:  cpu time    3.3290: real time    3.3293
  RMM-DIIS:  cpu time   10.7554: real time   10.7555
    ORTHCH:  cpu time    0.5870: real time    0.5870
 BZINTS: Fermi energy:    0.393101;  410.000000 electrons
         Band energy:-0.186746E+04;  BLOECHL correction:   -0.031612
       DOS:  cpu time    0.0295: real time    0.0295
    --------------------------------------------
      LOOP:  cpu time   14.7010: real time   14.7013

 eigenvalue-minimisations  : 11069
 total energy-change (2. order) :-0.8714909E-05  (-0.9466283E-05)
 number of electron     410.0000091 magnetization 
 augmentation part      410.0000091 magnetization 

 Free energy of the ion-electron system (eV)
  ---------------------------------------------------
  alpha Z        PSCENC =       720.95881568
  Ewald energy   TEWEN  =    133422.99323393
  -Hartree energ DENC   =   -172385.74469601
  -exchange      EXHF   =         0.00000000
  -V(xc)+E(xc)   XCENC  =      -277.36941909
  PAW double counting   =     40600.14833301   -39047.29014596
  entropy T*S    EENTRO =         0.00000000
  eigenvalues    EBANDS =     -1867.45687329
  atomic energy  EATOM  =     38724.07814206
  Solvation  Ediel_sol  =         0.00000000
  ---------------------------------------------------
  free energy    TOTEN  =      -109.68260965 eV

  energy without entropy =     -109.68260965  energy(sigma->0) =     -109.68260965


--------------------------------------------------------------------------------------------------------




 average (electrostatic) potential at core
  the test charge radii are     1.1249  1.0703  0.7215
  (the norm of the test charge is              1.0000)
       1 -78.4917       2 -78.4782       3 -78.4781       4 -78.4839       5 -78.4877
       6 -78.4836       7 -78.4803       8 -78.4801       9 -78.4944      10 -78.7298
      11 -78.7141      12 -78.7295      13 -78.7183      14 -78.7179      15 -78.7124
      16 -78.7296      17 -78.7012      18 -78.7013      19 -78.7088      20 -78.9820
      21 -78.9816      22 -78.6989      23 -78.9784      24 -78.6985      25 -78.6984
      26 -78.6984      27 -78.6807      28 -78.4990      29 -78.6165      30 -78.6165
      31 -78.6343      32 -78.6340      33 -78.6189      34 -78.6186      35 -78.4720
      36 -89.5001      37 -77.0106      38 -77.0104
 
 
 
 E-fermi :   0.3931     XC(G=0):  -5.4858     alpha+bet : -5.2313

 Fermi energy:         0.3931007078

 k-point     1 :       0.0000    0.0000    0.0000
  band No.  band energies     occupation 
      1     -55.6505      2.00000
      2     -32.1776      2.00000
      3     -31.6669      2.00000
      4     -31.6199      2.00000
      5     -22.0339      2.00000
      6     -15.9548      2.00000
      7      -7.1272      2.00000
      8      -6.7152      2.00000
      9      -6.0232      2.00000
     10      -5.8561      2.00000
     11      -5.7898      2.00000
     12      -5.5790      2.00000
     13      -5.4947      2.00000
     14      -5.4777      2.00000
     15      -5.4721      2.00000
     16      -5.4690      2.00000
     17      -5.4620      2.00000
     18      -5.4467      2.00000
     19      -5.4327      2.00000
     20      -5.4227      2.00000
     21      -5.4210      2.00000
     22      -5.4081      2.00000
     23      -5.4069      2.00000
     24      -5.3995      2.00000
     25      -5.3546      2.00000
     26      -5.2922      2.00000
     27      -5.2702      2.00000
     28      -5.2558      2.00000
     29      -5.2360      2.00000
     30      -5.2308      2.00000
     31      -5.2234      2.00000
     32      -5.1057      2.00000
     33      -5.0854      2.00000
     34      -5.0773      2.00000
     35      -5.0703      2.00000
     36      -5.0616      2.00000
     37      -5.0418      2.00000
     38      -5.0355      2.00000
     39      -5.0146      2.00000
     40      -5.0123      2.00000
     41      -5.0062      2.00000
     42      -4.9974      2.00000
     43      -4.9904      2.00000
     44      -4.9343      2.00000
     45      -4.9225      2.00000
     46      -4.9166      2.00000
     47      -4.9122      2.00000
     48      -4.9105      2.00000
     49      -4.8133      2.00000
     50      -4.7027      2.00000
     51      -4.6882      2.00000
     52      -4.6744      2.00000
     53      -4.6638      2.00000
     54      -4.6627      2.00000
     55      -4.6615      2.00000
     56      -4.6562      2.00000
     57      -4.6415      2.00000
     58      -4.6335      2.00000
     59      -4.6252      2.00000
     60      -4.5051      2.00000
     61      -4.5006      2.00000
     62      -4.4772      2.00000
     63      -4.4747      2.00000
     64      -4.3289      2.00000
     65      -4.3285      2.00000
     66      -4.3188      2.00000
     67      -4.3008      2.00000
     68      -4.2917      2.00000
     69      -4.2828      2.00000
     70      -4.2734      2.00000
     71      -4.2685      2.00000
     72      -4.2641      2.00000
     73      -4.2201      2.00000
     74      -4.2166      2.00000
     75      -4.1445      2.00000
     76      -4.1316      2.00000
     77      -4.1302      2.00000
     78      -4.1259      2.00000
     79      -4.1223      2.00000
     80      -4.1191      2.00000
     81      -4.1181      2.00000
     82      -4.1142      2.00000
     83      -4.0983      2.00000
     84      -4.0883      2.00000
     85      -4.0818      2.00000
     86      -4.0683      2.00000
     87      -4.0668      2.00000
     88      -4.0597      2.00000
     89      -4.0224      2.00000
     90      -4.0198      2.00000
     91      -4.0062      2.00000
     92      -4.0054      2.00000
     93      -3.9894      2.00000
     94      -3.9802      2.00000
     95      -3.9342      2.00000
     96      -3.9331      2.00000
     97      -3.9020      2.00000
     98      -3.9013      2.00000
     99      -3.8948      2.00000
    100      -3.8891      2.00000
    101      -3.8719      2.00000
    102      -3.8035      2.00000
    103      -3.7880      2.00000
    104      -3.7879      2.00000
    105      -3.7693      2.00000
    106      -3.7692      2.00000
    107      -3.7371      2.00000
    108      -3.6817      2.00000
    109      -3.6040      2.00000
    110      -3.5969      2.00000
    111      -3.5967      2.00000
    112      -3.5735      2.00000
    113      -3.5591      2.00000
    114      -3.5575      2.00000
    115      -3.5435      2.00000
    116      -3.5132      2.00000
    117      -3.5130      2.00000
    118      -3.4988      2.00000
    119      -3.4701      2.00000
    120      -3.4656      2.00000
    121      -3.4385      2.00000
    122      -3.4147      2.00000
    123      -3.3672      2.00000
    124      -3.3531      2.00000
    125      -3.3297      2.00000
    126      -3.3108      2.00000
    127      -3.2978      2.00000
    128      -3.2778      2.00000
    129      -3.2632      2.00000
    130      -3.2628      2.00000
    131      -3.2205      2.00000
    132      -3.2164      2.00000
    133      -3.2039      2.00000
    134      -3.2034      2.00000
    135      -3.1960      2.00000
    136      -3.1838      2.00000
    137      -3.1815      2.00000
    138      -3.1801      2.00000
    139      -3.1793      2.00000
    140      -3.1754      2.00000
    141      -3.1554      2.00000
    142      -3.1322      2.00000
    143      -3.0806      2.00000
    144      -3.0412      2.00000
    145      -3.0327      2.00000
    146      -3.0237      2.00000
    147      -3.0041      2.00000
    148      -2.9977      2.00000
    149      -2.9943      2.00000
    150      -2.9926      2.00000
    151      -2.9693      2.00000
    152      -2.9661      2.00000
[...]
  0.000   0.000   0.000   0.000   0.000   0.000   0.000   0.000   0.000   0.000   0.000   0.000   0.000   0.000   0.000   0.000
  0.000   0.000   0.000   0.000   0.000   0.000   0.000   0.000   0.000   0.000   0.000   0.000   0.000   0.000   0.000   0.000
  0.000   0.000   0.000   0.000   0.000   0.000   0.000   0.000   0.000   0.000   1.000   0.000   0.000   0.000   0.000   0.000
  0.000   0.000   0.000   0.000   0.000   0.000   0.000   0.000   0.000   0.000   0.000   0.000   0.000   0.000   0.000   0.000
  0.000   0.000   0.000   0.000   0.000   0.000   0.000   0.000   0.000   0.000   0.000   0.000   0.000   0.000   0.000   0.000
  0.000   0.000   0.000   0.000   0.000   0.000   0.000   0.000   0.000   0.000   0.000   0.000   0.000   0.000   0.000   0.000
  0.000   0.000   0.000   0.000   0.000   0.000   0.000   0.000   0.000   0.000   0.000   0.000   0.000   0.000   0.000   0.000
  0.000   0.000   0.000   0.000   0.000   0.000   0.000   0.000   0.000   0.000   0.000   0.000   0.000   0.000   0.000   0.000
  0.000   0.000   0.000   0.000   0.000   0.000   0.000   0.000   0.000   0.000   0.000   0.000   0.000   0.000   0.000   0.000
  0.000   0.000   0.000   0.000   0.000   0.000   0.000   0.000   0.000   0.000   0.000   0.000   0.000   0.000   0.000   0.000


------------------------ aborting loop because EDIFF is reached ----------------------------------------





 total charge

# of ion       s       p       d       tot
------------------------------------------
    1        0.421   0.201   9.176   9.798
    2        0.415   0.204   9.177   9.797
    3        0.415   0.204   9.177   9.797
    4        0.415   0.203   9.177   9.796
    5        0.418   0.202   9.177   9.797
    6        0.415   0.203   9.177   9.796
    7        0.415   0.204   9.177   9.796
    8        0.415   0.204   9.177   9.796
    9        0.414   0.204   9.177   9.795
   10        0.409   0.268   9.164   9.842
   11        0.404   0.270   9.168   9.842
   12        0.409   0.268   9.164   9.842
   13        0.403   0.270   9.167   9.841
   14        0.403   0.270   9.167   9.841
   15        0.400   0.270   9.164   9.834
   16        0.410   0.269   9.162   9.842
   17        0.401   0.269   9.165   9.835
   18        0.401   0.269   9.165   9.835
   19        0.402   0.263   9.169   9.833
   20        0.439   0.302   9.135   9.876
   21        0.439   0.302   9.135   9.876
   22        0.393   0.275   9.162   9.830
   23        0.442   0.306   9.129   9.878
   24        0.393   0.275   9.162   9.830
   25        0.404   0.264   9.167   9.835
   26        0.404   0.264   9.167   9.835
   27        0.394   0.273   9.165   9.831
   28        0.419   0.199   9.174   9.792
   29        0.429   0.217   9.164   9.810
   30        0.429   0.217   9.164   9.810
   31        0.435   0.210   9.167   9.813
   32        0.435   0.210   9.167   9.813
   33        0.427   0.217   9.167   9.811
   34        0.427   0.217   9.167   9.811
   35        0.415   0.203   9.173   9.791
   36        2.198   6.028   2.320  10.546
   37        1.615   3.249   0.000   4.864
   38        1.615   3.249   0.000   4.864
--------------------------------------------------
tot         19.936  20.998 323.132 364.066
 
    CHARGE:  cpu time    0.8122: real time    0.8123
    FORLOC:  cpu time    0.0114: real time    0.0114
    FORNL :  cpu time    3.3986: real time    3.3988
    STRESS:  cpu time   10.1471: real time   10.1474
    FORCOR:  cpu time    0.0584: real time    0.0585
    FORHAR:  cpu time    0.0194: real time    0.0195
    OFIELD:  cpu time    0.0003: real time    0.0003

  FORCE on cell =-STRESS in cart. coord.  units (eV):
  Direction    XX          YY          ZZ          XY          YZ          ZX
  --------------------------------------------------------------------------------------
  Alpha Z   720.95882   720.95882   720.95882
  Ewald  156851.34690156398.51485************     0.00008     6.87780     0.00009
  Hartree167147.54244166898.62076************     0.00004     2.63344     0.00003
  E(xc)   -2147.14734 -2147.94586 -2152.73056    -0.00002    -0.00612     0.00000
  Local  ************************334722.62931     0.00100    -8.11744    -0.00022
  n-local  -361.48120  -371.00582  -370.47412     2.14713     0.12204     0.08566
  augment  3247.07660  3251.27697  3262.68959    -0.00017    -0.05769     0.00002
  Kinetic  5249.98636  5294.38186  5301.14690     0.82955    -1.40450    -0.12021
  Fock        0.00000     0.00000     0.00000     0.00000     0.00000     0.00000
  -------------------------------------------------------------------------------------
  Total      -4.59591    -5.94589    -0.81400    -0.00000     0.04753     0.00000
  in kB      -4.51572    -5.84214    -0.79980    -0.00000     0.04670     0.00000
  external pressure =       -3.72 kB  Pullay stress =        0.00 kB


 VOLUME and BASIS-vectors are now :
 -----------------------------------------------------------------------------
  energy-cutoff  :      500.00
  volume of cell :     1630.63
      direct lattice vectors                 reciprocal lattice vectors
     8.791366577  0.000000000  0.000000000     0.113747958 -0.065672414  0.000000000
     4.395683289  7.613546790  0.000000000     0.000000000  0.131344829  0.000000000
     0.000000000  0.000000000 24.361965240     0.000000000  0.000000000  0.041047592

  length of vectors
     8.791366577  8.791366577 24.361965240     0.131344829  0.131344829  0.041047592


 FORCES acting on ions
    electron-ion (+dipol)            ewald-force                    non-local-force                 convergence-correction
 -----------------------------------------------------------------------------------------------
   0.461E-04 0.195E-01 0.273E+04   -.954E-04 -.249E-01 -.273E+04   0.700E-13 0.107E-01 -.184E+01   -.129E-03 -.121E-01 0.399E-01
   0.446E+00 0.108E+01 0.273E+04   -.448E+00 -.122E+01 -.273E+04   0.363E-01 0.132E+00 -.161E+01   -.366E-01 0.710E-02 -.142E-02
   -.446E+00 0.108E+01 0.273E+04   0.449E+00 -.122E+01 -.273E+04   -.363E-01 0.132E+00 -.161E+01   0.361E-01 0.908E-02 -.681E-03
   0.117E+01 -.247E+00 0.273E+04   -.126E+01 0.199E+00 -.273E+04   0.855E-01 -.417E-01 -.163E+01   -.377E-03 0.816E-01 0.515E-01
   -.750E-05 -.762E-01 0.274E+04   0.980E-04 -.884E-02 -.274E+04   0.120E-12 0.183E-01 -.157E+01   0.630E-02 0.681E-01 0.435E-01
   -.117E+01 -.247E+00 0.273E+04   0.126E+01 0.199E+00 -.273E+04   -.855E-01 -.417E-01 -.163E+01   -.108E-02 0.825E-01 0.524E-01
   0.797E+00 -.850E+00 0.273E+04   -.808E+00 0.102E+01 -.273E+04   0.455E-01 -.989E-01 -.161E+01   -.289E-01 -.630E-01 0.118E-01
   -.797E+00 -.850E+00 0.273E+04   0.808E+00 0.102E+01 -.273E+04   -.455E-01 -.989E-01 -.161E+01   0.305E-01 -.640E-01 0.121E-01
   0.363E-04 0.929E-01 0.273E+04   0.793E-04 0.335E-01 -.273E+04   -.567E-13 -.863E-02 -.177E+01   -.670E-02 -.110E+00 0.137E-01
   0.708E+01 0.425E+01 0.996E+03   -.668E+01 -.410E+01 -.996E+03   -.366E+00 -.202E+00 -.600E+00   -.557E-01 0.478E-01 0.228E+00
   -.257E-04 0.113E+02 0.101E+04   0.412E-04 -.116E+02 -.101E+04   0.982E-12 0.150E+00 -.295E+00   0.640E-02 0.780E-01 0.245E+00
   -.708E+01 0.425E+01 0.996E+03   0.668E+01 -.410E+01 -.996E+03   0.366E+00 -.202E+00 -.600E+00   0.538E-01 0.493E-01 0.229E+00
   0.952E+01 -.567E+01 0.101E+04   -.979E+01 0.577E+01 -.101E+04   0.234E+00 -.873E-01 -.367E+00   -.134E-01 0.184E-01 0.174E+00
   -.952E+01 -.567E+01 0.101E+04   0.979E+01 0.577E+01 -.101E+04   -.234E+00 -.873E-01 -.367E+00   0.244E-01 0.177E-01 0.174E+00
   0.164E-04 -.274E+01 0.991E+03   -.109E-03 0.276E+01 -.991E+03   -.609E-13 -.928E-02 -.649E+00   -.202E-02 -.286E-01 0.148E+00
   -.827E-05 -.830E+01 0.996E+03   0.207E-04 0.784E+01 -.996E+03   0.328E-11 0.500E+00 -.708E+00   0.334E-03 -.948E-02 0.154E+00
   -.230E+01 0.132E+01 0.991E+03   0.231E+01 -.119E+01 -.990E+03   0.256E-01 -.526E-01 -.556E+00   -.301E-01 -.844E-01 0.168E+00
   0.230E+01 0.132E+01 0.991E+03   -.231E+01 -.119E+01 -.990E+03   -.256E-01 -.526E-01 -.556E+00   0.300E-01 -.822E-01 0.169E+00
   0.417E-04 0.258E+01 -.787E+03   -.133E-03 -.270E+01 0.786E+03   0.474E-12 0.721E-01 0.109E+01   -.187E-02 0.185E-01 0.439E+00
   0.521E+02 0.318E+02 -.699E+03   -.512E+02 -.315E+02 0.699E+03   -.110E+01 -.414E+00 -.507E+00   0.386E-01 0.581E-01 0.531E+00
   -.521E+02 0.318E+02 -.699E+03   0.512E+02 -.315E+02 0.699E+03   0.110E+01 -.414E+00 -.507E+00   -.278E-01 0.593E-01 0.530E+00
   0.250E+02 -.157E+02 -.779E+03   -.251E+02 0.160E+02 0.778E+03   0.178E+00 -.206E+00 0.634E+00   0.462E-02 -.141E+00 0.328E+00
   -.535E-04 -.625E+02 -.700E+03   0.512E-04 0.613E+02 0.700E+03   0.975E-11 0.148E+01 -.786E+00   0.679E-02 -.141E+00 0.367E+00
   -.250E+02 -.157E+02 -.779E+03   0.251E+02 0.160E+02 0.778E+03   -.178E+00 -.206E+00 0.634E+00   -.617E-02 -.142E+00 0.328E+00
   -.123E+01 -.565E+00 -.789E+03   0.130E+01 0.480E+00 0.788E+03   -.105E+00 -.177E-01 0.865E+00   0.232E-01 0.120E+00 0.372E+00
   0.123E+01 -.565E+00 -.789E+03   -.130E+01 0.480E+00 0.788E+03   0.105E+00 -.177E-01 0.865E+00   -.235E-01 0.117E+00 0.373E+00
   0.211E-04 0.282E+02 -.782E+03   0.109E-03 -.286E+02 0.781E+03   0.272E-11 0.414E+00 0.760E+00   -.470E-03 0.914E-01 0.350E+00
   0.546E-04 0.496E+01 -.259E+04   -.119E-03 -.518E+01 0.259E+04   0.561E-12 0.854E-01 0.148E+01   -.105E-03 0.125E+00 0.882E-01
   0.676E+02 0.129E+03 -.257E+04   -.670E+02 -.129E+03 0.257E+04   -.776E+00 -.534E+00 0.200E+01   0.382E-01 0.281E+00 0.163E+00
   -.676E+02 0.129E+03 -.257E+04   0.670E+02 -.129E+03 0.257E+04   0.776E+00 -.534E+00 0.200E+01   -.386E-01 0.283E+00 0.163E+00
   0.161E+03 0.429E+01 -.255E+04   -.160E+03 -.410E+01 0.255E+04   -.958E+00 -.141E+00 0.246E+01   0.196E+00 -.723E-01 0.130E+00
   -.161E+03 0.429E+01 -.255E+04   0.160E+03 -.410E+01 0.255E+04   0.958E+00 -.141E+00 0.246E+01   -.197E+00 -.715E-01 0.129E+00
   0.655E+02 -.135E+03 -.257E+04   -.652E+02 0.135E+03 0.257E+04   -.436E+00 0.641E+00 0.218E+01   0.382E-01 -.178E+00 0.220E+00
   -.655E+02 -.135E+03 -.257E+04   0.652E+02 0.135E+03 0.257E+04   0.436E+00 0.641E+00 0.218E+01   -.366E-01 -.179E+00 0.220E+00
   0.166E-04 -.656E+01 -.260E+04   0.108E-03 0.664E+01 0.260E+04   -.101E-12 -.153E-01 0.176E+01   -.676E-02 -.557E-01 0.240E+00
   0.241E-03 0.852E+01 -.249E+04   0.123E-03 -.843E+01 0.250E+04   -.599E-12 -.913E-01 -.350E+01   0.730E-02 -.102E+00 0.341E+00
   0.234E+03 -.118E+01 -.184E+04   -.264E+03 0.154E+01 0.186E+04   0.300E+02 -.326E+00 -.191E+02   0.114E+00 -.247E-01 -.182E+00
   -.234E+03 -.118E+01 -.184E+04   0.264E+03 0.154E+01 0.186E+04   -.300E+02 -.326E+00 -.191E+02   -.114E+00 -.246E-01 -.184E+00
 -----------------------------------------------------------------------------------------------
   0.881E-03 0.282E-01 0.348E+02   0.568E-13 -.197E-12 0.955E-11   -.558E-12 -.847E-01 -.417E+02   0.270E-01 0.260E-01 0.686E+01
 
 
 POSITION                                       TOTAL-FORCE (eV/Angst)
 -----------------------------------------------------------------------------------
      0.00000      0.00000      5.28219        -0.000000     -0.006024     -0.043066
      2.93046      0.00000      5.28219        -0.002677      0.001612      0.029999
      5.86091      0.00000      5.28219         0.002677      0.001612      0.029999
      1.46523      2.53785      5.28219         0.001000     -0.007212      0.021056
      4.39568      2.53785      5.28219         0.000000      0.002140      0.002504
      7.32614      2.53785      5.28219        -0.001000     -0.007212      0.021056
      2.93046      5.07570      5.28219         0.005095      0.006926      0.026100
      5.86091      5.07570      5.28219        -0.005095      0.006926      0.026100
      8.79137      5.07570      5.28219         0.000000      0.008731      0.003580
      1.46523      0.84595      7.67490        -0.016519     -0.004712     -0.051072
      4.39568      0.84595      7.67490        -0.000000     -0.069234     -0.065662
      7.32614      0.84595      7.67490         0.016519     -0.004712     -0.051072
      2.93046      3.38380      7.67490        -0.055947      0.033648     -0.054007
      5.86091      3.38380      7.67490         0.055947      0.033648     -0.054007
      8.79137      3.38380      7.67490        -0.000000     -0.013313      0.056478
      4.39568      5.92165      7.67490         0.000000      0.027630     -0.032684
      7.32614      5.92165      7.67490        -0.001303     -0.001966      0.048679
     10.25659      5.92165      7.67490         0.001303     -0.001966      0.048679
      8.79137      1.69211     10.06133        -0.000000     -0.030994      0.010411
      2.92756      1.69022     10.03254        -0.139512     -0.076545     -0.182581
      5.86381      1.69022     10.03254         0.139512     -0.076545     -0.182581
     10.25459      4.23091     10.07004         0.045070     -0.005477      0.043232
      4.39568      4.23310     10.03254         0.000000      0.163818     -0.105074
      7.32815      4.23091     10.07004        -0.045070     -0.005477      0.043232
     11.72164      6.76749     10.06133        -0.012233      0.015746      0.025697
      5.86110      6.76749     10.06133         0.012233      0.015746      0.025697
      8.79137      6.76528     10.07004         0.000000      0.059935      0.031043
      0.00000      0.00000     12.45237        -0.000000     -0.008611      0.008869
      2.94700      0.02679     12.48745        -0.127682     -0.292687     -0.225078
      5.84437      0.02679     12.48745         0.127682     -0.292687     -0.225078
      1.49670      2.53878     12.48745        -0.524161     -0.013264     -0.355780
      7.29466      2.53878     12.48745         0.524161     -0.013264     -0.355780
      2.94539      5.04797     12.48745        -0.133588      0.313639     -0.239003
      5.84598      5.04797     12.48745         0.133588      0.313639     -0.239003
      8.79137      5.07570     12.46721         0.000000      0.015335      0.010173
      4.39568      2.53785     12.28926        -0.000000     -0.097669      1.961630
      3.65194      2.56806     14.10970         0.002760      0.004420     -0.006343
      5.13943      2.56806     14.10970        -0.002760      0.004420     -0.006343
 -----------------------------------------------------------------------------------
    total drift:                                0.027888     -0.030412     -0.024479


--------------------------------------------------------------------------------------------------------



  FREE ENERGIE OF THE ION-ELECTRON SYSTEM (eV)
  ---------------------------------------------------
  free  energy   TOTEN  =      -109.68260965 eV

  energy  without entropy=     -109.68260965  energy(sigma->0) =     -109.68260965
 


--------------------------------------------------------------------------------------------------------


    POTLOK:  cpu time    0.0507: real time    0.0507


--------------------------------------------------------------------------------------------------------


 stress matrix after NEB project (eV)
     -4.59591     -0.00000      0.00000
     -0.00000     -5.94589      0.04753
      0.00000      0.04753     -0.81400
  FORCES: max atom, RMS     0.008209    0.001883
  FORCE total and by dimension    0.011609    0.006343
  Stress total and by dimension    7.559307    5.945888
     LOOP+:  cpu time  256.0959: real time  256.1092
 -----------------------------------------------------------------------------
|                                                                             |
|           W    W    AA    RRRRR   N    N  II  N    N   GGGG   !!!           |
|           W    W   A  A   R    R  NN   N  II  NN   N  G    G  !!!           |
|           W    W  A    A  R    R  N N  N  II  N N  N  G       !!!           |
|           W WW W  AAAAAA  RRRRR   N  N N  II  N  N N  G  GGG   !            |
|           WW  WW  A    A  R   R   N   NN  II  N   NN  G    G                |
|           W    W  A    A  R    R  N    N  II  N    N   GGGG   !!!           |
|                                                                             |
|     Tetrahedron method does not include variations of the Fermi             |
|     occupations, so forces and stress will be inaccurate. We suggest        |
|     using a different smearing scheme ISMEAR = 1 or 2 for metals in         |
|     relaxations.                                                            |
|                                                                             |
 -----------------------------------------------------------------------------

    4ORBIT:  cpu time    0.0000: real time    0.0000



 total charge

# of ion       s       p       d       tot
------------------------------------------
    1        0.421   0.201   9.176   9.798
    2        0.415   0.204   9.177   9.797
    3        0.415   0.204   9.177   9.797
    4        0.415   0.203   9.177   9.796
    5        0.418   0.202   9.177   9.797
    6        0.415   0.203   9.177   9.796
    7        0.415   0.204   9.177   9.796
    8        0.415   0.204   9.177   9.796
    9        0.414   0.204   9.177   9.795
   10        0.409   0.268   9.164   9.842
   11        0.404   0.270   9.168   9.842
   12        0.409   0.268   9.164   9.842
   13        0.403   0.270   9.167   9.841
   14        0.403   0.270   9.167   9.841
   15        0.400   0.270   9.164   9.834
   16        0.410   0.269   9.162   9.842
   17        0.401   0.269   9.165   9.835
   18        0.401   0.269   9.165   9.835
   19        0.402   0.263   9.169   9.833
   20        0.439   0.302   9.135   9.876
   21        0.439   0.302   9.135   9.876
   22        0.393   0.275   9.162   9.830
   23        0.442   0.306   9.129   9.878
   24        0.393   0.275   9.162   9.830
   25        0.404   0.264   9.167   9.835
   26        0.404   0.264   9.167   9.835
   27        0.394   0.273   9.165   9.831
   28        0.419   0.199   9.174   9.792
   29        0.429   0.217   9.164   9.810
   30        0.429   0.217   9.164   9.810
   31        0.435   0.210   9.167   9.813
   32        0.435   0.210   9.167   9.813
   33        0.427   0.217   9.167   9.811
   34        0.427   0.217   9.167   9.811
   35        0.415   0.203   9.173   9.791
   36        2.198   6.028   2.320  10.546
   37        1.615   3.249   0.000   4.864
   38        1.615   3.249   0.000   4.864
--------------------------------------------------
tot         19.936  20.998 323.132 364.066
 
 BZINTS: Fermi energy:    0.393101;  410.000000 electrons
         Band energy:-0.186746E+04;  BLOECHL correction:   -0.031612

 total amount of memory used by VASP MPI-rank0   198460. kBytes
=======================================================================

   base      :      30000. kBytes
   nonlr-proj:      15774. kBytes
   fftplans  :       4808. kBytes
   grid      :      19857. kBytes
   one-center:        590. kBytes
   wavefun   :     127431. kBytes
 
  
  
 General timing and accounting informations for this job:
 ========================================================
  
                  Total CPU time used (sec):      270.809
                            User time (sec):      263.755
                          System time (sec):        7.054
                         Elapsed time (sec):      271.165
  
                   Maximum memory used (kb):      478480.
                   Average memory used (kb):          N/A
  
                          Minor page faults:       108723
                          Major page faults:            0
                 Voluntary context switches:        11819
