PROCAR new format
# of k-points:   10         # of bands:  252         # of ions:   37

 k-point     1 :    0.00000000 0.00000000 0.00000000     weight = 0.01562500

band     1 # energy  -18.33718177 # occ.  2.00000000
 
ion      s      p      d    tot
    1  0.000  0.000  0.000  0.000
    2  0.000  0.000  0.000  0.000
    3  0.000  0.000  0.000  0.000
    4  0.000  0.000  0.000  0.000
    5  0.000  0.000  0.000  0.000
    6  0.000  0.000  0.000  0.000
    7  0.000  0.000  0.000  0.000
    8  0.000  0.000  0.000  0.000
    9  0.000  0.000  0.000  0.000
   10  0.000  0.000  0.000  0.000
   11  0.000  0.000  0.000  0.000
   12  0.000  0.000  0.000  0.000
   13  0.000  0.000  0.000  0.000
   14  0.000  0.000  0.000  0.000
   15  0.000  0.000  0.000  0.000
   16  0.000  0.000  0.000  0.000
   17  0.000  0.000  0.000  0.000
   18  0.000  0.000  0.000  0.000
   19  0.000  0.000  0.000  0.000
   20  0.000  0.000  0.000  0.000
   21  0.000  0.000  0.000  0.000
   22  0.000  0.000  0.000  0.000
   23  0.000  0.000  0.000  0.000
   24  0.000  0.000  0.000  0.000
   25  0.000  0.000  0.000  0.000
   26  0.000  0.000  0.000  0.000
   27  0.000  0.000  0.000  0.000
   28  0.000  0.000  0.000  0.000
   29  0.000  0.000  0.000  0.000
   30  0.000  0.000  0.000  0.000
   31  0.000  0.000  0.000  0.000
   32  0.000  0.000  0.000  0.000
   33  0.000  0.000  0.000  0.000
   34  0.000  0.000  0.000  0.000
   35  0.000  0.000  0.000  0.000
   36  0.042  0.056  0.064  0.162
   37  0.774  0.012  0.000  0.786
tot    0.816  0.068  0.065  0.949
 
band     2 # energy   -8.80400475 # occ.  2.00000000
 
ion      s      p      d    tot
    1  0.007  0.001  0.000  0.008
    2  0.007  0.001  0.000  0.008
    3  0.007  0.001  0.000  0.008
    4  0.007  0.001  0.000  0.008
    5  0.007  0.001  0.000  0.008
    6  0.007  0.001  0.000  0.008
    7  0.007  0.001  0.000  0.008
    8  0.007  0.001  0.000  0.008
    9  0.007  0.001  0.000  0.008
   10  0.025  0.000  0.000  0.025
   11  0.025  0.000  0.000  0.025
   12  0.025  0.000  0.000  0.025
   13  0.025  0.000  0.000  0.025
   14  0.025  0.000  0.000  0.025
   15  0.025  0.000  0.000  0.025
   16  0.025  0.000  0.000  0.025
   17  0.025  0.000  0.000  0.025
   18  0.025  0.000  0.000  0.025
   19  0.024  0.000  0.000  0.025
   20  0.025  0.000  0.000  0.025
   21  0.025  0.000  0.000  0.025
   22  0.025  0.000  0.000  0.025
   23  0.025  0.000  0.000  0.025
   24  0.025  0.000  0.000  0.025
   25  0.024  0.000  0.000  0.025
   26  0.024  0.000  0.000  0.025
   27  0.025  0.000  0.000  0.025
   28  0.006  0.001  0.000  0.007
   29  0.006  0.001  0.000  0.007
   30  0.006  0.001  0.000  0.007
   31  0.006  0.001  0.000  0.007
   32  0.006  0.001  0.000  0.007
   33  0.006  0.001  0.000  0.007
   34  0.006  0.001  0.000  0.007
   35  0.006  0.001  0.000  0.007
   36  0.006  0.001  0.000  0.008
   37  0.000  0.000  0.000  0.001
tot    0.564  0.017  0.001  0.583
 
band     3 # energy   -7.47580326 # occ.  2.00000000
 
ion      s      p      d    tot
    1  0.019  0.001  0.001  0.020
    2  0.018  0.001  0.001  0.020
    3  0.018  0.001  0.001  0.020
    4  0.018  0.001  0.001  0.020
    5  0.018  0.001  0.001  0.020
    6  0.018  0.001  0.001  0.020
    7  0.018  0.001  0.001  0.020
    8  0.018  0.001  0.001  0.020
    9  0.019  0.001  0.001  0.020
   10  0.009  0.002  0.001  0.012
   11  0.009  0.002  0.001  0.012
   12  0.009  0.002  0.001  0.012
   13  0.009  0.002  0.001  0.012
   14  0.009  0.002  0.001  0.012
   15  0.009  0.002  0.001  0.012
   16  0.009  0.002  0.001  0.012
   17  0.009  0.002  0.001  0.012
   18  0.009  0.002  0.001  0.012
   19  0.011  0.002  0.001  0.014
   20  0.011  0.002  0.001  0.014
   21  0.011  0.002  0.001  0.014
   22  0.012  0.002  0.001  0.014
   23  0.011  0.002  0.001  0.014
   24  0.012  0.002  0.001  0.014
   25  0.011  0.002  0.001  0.014
   26  0.011  0.002  0.001  0.014
   27  0.012  0.002  0.001  0.014
   28  0.018  0.001  0.000  0.019
   29  0.017  0.001  0.000  0.018
   30  0.017  0.001  0.000  0.018
   31  0.017  0.001  0.000  0.018
   32  0.017  0.001  0.000  0.018
   33  0.017  0.001  0.000  0.018
   34  0.017  0.001  0.000  0.018
   35  0.018  0.001  0.000  0.019
   36  0.015  0.001  0.001  0.018
   37  0.001  0.001  0.000  0.002
tot    0.507  0.057  0.020  0.584
 
band     4 # energy   -5.86056536 # occ.  2.00000000
 
ion      s      p      d    tot
    1  0.010  0.000  0.003  0.013
    2  0.007  0.001  0.005  0.012
    3  0.007  0.001  0.005  0.012
    4  0.007  0.001  0.005  0.012
    5  0.000  0.002  0.005  0.007
    6  0.007  0.001  0.005  0.012
    7  0.007  0.001  0.005  0.012
    8  0.007  0.001  0.005  0.012
    9  0.026  0.001  0.001  0.028
   10  0.001  0.003  0.006  0.010
   11  0.023  0.007  0.001  0.031
   12  0.001  0.003  0.006  0.010
   13  0.023  0.007  0.001  0.031
   14  0.023  0.007  0.001  0.031
   15  0.004  0.002  0.007  0.013
   16  0.001  0.003  0.006  0.010
   17  0.004  0.002  0.007  0.013
   18  0.004  0.002  0.007  0.013
   19  0.000  0.001  0.008  0.010
   20  0.031  0.007  0.003  0.041
   21  0.031  0.007  0.003  0.041
   22  0.002  0.005  0.004  0.011
   23  0.031  0.007  0.003  0.041
   24  0.002  0.005  0.004  0.011
   25  0.000  0.001  0.008  0.010
   26  0.000  0.001  0.008  0.010
   27  0.002  0.005  0.004  0.011
   28  0.016  0.000  0.001  0.018
   29  0.008  0.001  0.005  0.014
   30  0.008  0.001  0.005  0.014
   31  0.008  0.001  0.005  0.014
   32  0.008  0.001  0.005  0.014
   33  0.008  0.001  0.005  0.014
   34  0.008  0.001  0.005  0.014
   35  0.026  0.001  0.002  0.028
   36  0.003  0.002  0.025  0.030
   37  0.000  0.010  0.000  0.010
tot    0.359  0.099  0.184  0.643
 
band     5 # energy   -5.81914163 # occ.  2.00000000
 
ion      s      p      d    tot
    1  0.000  0.001  0.005  0.006
    2  0.008  0.002  0.002  0.012
    3  0.000  0.001  0.002  0.003
    4  0.008  0.002  0.002  0.012
    5  0.000  0.003  0.005  0.008
    6  0.006  0.002  0.002  0.011
    7  0.000  0.001  0.002  0.003
    8  0.007  0.002  0.002  0.011
    9  0.000  0.000  0.002  0.002
   10  0.045  0.005  0.002  0.052
   11  0.013  0.008  0.007  0.027
   12  0.011  0.001  0.013  0.025
   13  0.011  0.008  0.007  0.026
   14  0.048  0.002  0.006  0.056
   15  0.000  0.008  0.004  0.012
   16  0.012  0.001  0.013  0.026
   17  0.000  0.008  0.004  0.012
   18  0.000  0.001  0.005  0.006
   19  0.002  0.010  0.003  0.015
   20  0.064  0.003  0.006  0.073
   21  0.015  0.005  0.011  0.032
   22  0.006  0.002  0.012  0.020
   23  0.017  0.005  0.011  0.033
   24  0.025  0.004  0.002  0.032
   25  0.008  0.000  0.006  0.014
   26  0.002  0.010  0.003  0.015
   27  0.007  0.002  0.011  0.020
   28  0.000  0.001  0.003  0.004
   29  0.010  0.003  0.003  0.015
   30  0.001  0.001  0.002  0.004
   31  0.010  0.003  0.003  0.015
   32  0.006  0.002  0.002  0.010
   33  0.001  0.001  0.002  0.004
   34  0.006  0.002  0.002  0.010
   35  0.000  0.001  0.004  0.004
   36  0.000  0.005  0.006  0.011
   37  0.000  0.000  0.000  0.000
tot    0.347  0.117  0.177  0.642
 
band     6 # energy   -5.81903948 # occ.  2.00000000
 
ion      s      p      d    tot
    1  0.000  0.001  0.005  0.006
    2  0.002  0.001  0.002  0.005
    3  0.010  0.002  0.002  0.015
    4  0.002  0.001  0.002  0.005
    5  0.000  0.003  0.005  0.008
    6  0.003  0.001  0.002  0.007
    7  0.010  0.002  0.002  0.014
    8  0.003  0.001  0.002  0.006
    9  0.000  0.000  0.002  0.002
   10  0.000  0.000  0.016  0.016
   11  0.035  0.004  0.006  0.046
   12  0.034  0.004  0.006  0.044
   13  0.036  0.004  0.006  0.046
   14  0.000  0.010  0.007  0.017
   15  0.000  0.003  0.005  0.008
   16  0.033  0.004  0.006  0.043
   17  0.000  0.003  0.005  0.008
   18  0.000  0.010  0.004  0.014
   19  0.006  0.004  0.005  0.015
   20  0.000  0.006  0.013  0.019
   21  0.049  0.004  0.007  0.060
   22  0.019  0.004  0.005  0.028
   23  0.047  0.004  0.008  0.059
   24  0.000  0.001  0.015  0.016
   25  0.000  0.013  0.002  0.015
   26  0.006  0.003  0.005  0.015
   27  0.019  0.004  0.005  0.028
   28  0.000  0.001  0.003  0.004
   29  0.001  0.001  0.002  0.004
   30  0.010  0.003  0.003  0.016
   31  0.001  0.001  0.002  0.004
   32  0.005  0.002  0.003  0.010
   33  0.010  0.003  0.003  0.015
   34  0.005  0.002  0.003  0.009
   35  0.000  0.001  0.004  0.004
   36  0.000  0.005  0.006  0.011
   37  0.000  0.000  0.000  0.000
tot    0.347  0.117  0.177  0.642
 
band     7 # energy   -5.80056868 # occ.  2.00000000
 
ion      s      p      d    tot
    1  0.026  0.003  0.000  0.029
    2  0.001  0.002  0.004  0.007
    3  0.001  0.002  0.004  0.007
    4  0.001  0.002  0.004  0.007
    5  0.000  0.000  0.001  0.001
    6  0.001  0.002  0.004  0.007
    7  0.001  0.002  0.004  0.007
    8  0.001  0.002  0.004  0.007
    9  0.007  0.002  0.001  0.010
   10  0.025  0.005  0.007  0.036
   11  0.005  0.001  0.011  0.016
   12  0.025  0.005  0.007  0.036
   13  0.005  0.001  0.011  0.016
   14  0.005  0.001  0.011  0.016
   15  0.017  0.009  0.002  0.028
   16  0.025  0.005  0.007  0.036
   17  0.017  0.009  0.002  0.028
   18  0.017  0.009  0.002  0.028
   19  0.017  0.009  0.002  0.028
   20  0.000  0.002  0.010  0.012
   21  0.000  0.002  0.010  0.012
   22  0.028  0.003  0.008  0.039
   23  0.000  0.002  0.010  0.012
   24  0.028  0.003  0.008  0.040
   25  0.017  0.009  0.002  0.028
   26  0.017  0.009  0.002  0.028
   27  0.028  0.003  0.008  0.039
   28  0.022  0.002  0.000  0.025
   29  0.001  0.002  0.004  0.006
   30  0.001  0.002  0.004  0.006
   31  0.001  0.002  0.004  0.006
   32  0.001  0.002  0.004  0.006
   33  0.001  0.002  0.004  0.006
   34  0.001  0.002  0.004  0.006
   35  0.008  0.002  0.002  0.013
   36  0.000  0.000  0.000  0.000
   37  0.000  0.000  0.000  0.000
tot    0.347  0.114  0.178  0.639
 
band     8 # energy   -5.79433470 # occ.  2.00000000
 
ion      s      p      d    tot
    1  0.000  0.002  0.003  0.005
    2  0.009  0.002  0.002  0.013
    3  0.000  0.001  0.002  0.003
    4  0.009  0.002  0.002  0.013
    5  0.000  0.000  0.003  0.003
    6  0.007  0.002  0.003  0.012
    7  0.000  0.001  0.002  0.003
    8  0.007  0.002  0.003  0.012
    9  0.000  0.003  0.006  0.009
   10  0.000  0.014  0.002  0.016
   11  0.010  0.004  0.005  0.019
   12  0.014  0.003  0.006  0.023
   13  0.011  0.004  0.005  0.019
   14  0.000  0.003  0.012  0.016
   15  0.047  0.004  0.007  0.058
   16  0.013  0.004  0.006  0.023
   17  0.048  0.004  0.007  0.059
   18  0.000  0.003  0.015  0.018
   19  0.040  0.004  0.006  0.050
   20  0.000  0.008  0.007  0.015
   21  0.001  0.003  0.005  0.010
   22  0.029  0.004  0.006  0.039
   23  0.001  0.003  0.005  0.010
   24  0.000  0.012  0.004  0.017
   25  0.000  0.000  0.017  0.017
   26  0.041  0.004  0.006  0.051
   27  0.028  0.004  0.006  0.038
   28  0.000  0.002  0.005  0.007
   29  0.009  0.002  0.002  0.014
   30  0.001  0.001  0.002  0.004
   31  0.009  0.002  0.002  0.014
   32  0.005  0.002  0.002  0.008
   33  0.001  0.001  0.002  0.004
   34  0.005  0.002  0.002  0.008
   35  0.000  0.003  0.004  0.007
   36  0.000  0.000  0.002  0.002
   37  0.000  0.000  0.000  0.000
tot    0.345  0.116  0.178  0.639
 
band     9 # energy   -5.79424934 # occ.  2.00000000
 
ion      s      p      d    tot
    1  0.000  0.002  0.003  0.005
    2  0.002  0.001  0.002  0.005
    3  0.011  0.003  0.003  0.016
    4  0.002  0.001  0.002  0.006
    5  0.000  0.000  0.003  0.003
    6  0.004  0.001  0.002  0.007
    7  0.011  0.003  0.003  0.016
    8  0.003  0.001  0.002  0.007
    9  0.000  0.003  0.006  0.009
   10  0.018  0.000  0.007  0.025
   11  0.004  0.003  0.010  0.017
   12  0.004  0.011  0.003  0.018
   13  0.003  0.004  0.010  0.017
   14  0.014  0.004  0.003  0.020
   15  0.017  0.004  0.012  0.032
   16  0.005  0.010  0.003  0.018
   17  0.015  0.004  0.012  0.031
   18  0.064  0.004  0.004  0.072
   19  0.014  0.002  0.013  0.029
   20  0.002  0.002  0.004  0.008
   21  0.000  0.006  0.006  0.013
   22  0.009  0.009  0.005  0.024
   23  0.000  0.006  0.006  0.013
   24  0.038  0.001  0.007  0.046
   25  0.054  0.005  0.003  0.061
   26  0.013  0.002  0.014  0.028
   27  0.010  0.009  0.005  0.024
   28  0.000  0.002  0.005  0.007
   29  0.001  0.001  0.002  0.003
   30  0.009  0.002  0.002  0.013
   31  0.001  0.001  0.002  0.003
   32  0.005  0.002  0.002  0.009
   33  0.009  0.002  0.002  0.013
   34  0.005  0.002  0.002  0.009
   35  0.000  0.003  0.004  0.007
   36  0.000  0.000  0.002  0.002
   37  0.000  0.000  0.000  0.000
tot    0.345  0.116  0.178  0.639
 
band    10 # energy   -5.77282083 # occ.  2.00000000
 
ion      s      p      d    tot
    1  0.002  0.001  0.005  0.008
    2  0.009  0.001  0.006  0.017
    3  0.009  0.001  0.006  0.017
    4  0.009  0.001  0.006  0.017
    5  0.040  0.001  0.002  0.043
    6  0.009  0.001  0.006  0.017
    7  0.009  0.001  0.006  0.017
    8  0.009  0.001  0.006  0.017
    9  0.002  0.001  0.007  0.010
   10  0.011  0.005  0.004  0.020
   11  0.005  0.005  0.006  0.016
   12  0.011  0.005  0.004  0.021
   13  0.005  0.005  0.006  0.016
   14  0.005  0.005  0.006  0.016
   15  0.016  0.002  0.007  0.025
   16  0.011  0.005  0.004  0.021
   17  0.016  0.002  0.007  0.025
   18  0.016  0.002  0.007  0.025
   19  0.015  0.003  0.005  0.023
   20  0.006  0.005  0.004  0.014
   21  0.006  0.005  0.004  0.014
   22  0.004  0.004  0.004  0.013
   23  0.006  0.005  0.004  0.014
   24  0.004  0.004  0.004  0.013
   25  0.015  0.003  0.005  0.024
   26  0.015  0.003  0.005  0.023
   27  0.004  0.004  0.004  0.013
   28  0.002  0.001  0.006  0.008
   29  0.009  0.001  0.005  0.014
   30  0.009  0.001  0.005  0.014
   31  0.009  0.001  0.005  0.014
   32  0.009  0.001  0.005  0.014
   33  0.009  0.001  0.005  0.014
   34  0.009  0.001  0.005  0.014
   35  0.005  0.000  0.003  0.009
   36  0.032  0.001  0.000  0.033
   37  0.002  0.007  0.000  0.009
tot    0.370  0.096  0.179  0.645
 
band    11 # energy   -5.14687992 # occ.  2.00000000
 
ion      s      p      d    tot
    1  0.010  0.000  0.002  0.013
    2  0.002  0.002  0.008  0.011
    3  0.002  0.002  0.008  0.011
    4  0.002  0.002  0.008  0.011
    5  0.012  0.004  0.005  0.021
    6  0.002  0.002  0.008  0.011
    7  0.002  0.002  0.008  0.011
    8  0.002  0.002  0.008  0.011
    9  0.018  0.001  0.001  0.020
   10  0.001  0.001  0.016  0.017
   11  0.018  0.003  0.009  0.029
   12  0.001  0.001  0.016  0.017
   13  0.018  0.003  0.009  0.029
   14  0.018  0.003  0.009  0.029
   15  0.001  0.001  0.012  0.014
   16  0.001  0.001  0.016  0.017
   17  0.001  0.001  0.012  0.014
   18  0.001  0.001  0.012  0.014
   19  0.000  0.000  0.006  0.006
   20  0.008  0.004  0.025  0.038
   21  0.008  0.004  0.025  0.038
   22  0.000  0.000  0.012  0.013
   23  0.008  0.004  0.025  0.038
   24  0.000  0.000  0.012  0.013
   25  0.000  0.000  0.006  0.006
   26  0.000  0.000  0.006  0.006
   27  0.000  0.000  0.012  0.013
   28  0.006  0.000  0.001  0.007
   29  0.001  0.001  0.004  0.006
   30  0.001  0.001  0.004  0.006
   31  0.001  0.001  0.004  0.006
   32  0.001  0.001  0.004  0.006
   33  0.001  0.001  0.004  0.006
   34  0.001  0.001  0.004  0.006
   35  0.008  0.000  0.001  0.009
   36  0.033  0.000  0.103  0.136
   37  0.007  0.121  0.000  0.128
tot    0.196  0.169  0.423  0.788
 
band    12 # energy   -5.04448326 # occ.  2.00000000
 
ion      s      p      d    tot
    1  0.000  0.002  0.009  0.011
    2  0.017  0.003  0.005  0.026
    3  0.000  0.002  0.005  0.007
    4  0.016  0.003  0.005  0.025
    5  0.000  0.006  0.009  0.015
    6  0.014  0.003  0.005  0.022
    7  0.000  0.002  0.005  0.007
    8  0.015  0.003  0.005  0.023
    9  0.000  0.001  0.012  0.013
   10  0.013  0.004  0.008  0.025
   11  0.006  0.002  0.020  0.028
   12  0.003  0.001  0.014  0.019
   13  0.005  0.002  0.021  0.028
   14  0.020  0.004  0.005  0.029
   15  0.000  0.003  0.015  0.018
   16  0.004  0.001  0.014  0.019
   17  0.000  0.003  0.016  0.019
   18  0.001  0.000  0.008  0.009
   19  0.000  0.003  0.017  0.020
   20  0.018  0.005  0.005  0.029
   21  0.004  0.002  0.023  0.029
   22  0.002  0.001  0.013  0.016
   23  0.005  0.002  0.022  0.029
   24  0.010  0.004  0.010  0.023
   25  0.001  0.000  0.007  0.008
   26  0.000  0.003  0.018  0.021
   27  0.003  0.002  0.012  0.017
   28  0.000  0.002  0.012  0.013
   29  0.019  0.003  0.004  0.026
   30  0.000  0.002  0.005  0.007
   31  0.018  0.003  0.004  0.025
   32  0.018  0.003  0.004  0.025
   33  0.000  0.002  0.005  0.007
   34  0.019  0.003  0.004  0.026
   35  0.000  0.001  0.009  0.011
   36  0.000  0.012  0.000  0.012
   37  0.000  0.010  0.000  0.010
tot    0.231  0.109  0.360  0.700
 
band    13 # energy   -5.04445268 # occ.  2.00000000
 
ion      s      p      d    tot
    1  0.000  0.002  0.009  0.011
    2  0.004  0.002  0.005  0.011
    3  0.021  0.004  0.005  0.030
    4  0.005  0.002  0.005  0.012
    5  0.000  0.006  0.009  0.015
    6  0.007  0.002  0.005  0.014
    7  0.021  0.004  0.005  0.030
    8  0.006  0.002  0.005  0.013
    9  0.000  0.001  0.012  0.013
   10  0.000  0.001  0.016  0.017
   11  0.015  0.003  0.010  0.029
   12  0.010  0.003  0.010  0.023
   13  0.016  0.004  0.010  0.029
   14  0.000  0.002  0.026  0.027
   15  0.001  0.001  0.011  0.012
   16  0.009  0.003  0.010  0.023
   17  0.001  0.001  0.010  0.012
   18  0.000  0.004  0.018  0.022
   19  0.001  0.001  0.011  0.013
   20  0.000  0.001  0.029  0.030
   21  0.014  0.004  0.011  0.029
   22  0.008  0.003  0.011  0.021
   23  0.013  0.004  0.012  0.029
   24  0.000  0.001  0.014  0.014
   25  0.000  0.003  0.021  0.025
   26  0.001  0.001  0.010  0.012
   27  0.007  0.003  0.011  0.021
   28  0.000  0.002  0.012  0.013
   29  0.006  0.002  0.005  0.013
   30  0.024  0.004  0.004  0.032
   31  0.007  0.002  0.005  0.014
   32  0.007  0.002  0.005  0.014
   33  0.024  0.004  0.004  0.032
   34  0.006  0.002  0.005  0.013
   35  0.000  0.001  0.009  0.011
   36  0.000  0.012  0.000  0.012
   37  0.000  0.010  0.000  0.010
tot    0.231  0.109  0.360  0.700
 
band    14 # energy   -5.02526794 # occ.  2.00000000
 
ion      s      p      d    tot
    1  0.034  0.004  0.000  0.038
    2  0.000  0.003  0.010  0.014
    3  0.000  0.003  0.010  0.014
    4  0.000  0.003  0.010  0.014
    5  0.000  0.000  0.000  0.000
    6  0.000  0.003  0.010  0.014
    7  0.000  0.003  0.010  0.014
    8  0.000  0.003  0.010  0.014
    9  0.031  0.003  0.000  0.035
   10  0.009  0.004  0.011  0.024
   11  0.001  0.000  0.015  0.016
   12  0.009  0.004  0.011  0.024
   13  0.001  0.000  0.015  0.016
   14  0.001  0.000  0.015  0.016
   15  0.006  0.003  0.019  0.028
   16  0.009  0.004  0.011  0.024
   17  0.006  0.003  0.019  0.028
   18  0.006  0.003  0.019  0.028
   19  0.006  0.004  0.016  0.027
   20  0.000  0.000  0.017  0.017
   21  0.000  0.000  0.017  0.017
   22  0.011  0.003  0.010  0.025
   23  0.000  0.000  0.017  0.017
   24  0.011  0.003  0.010  0.025
   25  0.006  0.004  0.016  0.027
   26  0.006  0.004  0.016  0.027
   27  0.011  0.003  0.010  0.025
   28  0.034  0.004  0.000  0.038
   29  0.000  0.003  0.010  0.012
   30  0.000  0.003  0.010  0.012
   31  0.000  0.003  0.010  0.012
   32  0.000  0.003  0.010  0.012
   33  0.000  0.003  0.010  0.012
   34  0.000  0.003  0.010  0.012
   35  0.027  0.003  0.001  0.031
   36  0.000  0.000  0.000  0.000
   37  0.000  0.000  0.000  0.000
tot    0.227  0.092  0.386  0.705
 
band    15 # energy   -5.01224122 # occ.  2.00000000
 
ion      s      p      d    tot
    1  0.000  0.004  0.011  0.016
    2  0.018  0.003  0.005  0.026
    3  0.000  0.002  0.005  0.007
    4  0.018  0.003  0.005  0.026
    5  0.000  0.000  0.012  0.012
    6  0.014  0.003  0.006  0.023
    7  0.000  0.002  0.005  0.007
    8  0.015  0.003  0.006  0.023
    9  0.000  0.005  0.008  0.013
   10  0.000  0.003  0.028  0.031
   11  0.002  0.002  0.011  0.015
   12  0.007  0.002  0.011  0.020
   13  0.002  0.002  0.011  0.015
   14  0.000  0.002  0.015  0.017
   15  0.015  0.004  0.011  0.030
   16  0.007  0.002  0.011  0.020
   17  0.015  0.004  0.011  0.030
   18  0.000  0.000  0.023  0.023
   19  0.016  0.004  0.011  0.031
   20  0.000  0.003  0.016  0.019
   21  0.001  0.001  0.012  0.015
   22  0.009  0.002  0.010  0.022
   23  0.001  0.002  0.012  0.015
   24  0.000  0.003  0.026  0.029
   25  0.000  0.000  0.023  0.023
   26  0.016  0.004  0.010  0.031
   27  0.009  0.002  0.011  0.022
   28  0.000  0.004  0.007  0.012
   29  0.015  0.003  0.005  0.023
   30  0.000  0.002  0.006  0.007
   31  0.015  0.003  0.005  0.023
   32  0.015  0.003  0.005  0.023
   33  0.000  0.002  0.006  0.007
   34  0.015  0.003  0.005  0.023
   35  0.000  0.005  0.010  0.015
   36  0.000  0.000  0.008  0.008
   37  0.000  0.000  0.000  0.000
tot    0.225  0.094  0.385  0.703
 
band    16 # energy   -5.01221265 # occ.  2.00000000
 
ion      s      p      d    tot
    1  0.000  0.004  0.011  0.016
    2  0.004  0.002  0.005  0.011
    3  0.021  0.004  0.006  0.031
    4  0.004  0.002  0.005  0.011
    5  0.000  0.000  0.012  0.012
    6  0.007  0.002  0.005  0.015
    7  0.021  0.004  0.006  0.031
    8  0.007  0.002  0.005  0.014
    9  0.000  0.005  0.008  0.013
   10  0.009  0.002  0.005  0.016
   11  0.001  0.002  0.013  0.016
   12  0.002  0.003  0.023  0.028
   13  0.001  0.002  0.014  0.016
   14  0.002  0.001  0.010  0.014
   15  0.005  0.002  0.019  0.025
   16  0.002  0.003  0.023  0.027
   17  0.005  0.002  0.019  0.025
   18  0.020  0.006  0.007  0.033
   19  0.006  0.001  0.019  0.026
   20  0.001  0.001  0.011  0.013
   21  0.000  0.002  0.015  0.018
   22  0.003  0.003  0.021  0.027
   23  0.000  0.002  0.015  0.018
   24  0.012  0.002  0.005  0.020
   25  0.022  0.005  0.006  0.033
   26  0.005  0.001  0.019  0.026
   27  0.003  0.003  0.021  0.027
   28  0.000  0.004  0.007  0.012
   29  0.005  0.002  0.005  0.012
   30  0.020  0.004  0.005  0.029
   31  0.005  0.002  0.005  0.013
   32  0.005  0.002  0.005  0.013
   33  0.020  0.004  0.005  0.029
   34  0.005  0.002  0.005  0.013
   35  0.000  0.005  0.010  0.015
   36  0.000  0.000  0.008  0.008
   37  0.000  0.000  0.000  0.000
tot    0.225  0.094  0.385  0.703
 
band    17 # energy   -4.98891851 # occ.  2.00000000
 
ion      s      p      d    tot
    1  0.000  0.001  0.006  0.007
    2  0.003  0.001  0.008  0.012
    3  0.003  0.001  0.008  0.012
    4  0.003  0.001  0.008  0.012
    5  0.024  0.000  0.004  0.028
    6  0.003  0.001  0.008  0.012
    7  0.003  0.001  0.008  0.012
    8  0.003  0.001  0.008  0.012
    9  0.000  0.001  0.007  0.008
   10  0.006  0.000  0.019  0.025
   11  0.000  0.001  0.020  0.021
   12  0.006  0.000  0.019  0.025
   13  0.000  0.001  0.020  0.021
   14  0.000  0.001  0.020  0.021
   15  0.009  0.001  0.020  0.030
   16  0.006  0.000  0.019  0.025
   17  0.009  0.001  0.020  0.030
   18  0.009  0.001  0.020  0.030
   19  0.012  0.000  0.023  0.035
   20  0.000  0.001  0.024  0.026
   21  0.000  0.001  0.024  0.026
   22  0.007  0.000  0.022  0.030
   23  0.000  0.001  0.024  0.026
   24  0.007  0.000  0.022  0.030
   25  0.012  0.000  0.023  0.035
   26  0.012  0.000  0.023  0.035
   27  0.007  0.000  0.022  0.030
   28  0.001  0.001  0.010  0.012
   29  0.005  0.001  0.010  0.015
   30  0.005  0.001  0.010  0.015
   31  0.005  0.001  0.010  0.015
   32  0.005  0.001  0.010  0.015
   33  0.005  0.001  0.010  0.015
   34  0.005  0.001  0.010  0.015
   35  0.001  0.001  0.009  0.010
   36  0.031  0.000  0.000  0.032
   37  0.003  0.020  0.000  0.023
tot    0.205  0.047  0.527  0.779
 
band    18 # energy   -4.67021592 # occ.  2.00000000
 
ion      s      p      d    tot
    1  0.010  0.000  0.000  0.011
    2  0.000  0.001  0.006  0.007
    3  0.000  0.001  0.006  0.007
    4  0.000  0.001  0.006  0.007
    5  0.014  0.001  0.000  0.016
    6  0.000  0.001  0.006  0.007
    7  0.000  0.001  0.006  0.007
    8  0.000  0.001  0.006  0.007
    9  0.001  0.000  0.000  0.001
   10  0.000  0.000  0.017  0.017
   11  0.001  0.003  0.015  0.019
   12  0.000  0.000  0.017  0.017
   13  0.001  0.003  0.015  0.019
   14  0.001  0.003  0.015  0.019
   15  0.000  0.000  0.002  0.002
   16  0.000  0.000  0.017  0.017
   17  0.000  0.000  0.002  0.002
   18  0.000  0.000  0.002  0.002
   19  0.001  0.000  0.013  0.015
   20  0.008  0.000  0.008  0.016
   21  0.008  0.000  0.008  0.016
   22  0.000  0.001  0.012  0.013
   23  0.008  0.000  0.008  0.016
   24  0.000  0.001  0.012  0.013
   25  0.001  0.000  0.013  0.015
   26  0.001  0.000  0.013  0.015
   27  0.000  0.001  0.012  0.013
   28  0.001  0.000  0.000  0.001
   29  0.000  0.001  0.006  0.008
   30  0.000  0.001  0.006  0.008
   31  0.000  0.001  0.006  0.008
   32  0.000  0.001  0.006  0.008
   33  0.000  0.001  0.006  0.008
   34  0.000  0.001  0.006  0.008
   35  0.008  0.001  0.000  0.009
   36  0.005  0.023  0.200  0.228
   37  0.011  0.260  0.000  0.271
tot    0.081  0.314  0.473  0.867
 
band    19 # energy   -4.65152224 # occ.  2.00000000
 
ion      s      p      d    tot
    1  0.000  0.001  0.001  0.001
    2  0.003  0.000  0.001  0.005
    3  0.002  0.000  0.001  0.003
    4  0.003  0.000  0.001  0.005
    5  0.000  0.001  0.003  0.003
    6  0.000  0.000  0.001  0.002
    7  0.002  0.000  0.001  0.003
    8  0.000  0.000  0.001  0.002
    9  0.000  0.000  0.004  0.004
   10  0.000  0.002  0.004  0.006
   11  0.000  0.000  0.008  0.008
   12  0.000  0.000  0.002  0.003
   13  0.000  0.000  0.008  0.008
   14  0.000  0.001  0.000  0.001
   15  0.000  0.000  0.003  0.003
   16  0.000  0.000  0.002  0.003
   17  0.000  0.000  0.003  0.003
   18  0.000  0.000  0.002  0.003
   19  0.000  0.000  0.004  0.004
   20  0.004  0.000  0.009  0.012
   21  0.001  0.000  0.009  0.010
   22  0.000  0.000  0.005  0.006
   23  0.001  0.000  0.009  0.010
   24  0.000  0.000  0.002  0.002
   25  0.000  0.000  0.002  0.002
   26  0.000  0.000  0.004  0.004
   27  0.000  0.000  0.005  0.006
   28  0.000  0.000  0.005  0.005
   29  0.008  0.002  0.012  0.022
   30  0.000  0.000  0.007  0.007
   31  0.008  0.002  0.012  0.022
   32  0.006  0.002  0.011  0.019
   33  0.000  0.000  0.007  0.007
   34  0.006  0.002  0.011  0.020
   35  0.000  0.000  0.007  0.007
   36  0.000  0.017  0.198  0.215
   37  0.000  0.306  0.000  0.306
tot    0.046  0.340  0.369  0.756
 
band    20 # energy   -4.65146451 # occ.  2.00000000
 
ion      s      p      d    tot
    1  0.000  0.001  0.001  0.001
    2  0.000  0.000  0.001  0.002
    3  0.002  0.000  0.001  0.004
    4  0.000  0.000  0.001  0.002
    5  0.000  0.001  0.003  0.003
    6  0.003  0.000  0.001  0.005
    7  0.002  0.000  0.001  0.004
    8  0.003  0.000  0.001  0.005
    9  0.000  0.000  0.004  0.004
   10  0.000  0.000  0.002  0.002
   11  0.000  0.000  0.003  0.003
   12  0.000  0.001  0.003  0.005
   13  0.000  0.000  0.003  0.003
   14  0.000  0.000  0.011  0.011
   15  0.000  0.000  0.003  0.003
   16  0.000  0.001  0.003  0.005
   17  0.000  0.000  0.003  0.003
   18  0.000  0.000  0.004  0.004
   19  0.000  0.000  0.003  0.003
   20  0.000  0.000  0.009  0.010
   21  0.003  0.000  0.009  0.012
   22  0.000  0.000  0.003  0.003
   23  0.003  0.000  0.009  0.012
   24  0.000  0.000  0.007  0.007
   25  0.000  0.000  0.005  0.005
   26  0.000  0.000  0.003  0.003
   27  0.000  0.000  0.003  0.003
   28  0.000  0.000  0.005  0.005
   29  0.002  0.001  0.008  0.010
   30  0.010  0.003  0.013  0.026
   31  0.002  0.001  0.008  0.010
   32  0.003  0.001  0.009  0.013
   33  0.010  0.003  0.013  0.026
   34  0.003  0.001  0.009  0.013
   35  0.000  0.000  0.007  0.007
   36  0.000  0.017  0.198  0.215
   37  0.000  0.306  0.000  0.306
tot    0.046  0.340  0.369  0.756
 
band    21 # energy   -4.32722286 # occ.  2.00000000
 
ion      s      p      d    tot
    1  0.000  0.000  0.037  0.037
    2  0.010  0.001  0.011  0.022
    3  0.014  0.001  0.010  0.025
    4  0.010  0.001  0.011  0.022
    5  0.000  0.002  0.004  0.006
    6  0.000  0.001  0.010  0.011
    7  0.014  0.001  0.010  0.025
    8  0.000  0.001  0.010  0.011
    9  0.000  0.002  0.018  0.020
   10  0.000  0.000  0.048  0.048
   11  0.001  0.005  0.018  0.024
   12  0.000  0.001  0.020  0.021
   13  0.001  0.005  0.018  0.024
   14  0.000  0.000  0.008  0.009
   15  0.001  0.002  0.017  0.020
   16  0.000  0.001  0.020  0.020
   17  0.001  0.002  0.017  0.021
   18  0.000  0.000  0.047  0.047
   19  0.000  0.003  0.017  0.020
   20  0.000  0.000  0.074  0.074
   21  0.000  0.000  0.022  0.023
   22  0.001  0.005  0.019  0.024
   23  0.000  0.000  0.021  0.022
   24  0.000  0.000  0.022  0.022
   25  0.000  0.000  0.015  0.015
   26  0.000  0.003  0.017  0.020
   27  0.001  0.005  0.019  0.024
   28  0.000  0.001  0.014  0.015
   29  0.014  0.001  0.008  0.024
   30  0.002  0.001  0.010  0.013
   31  0.014  0.001  0.008  0.024
   32  0.006  0.001  0.007  0.014
   33  0.002  0.001  0.010  0.013
   34  0.006  0.001  0.007  0.014
   35  0.000  0.003  0.002  0.005
   36  0.000  0.001  0.020  0.021