PROCAR new format
# of k-points:   10         # of bands:  252         # of ions:   38

 k-point     1 :    0.00000000 0.00000000 0.00000000     weight = 0.01562500

band     1 # energy  -48.72532944 # occ.  2.00000000
 
ion      s      p      d    tot
    1  0.000  0.000  0.000  0.000
    2  0.000  0.000  0.000  0.000
    3  0.000  0.000  0.000  0.000
    4  0.000  0.000  0.000  0.000
    5  0.000  0.000  0.000  0.000
    6  0.000  0.000  0.000  0.000
    7  0.000  0.000  0.000  0.000
    8  0.000  0.000  0.000  0.000
    9  0.000  0.000  0.000  0.000
   10  0.000  0.000  0.000  0.000
   11  0.000  0.000  0.000  0.000
   12  0.000  0.000  0.000  0.000
   13  0.000  0.000  0.000  0.000
   14  0.000  0.000  0.000  0.000
   15  0.000  0.000  0.000  0.000
   16  0.000  0.000  0.000  0.000
   17  0.000  0.000  0.000  0.000
   18  0.000  0.000  0.000  0.000
   19  0.000  0.000  0.000  0.000
   20  0.000  0.000  0.000  0.000
   21  0.000  0.000  0.000  0.000
   22  0.000  0.000  0.000  0.000
   23  0.000  0.000  0.000  0.000
   24  0.000  0.000  0.000  0.000
   25  0.000  0.000  0.000  0.000
   26  0.000  0.000  0.000  0.000
   27  0.000  0.000  0.000  0.000
   28  0.000  0.000  0.000  0.000
   29  0.000  0.000  0.000  0.000
   30  0.000  0.000  0.000  0.000
   31  0.000  0.000  0.000  0.000
   32  0.000  0.000  0.000  0.000
   33  0.000  0.000  0.000  0.000
   34  0.000  0.000  0.000  0.000
   35  0.000  0.000  0.000  0.000
   36  0.993  0.000  0.000  0.993
   37  0.000  0.000  0.000  0.000
   38  0.000  0.000  0.000  0.000
tot    0.993  0.000  0.000  0.993
 
band     2 # energy  -26.82568089 # occ.  2.00000000
 
ion      s      p      d    tot
    1  0.000  0.000  0.000  0.000
    2  0.000  0.000  0.000  0.000
    3  0.000  0.000  0.000  0.000
    4  0.000  0.000  0.000  0.000
    5  0.000  0.000  0.000  0.000
    6  0.000  0.000  0.000  0.000
    7  0.000  0.000  0.000  0.000
    8  0.000  0.000  0.000  0.000
    9  0.000  0.000  0.000  0.000
   10  0.000  0.000  0.000  0.000
   11  0.000  0.000  0.000  0.000
   12  0.000  0.000  0.000  0.000
   13  0.000  0.000  0.000  0.000
   14  0.000  0.000  0.000  0.000
   15  0.000  0.000  0.000  0.000
   16  0.000  0.000  0.000  0.000
   17  0.000  0.000  0.000  0.000
   18  0.000  0.000  0.000  0.000
   19  0.000  0.000  0.000  0.000
   20  0.000  0.000  0.000  0.000
   21  0.000  0.000  0.000  0.000
   22  0.000  0.000  0.000  0.000
   23  0.000  0.000  0.000  0.000
   24  0.000  0.000  0.000  0.000
   25  0.000  0.000  0.000  0.000
   26  0.000  0.000  0.000  0.000
   27  0.000  0.000  0.000  0.000
   28  0.000  0.000  0.000  0.000
   29  0.000  0.000  0.000  0.000
   30  0.000  0.001  0.000  0.001
   31  0.000  0.000  0.000  0.000
   32  0.000  0.000  0.000  0.000
   33  0.000  0.001  0.000  0.001
   34  0.000  0.000  0.000  0.000
   35  0.000  0.000  0.000  0.000
   36  0.000  0.969  0.000  0.969
   37  0.000  0.000  0.000  0.000
   38  0.000  0.000  0.000  0.000
tot    0.001  0.970  0.001  0.972
 
band     3 # energy  -26.82567129 # occ.  2.00000000
 
ion      s      p      d    tot
    1  0.000  0.000  0.000  0.000
    2  0.000  0.000  0.000  0.000
    3  0.000  0.000  0.000  0.000
    4  0.000  0.000  0.000  0.000
    5  0.000  0.000  0.000  0.000
    6  0.000  0.000  0.000  0.000
    7  0.000  0.000  0.000  0.000
    8  0.000  0.000  0.000  0.000
    9  0.000  0.000  0.000  0.000
   10  0.000  0.000  0.000  0.000
   11  0.000  0.000  0.000  0.000
   12  0.000  0.000  0.000  0.000
   13  0.000  0.000  0.000  0.000
   14  0.000  0.000  0.000  0.000
   15  0.000  0.000  0.000  0.000
   16  0.000  0.000  0.000  0.000
   17  0.000  0.000  0.000  0.000
   18  0.000  0.000  0.000  0.000
   19  0.000  0.000  0.000  0.000
   20  0.000  0.000  0.000  0.000
   21  0.000  0.000  0.000  0.000
   22  0.000  0.000  0.000  0.000
   23  0.000  0.000  0.000  0.000
   24  0.000  0.000  0.000  0.000
   25  0.000  0.000  0.000  0.000
   26  0.000  0.000  0.000  0.000
   27  0.000  0.000  0.000  0.000
   28  0.000  0.000  0.000  0.000
   29  0.000  0.000  0.000  0.001
   30  0.000  0.000  0.000  0.000
   31  0.000  0.000  0.000  0.001
   32  0.000  0.000  0.000  0.001
   33  0.000  0.000  0.000  0.000
   34  0.000  0.000  0.000  0.001
   35  0.000  0.000  0.000  0.000
   36  0.000  0.969  0.000  0.969
   37  0.000  0.000  0.000  0.000
   38  0.000  0.000  0.000  0.000
tot    0.001  0.970  0.001  0.972
 
band     4 # energy  -26.79952472 # occ.  2.00000000
 
ion      s      p      d    tot
    1  0.000  0.000  0.000  0.000
    2  0.000  0.000  0.000  0.000
    3  0.000  0.000  0.000  0.000
    4  0.000  0.000  0.000  0.000
    5  0.000  0.000  0.000  0.000
    6  0.000  0.000  0.000  0.000
    7  0.000  0.000  0.000  0.000
    8  0.000  0.000  0.000  0.000
    9  0.000  0.000  0.000  0.000
   10  0.000  0.000  0.000  0.000
   11  0.000  0.000  0.000  0.000
   12  0.000  0.000  0.000  0.000
   13  0.000  0.000  0.000  0.000
   14  0.000  0.000  0.000  0.000
   15  0.000  0.000  0.000  0.000
   16  0.000  0.000  0.000  0.000
   17  0.000  0.000  0.000  0.000
   18  0.000  0.000  0.000  0.000
   19  0.000  0.000  0.000  0.000
   20  0.000  0.000  0.000  0.000
   21  0.000  0.000  0.000  0.000
   22  0.000  0.000  0.000  0.000
   23  0.000  0.000  0.000  0.000
   24  0.000  0.000  0.000  0.000
   25  0.000  0.000  0.000  0.000
   26  0.000  0.000  0.000  0.000
   27  0.000  0.000  0.000  0.000
   28  0.000  0.000  0.000  0.000
   29  0.000  0.000  0.000  0.000
   30  0.000  0.000  0.000  0.000
   31  0.000  0.000  0.000  0.000
   32  0.000  0.000  0.000  0.000
   33  0.000  0.000  0.000  0.000
   34  0.000  0.000  0.000  0.000
   35  0.000  0.000  0.000  0.000
   36  0.000  0.966  0.000  0.966
   37  0.002  0.001  0.000  0.002
   38  0.000  0.000  0.000  0.000
tot    0.002  0.967  0.000  0.970
 
band     5 # energy  -24.16491915 # occ.  2.00000000
 
ion      s      p      d    tot
    1  0.000  0.000  0.000  0.000
    2  0.000  0.000  0.000  0.000
    3  0.000  0.000  0.000  0.000
    4  0.000  0.000  0.000  0.000
    5  0.000  0.000  0.000  0.000
    6  0.000  0.000  0.000  0.000
    7  0.000  0.000  0.000  0.000
    8  0.000  0.000  0.000  0.000
    9  0.000  0.000  0.000  0.000
   10  0.000  0.000  0.000  0.000
   11  0.000  0.000  0.000  0.000
   12  0.000  0.000  0.000  0.000
   13  0.000  0.000  0.000  0.000
   14  0.000  0.000  0.000  0.000
   15  0.000  0.000  0.000  0.000
   16  0.000  0.000  0.000  0.000
   17  0.000  0.000  0.000  0.000
   18  0.000  0.000  0.000  0.000
   19  0.000  0.000  0.000  0.000
   20  0.000  0.000  0.000  0.000
   21  0.000  0.000  0.000  0.000
   22  0.000  0.000  0.000  0.000
   23  0.000  0.000  0.000  0.000
   24  0.000  0.000  0.000  0.000
   25  0.000  0.000  0.000  0.000
   26  0.000  0.000  0.000  0.000
   27  0.000  0.000  0.000  0.000
   28  0.000  0.000  0.000  0.000
   29  0.000  0.000  0.000  0.000
   30  0.000  0.000  0.000  0.000
   31  0.000  0.000  0.000  0.000
   32  0.000  0.000  0.000  0.000
   33  0.000  0.000  0.000  0.000
   34  0.000  0.000  0.000  0.000
   35  0.000  0.000  0.000  0.000
   36  0.000  0.001  0.000  0.001
   37  0.159  0.122  0.000  0.281
   38  0.643  0.097  0.000  0.740
tot    0.802  0.220  0.000  1.022
 
band     6 # energy   -9.25301607 # occ.  2.00000000
 
ion      s      p      d    tot
    1  0.000  0.000  0.000  0.000
    2  0.000  0.000  0.000  0.000
    3  0.000  0.000  0.000  0.000
    4  0.000  0.000  0.000  0.000
    5  0.000  0.000  0.000  0.000
    6  0.000  0.000  0.000  0.000
    7  0.000  0.000  0.000  0.000
    8  0.000  0.000  0.000  0.000
    9  0.000  0.000  0.000  0.000
   10  0.000  0.000  0.000  0.000
   11  0.000  0.000  0.000  0.000
   12  0.000  0.000  0.000  0.000
   13  0.000  0.000  0.000  0.000
   14  0.000  0.000  0.000  0.000
   15  0.000  0.000  0.000  0.000
   16  0.000  0.000  0.000  0.000
   17  0.000  0.000  0.000  0.000
   18  0.000  0.000  0.000  0.000
   19  0.000  0.000  0.000  0.000
   20  0.000  0.000  0.000  0.000
   21  0.000  0.000  0.000  0.000
   22  0.000  0.000  0.000  0.000
   23  0.000  0.000  0.000  0.000
   24  0.000  0.000  0.000  0.000
   25  0.000  0.000  0.000  0.000
   26  0.000  0.000  0.000  0.000
   27  0.000  0.000  0.000  0.000
   28  0.000  0.000  0.000  0.000
   29  0.000  0.000  0.000  0.000
   30  0.000  0.000  0.000  0.000
   31  0.000  0.000  0.000  0.000
   32  0.000  0.000  0.000  0.000
   33  0.000  0.000  0.000  0.000
   34  0.000  0.000  0.000  0.000
   35  0.000  0.000  0.000  0.000
   36  0.004  0.003  0.006  0.013
   37  0.237  0.002  0.000  0.239
   38  0.164  0.353  0.000  0.517
tot    0.406  0.358  0.006  0.771
 
band     7 # energy   -8.43071740 # occ.  2.00000000
 
ion      s      p      d    tot
    1  0.007  0.001  0.000  0.007
    2  0.007  0.001  0.000  0.007
    3  0.007  0.001  0.000  0.007
    4  0.007  0.001  0.000  0.007
    5  0.007  0.001  0.000  0.007
    6  0.007  0.001  0.000  0.007
    7  0.007  0.001  0.000  0.007
    8  0.007  0.001  0.000  0.007
    9  0.007  0.001  0.000  0.007
   10  0.025  0.000  0.000  0.025
   11  0.024  0.000  0.000  0.024
   12  0.025  0.000  0.000  0.025
   13  0.024  0.000  0.000  0.024
   14  0.024  0.000  0.000  0.024
   15  0.025  0.000  0.000  0.025
   16  0.025  0.000  0.000  0.025
   17  0.025  0.000  0.000  0.025
   18  0.025  0.000  0.000  0.025
   19  0.026  0.000  0.000  0.026
   20  0.023  0.000  0.000  0.023
   21  0.023  0.000  0.000  0.023
   22  0.024  0.000  0.000  0.025
   23  0.023  0.000  0.000  0.023
   24  0.024  0.000  0.000  0.025
   25  0.026  0.000  0.000  0.026
   26  0.026  0.000  0.000  0.026
   27  0.024  0.000  0.000  0.025
   28  0.007  0.001  0.000  0.008
   29  0.007  0.001  0.000  0.008
   30  0.007  0.001  0.000  0.008
   31  0.007  0.001  0.000  0.008
   32  0.007  0.001  0.000  0.008
   33  0.007  0.001  0.000  0.008
   34  0.007  0.001  0.000  0.008
   35  0.007  0.001  0.000  0.008
   36  0.002  0.001  0.000  0.003
   37  0.000  0.001  0.000  0.001
   38  0.001  0.003  0.000  0.004
tot    0.559  0.019  0.001  0.580
 
band     8 # energy   -7.15279199 # occ.  2.00000000
 
ion      s      p      d    tot
    1  0.017  0.001  0.000  0.019
    2  0.017  0.001  0.000  0.019
    3  0.017  0.001  0.000  0.019
    4  0.017  0.001  0.000  0.019
    5  0.018  0.001  0.000  0.019
    6  0.017  0.001  0.000  0.019
    7  0.017  0.001  0.000  0.019
    8  0.017  0.001  0.000  0.019
    9  0.017  0.001  0.000  0.019
   10  0.010  0.002  0.001  0.013
   11  0.010  0.002  0.000  0.013
   12  0.010  0.002  0.001  0.013
   13  0.010  0.002  0.000  0.013
   14  0.010  0.002  0.000  0.013
   15  0.010  0.002  0.001  0.012
   16  0.010  0.002  0.001  0.013
   17  0.010  0.002  0.001  0.012
   18  0.010  0.002  0.001  0.012
   19  0.010  0.002  0.000  0.013
   20  0.008  0.002  0.001  0.011
   21  0.008  0.002  0.001  0.011
   22  0.010  0.002  0.000  0.013
   23  0.008  0.002  0.001  0.011
   24  0.010  0.002  0.000  0.013
   25  0.010  0.002  0.000  0.013
   26  0.010  0.002  0.000  0.013
   27  0.010  0.002  0.000  0.013
   28  0.020  0.001  0.001  0.022
   29  0.019  0.001  0.001  0.020
   30  0.019  0.001  0.001  0.020
   31  0.019  0.001  0.001  0.020
   32  0.019  0.001  0.001  0.020
   33  0.019  0.001  0.001  0.020
   34  0.019  0.001  0.001  0.020
   35  0.020  0.001  0.001  0.022
   36  0.009  0.000  0.000  0.009
   37  0.000  0.003  0.000  0.004
   38  0.000  0.005  0.000  0.006
tot    0.497  0.061  0.019  0.577
 
band     9 # energy   -6.77140154 # occ.  2.00000000
 
ion      s      p      d    tot
    1  0.000  0.000  0.000  0.000
    2  0.000  0.000  0.000  0.000
    3  0.000  0.000  0.000  0.000
    4  0.000  0.000  0.000  0.000
    5  0.000  0.000  0.000  0.000
    6  0.000  0.000  0.000  0.000
    7  0.000  0.000  0.000  0.000
    8  0.000  0.000  0.000  0.000
    9  0.000  0.000  0.000  0.000
   10  0.000  0.000  0.000  0.000
   11  0.000  0.000  0.000  0.000
   12  0.000  0.000  0.000  0.000
   13  0.000  0.000  0.000  0.000
   14  0.000  0.000  0.000  0.000
   15  0.000  0.000  0.000  0.000
   16  0.000  0.000  0.000  0.000
   17  0.000  0.000  0.000  0.000
   18  0.000  0.000  0.000  0.000
   19  0.000  0.000  0.000  0.000
   20  0.000  0.000  0.000  0.000
   21  0.000  0.000  0.000  0.000
   22  0.000  0.000  0.000  0.000
   23  0.000  0.000  0.000  0.000
   24  0.000  0.000  0.000  0.000
   25  0.000  0.000  0.000  0.000
   26  0.000  0.000  0.000  0.000
   27  0.000  0.000  0.000  0.000
   28  0.000  0.000  0.000  0.000
   29  0.000  0.000  0.000  0.000
   30  0.000  0.000  0.000  0.000
   31  0.000  0.000  0.000  0.000
   32  0.000  0.000  0.000  0.000
   33  0.000  0.000  0.000  0.000
   34  0.000  0.000  0.000  0.000
   35  0.000  0.000  0.000  0.000
   36  0.000  0.000  0.002  0.002
   37  0.000  0.168  0.000  0.168
   38  0.000  0.519  0.000  0.519
tot    0.000  0.687  0.002  0.690
 
band    10 # energy   -6.77132076 # occ.  2.00000000
 
ion      s      p      d    tot
    1  0.000  0.000  0.000  0.000
    2  0.000  0.000  0.000  0.000
    3  0.000  0.000  0.000  0.000
    4  0.000  0.000  0.000  0.000
    5  0.000  0.000  0.000  0.000
    6  0.000  0.000  0.000  0.000
    7  0.000  0.000  0.000  0.000
    8  0.000  0.000  0.000  0.000
    9  0.000  0.000  0.000  0.000
   10  0.000  0.000  0.000  0.000
   11  0.000  0.000  0.000  0.000
   12  0.000  0.000  0.000  0.000
   13  0.000  0.000  0.000  0.000
   14  0.000  0.000  0.000  0.000
   15  0.000  0.000  0.000  0.000
   16  0.000  0.000  0.000  0.000
   17  0.000  0.000  0.000  0.000
   18  0.000  0.000  0.000  0.000
   19  0.000  0.000  0.000  0.000
   20  0.000  0.000  0.000  0.000
   21  0.000  0.000  0.000  0.000
   22  0.000  0.000  0.000  0.000
   23  0.000  0.000  0.000  0.000
   24  0.000  0.000  0.000  0.000
   25  0.000  0.000  0.000  0.000
   26  0.000  0.000  0.000  0.000
   27  0.000  0.000  0.000  0.000
   28  0.000  0.000  0.000  0.000
   29  0.000  0.000  0.000  0.000
   30  0.000  0.000  0.000  0.000
   31  0.000  0.000  0.000  0.000
   32  0.000  0.000  0.000  0.000
   33  0.000  0.000  0.000  0.000
   34  0.000  0.000  0.000  0.000
   35  0.000  0.000  0.000  0.000
   36  0.000  0.000  0.002  0.002
   37  0.000  0.168  0.000  0.168
   38  0.000  0.519  0.000  0.519
tot    0.000  0.687  0.002  0.690
 
band    11 # energy   -5.94503141 # occ.  2.00000000
 
ion      s      p      d    tot
    1  0.001  0.000  0.000  0.001
    2  0.001  0.000  0.000  0.001
    3  0.001  0.000  0.000  0.001
    4  0.001  0.000  0.000  0.001
    5  0.002  0.000  0.000  0.003
    6  0.001  0.000  0.000  0.001
    7  0.001  0.000  0.000  0.001
    8  0.001  0.000  0.000  0.001
    9  0.001  0.000  0.000  0.001
   10  0.000  0.000  0.000  0.001
   11  0.000  0.000  0.000  0.001
   12  0.000  0.000  0.000  0.001
   13  0.000  0.000  0.000  0.001
   14  0.000  0.000  0.000  0.001
   15  0.001  0.000  0.000  0.001
   16  0.000  0.000  0.000  0.001
   17  0.001  0.000  0.000  0.001
   18  0.001  0.000  0.000  0.001
   19  0.004  0.000  0.001  0.005
   20  0.001  0.001  0.002  0.004
   21  0.001  0.001  0.002  0.004
   22  0.002  0.000  0.000  0.003
   23  0.001  0.001  0.002  0.004
   24  0.002  0.000  0.000  0.003
   25  0.004  0.000  0.001  0.005
   26  0.004  0.000  0.001  0.005
   27  0.002  0.000  0.000  0.003
   28  0.001  0.000  0.000  0.001
   29  0.000  0.000  0.000  0.001
   30  0.000  0.000  0.000  0.001
   31  0.000  0.000  0.000  0.001
   32  0.000  0.000  0.000  0.001
   33  0.000  0.000  0.000  0.001
   34  0.000  0.000  0.000  0.001
   35  0.000  0.000  0.000  0.001
   36  0.025  0.009  0.045  0.079
   37  0.079  0.235  0.000  0.314
   38  0.003  0.188  0.000  0.191
tot    0.144  0.444  0.060  0.648
 
band    12 # energy   -5.55412682 # occ.  2.00000000
 
ion      s      p      d    tot
    1  0.017  0.000  0.005  0.022
    2  0.014  0.000  0.005  0.020
    3  0.014  0.000  0.005  0.020
    4  0.014  0.000  0.005  0.020
    5  0.006  0.000  0.006  0.013
    6  0.014  0.000  0.005  0.020
    7  0.014  0.000  0.005  0.020
    8  0.014  0.000  0.005  0.020
    9  0.022  0.000  0.004  0.026
   10  0.002  0.003  0.002  0.008
   11  0.011  0.005  0.001  0.017
   12  0.002  0.003  0.002  0.008
   13  0.011  0.005  0.001  0.017
   14  0.011  0.005  0.001  0.017
   15  0.000  0.003  0.003  0.006
   16  0.002  0.003  0.002  0.008
   17  0.000  0.003  0.003  0.006
   18  0.000  0.003  0.003  0.006
   19  0.001  0.003  0.006  0.010
   20  0.019  0.004  0.002  0.024
   21  0.019  0.004  0.002  0.024
   22  0.001  0.004  0.004  0.009
   23  0.019  0.004  0.002  0.024
   24  0.001  0.004  0.004  0.009
   25  0.001  0.003  0.006  0.010
   26  0.001  0.003  0.006  0.010
   27  0.001  0.004  0.004  0.009
   28  0.023  0.000  0.006  0.029
   29  0.016  0.001  0.008  0.025
   30  0.016  0.001  0.008  0.025
   31  0.016  0.001  0.008  0.025
   32  0.016  0.001  0.008  0.025
   33  0.016  0.001  0.008  0.025
   34  0.016  0.001  0.008  0.025
   35  0.027  0.000  0.006  0.033
   36  0.002  0.000  0.011  0.013
   37  0.001  0.002  0.000  0.003
   38  0.000  0.001  0.000  0.001
tot    0.382  0.070  0.176  0.628
 
band    13 # energy   -5.48246062 # occ.  2.00000000
 
ion      s      p      d    tot
    1  0.000  0.002  0.003  0.006
    2  0.004  0.001  0.002  0.007
    3  0.008  0.002  0.002  0.012
    4  0.004  0.001  0.002  0.007
    5  0.000  0.000  0.002  0.002
    6  0.001  0.001  0.002  0.003
    7  0.008  0.002  0.002  0.012
    8  0.001  0.001  0.002  0.003
    9  0.000  0.002  0.004  0.006
   10  0.032  0.001  0.006  0.039
   11  0.001  0.005  0.006  0.011
   12  0.008  0.009  0.005  0.022
   13  0.001  0.005  0.005  0.011
   14  0.002  0.002  0.003  0.007
   15  0.011  0.002  0.012  0.025
   16  0.007  0.009  0.005  0.021
   17  0.013  0.002  0.011  0.026
   18  0.050  0.004  0.003  0.057
   19  0.016  0.003  0.013  0.032
   20  0.011  0.003  0.003  0.018
   21  0.003  0.004  0.009  0.016
   22  0.006  0.010  0.002  0.019
   23  0.003  0.004  0.010  0.016
   24  0.021  0.000  0.007  0.028
   25  0.067  0.004  0.004  0.075
   26  0.018  0.003  0.012  0.034
   27  0.005  0.011  0.002  0.018
   28  0.000  0.004  0.007  0.011
   29  0.005  0.002  0.003  0.010
   30  0.016  0.003  0.005  0.024
   31  0.004  0.002  0.003  0.009
   32  0.004  0.002  0.004  0.009
   33  0.016  0.003  0.005  0.024
   34  0.004  0.002  0.004  0.009
   35  0.000  0.003  0.004  0.007
   36  0.000  0.000  0.004  0.004
   37  0.000  0.000  0.000  0.000
   38  0.000  0.000  0.000  0.000
tot    0.348  0.114  0.178  0.640
 
band    14 # energy   -5.48238600 # occ.  2.00000000
 
ion      s      p      d    tot
    1  0.000  0.002  0.003  0.006
    2  0.004  0.001  0.002  0.008
    3  0.000  0.001  0.002  0.003
    4  0.005  0.001  0.002  0.008
    5  0.000  0.000  0.002  0.002
    6  0.008  0.002  0.002  0.012
    7  0.000  0.001  0.002  0.003
    8  0.008  0.002  0.002  0.012
    9  0.000  0.002  0.004  0.006
   10  0.000  0.011  0.004  0.016
   11  0.002  0.003  0.004  0.009
   12  0.023  0.004  0.006  0.032
   13  0.002  0.003  0.004  0.009
   14  0.000  0.006  0.006  0.012
   15  0.038  0.004  0.005  0.047
   16  0.024  0.003  0.006  0.033
   17  0.036  0.003  0.006  0.046
   18  0.000  0.001  0.014  0.015
   19  0.051  0.004  0.007  0.062
   20  0.000  0.004  0.012  0.016
   21  0.008  0.004  0.005  0.017
   22  0.016  0.004  0.005  0.025
   23  0.009  0.004  0.005  0.017
   24  0.000  0.014  0.001  0.015
   25  0.000  0.003  0.015  0.018
   26  0.049  0.004  0.007  0.060
   27  0.016  0.003  0.005  0.025
   28  0.000  0.004  0.007  0.011
   29  0.012  0.003  0.004  0.019
   30  0.000  0.001  0.003  0.004
   31  0.012  0.003  0.005  0.019
   32  0.013  0.003  0.004  0.020
   33  0.000  0.001  0.003  0.004
   34  0.012  0.003  0.004  0.019
   35  0.000  0.003  0.004  0.007
   36  0.000  0.000  0.004  0.004
   37  0.000  0.000  0.000  0.000
   38  0.000  0.000  0.000  0.000
tot    0.348  0.114  0.178  0.640
 
band    15 # energy   -5.45986970 # occ.  2.00000000
 
ion      s      p      d    tot
    1  0.018  0.003  0.001  0.022
    2  0.000  0.002  0.004  0.005
    3  0.000  0.002  0.004  0.005
    4  0.000  0.002  0.004  0.005
    5  0.002  0.000  0.000  0.002
    6  0.000  0.002  0.004  0.005
    7  0.000  0.002  0.004  0.005
    8  0.000  0.002  0.004  0.005
    9  0.009  0.001  0.000  0.011
   10  0.030  0.006  0.006  0.041
   11  0.005  0.000  0.011  0.016
   12  0.030  0.006  0.006  0.041
   13  0.005  0.000  0.011  0.016
   14  0.005  0.000  0.011  0.016
   15  0.011  0.008  0.004  0.022
   16  0.030  0.006  0.006  0.041
   17  0.011  0.008  0.004  0.022
   18  0.011  0.008  0.004  0.022
   19  0.023  0.010  0.002  0.035
   20  0.000  0.002  0.010  0.013
   21  0.000  0.002  0.010  0.013
   22  0.025  0.002  0.009  0.036
   23  0.000  0.002  0.010  0.013
   24  0.025  0.002  0.009  0.036
   25  0.024  0.010  0.002  0.035
   26  0.023  0.010  0.002  0.035
   27  0.025  0.002  0.009  0.036
   28  0.018  0.003  0.001  0.021
   29  0.000  0.002  0.005  0.007
   30  0.000  0.002  0.005  0.007
   31  0.000  0.002  0.005  0.007
   32  0.000  0.002  0.005  0.007
   33  0.000  0.002  0.005  0.007
   34  0.000  0.002  0.005  0.007
   35  0.016  0.002  0.001  0.019
   36  0.000  0.000  0.000  0.000
   37  0.000  0.000  0.000  0.000
   38  0.000  0.000  0.000  0.000
tot    0.345  0.115  0.182  0.642
 
band    16 # energy   -5.42587302 # occ.  2.00000000
 
ion      s      p      d    tot
    1  0.000  0.001  0.004  0.005
    2  0.005  0.002  0.002  0.009
    3  0.010  0.002  0.002  0.015
    4  0.004  0.002  0.002  0.008
    5  0.000  0.003  0.006  0.009
    6  0.001  0.001  0.002  0.004
    7  0.010  0.002  0.002  0.014
    8  0.001  0.001  0.002  0.004
    9  0.000  0.001  0.002  0.004
   10  0.000  0.001  0.015  0.016
   11  0.046  0.004  0.006  0.056
   12  0.020  0.003  0.006  0.029
   13  0.043  0.004  0.007  0.053
   14  0.000  0.006  0.011  0.017
   15  0.005  0.003  0.005  0.013
   16  0.022  0.004  0.005  0.030
   17  0.004  0.004  0.005  0.013
   18  0.000  0.013  0.002  0.015
   19  0.000  0.003  0.005  0.009
   20  0.000  0.010  0.007  0.017
   21  0.037  0.004  0.007  0.048
   22  0.031  0.004  0.006  0.041
   23  0.040  0.004  0.007  0.050
   24  0.000  0.000  0.017  0.017
   25  0.000  0.011  0.004  0.015
   26  0.000  0.004  0.005  0.009
   27  0.034  0.004  0.006  0.043
   28  0.000  0.000  0.003  0.003
   29  0.003  0.001  0.003  0.007
   30  0.010  0.003  0.003  0.016
   31  0.003  0.001  0.003  0.007
   32  0.002  0.001  0.003  0.006
   33  0.010  0.003  0.004  0.016
   34  0.002  0.001  0.003  0.007
   35  0.000  0.001  0.005  0.007
   36  0.000  0.001  0.004  0.005
   37  0.000  0.000  0.000  0.000
   38  0.000  0.000  0.000  0.000
tot    0.342  0.114  0.180  0.636
 
band    17 # energy   -5.42580666 # occ.  2.00000000
 
ion      s      p      d    tot
    1  0.000  0.001  0.004  0.005
    2  0.005  0.002  0.002  0.009
    3  0.000  0.001  0.002  0.003
    4  0.006  0.002  0.002  0.010
    5  0.000  0.003  0.006  0.009
    6  0.009  0.002  0.003  0.014
    7  0.001  0.001  0.002  0.004
    8  0.009  0.002  0.003  0.014
    9  0.000  0.001  0.002  0.004
   10  0.028  0.004  0.002  0.034
   11  0.013  0.006  0.010  0.028
   12  0.008  0.002  0.011  0.021
   13  0.016  0.005  0.009  0.031
   14  0.059  0.003  0.005  0.067
   15  0.001  0.010  0.003  0.014
   16  0.006  0.002  0.012  0.020
   17  0.002  0.009  0.003  0.014
   18  0.006  0.000  0.006  0.012
   19  0.000  0.009  0.004  0.013
   20  0.051  0.002  0.006  0.059
   21  0.014  0.008  0.007  0.029
   22  0.012  0.001  0.013  0.026
   23  0.011  0.008  0.007  0.027
   24  0.044  0.005  0.002  0.051
   25  0.000  0.001  0.005  0.007
   26  0.000  0.008  0.004  0.013
   27  0.010  0.001  0.014  0.025
   28  0.000  0.000  0.003  0.003
   29  0.007  0.002  0.003  0.012
   30  0.000  0.001  0.002  0.003
   31  0.007  0.002  0.003  0.013
   32  0.008  0.002  0.003  0.014
   33  0.000  0.001  0.002  0.003
   34  0.008  0.002  0.003  0.013
   35  0.000  0.001  0.005  0.007
   36  0.000  0.001  0.004  0.005
   37  0.000  0.000  0.000  0.000
   38  0.000  0.000  0.000  0.000
tot    0.342  0.114  0.180  0.636
 
band    18 # energy   -5.30014011 # occ.  2.00000000
 
ion      s      p      d    tot
    1  0.000  0.000  0.001  0.001
    2  0.001  0.002  0.006  0.010
    3  0.001  0.002  0.006  0.010
    4  0.001  0.002  0.006  0.010
    5  0.039  0.003  0.000  0.042
    6  0.001  0.002  0.006  0.010
    7  0.001  0.002  0.006  0.010
    8  0.001  0.002  0.006  0.010
    9  0.006  0.002  0.004  0.012
   10  0.003  0.004  0.009  0.016
   11  0.021  0.009  0.004  0.034
   12  0.003  0.004  0.009  0.016
   13  0.021  0.009  0.004  0.034
   14  0.021  0.009  0.004  0.034
   15  0.028  0.002  0.012  0.042
   16  0.003  0.004  0.009  0.016
   17  0.028  0.002  0.012  0.042
   18  0.028  0.002  0.012  0.042
   19  0.005  0.002  0.008  0.015
   20  0.017  0.003  0.007  0.027
   21  0.017  0.003  0.007  0.027
   22  0.006  0.006  0.005  0.017
   23  0.017  0.003  0.007  0.027
   24  0.006  0.006  0.005  0.017
   25  0.005  0.002  0.008  0.015
   26  0.005  0.002  0.008  0.015
   27  0.006  0.006  0.005  0.017
   28  0.001  0.000  0.003  0.004
   29  0.002  0.000  0.003  0.006
   30  0.002  0.000  0.003  0.006
   31  0.002  0.000  0.003  0.006
   32  0.002  0.000  0.003  0.006
   33  0.002  0.000  0.003  0.006
   34  0.002  0.000  0.003  0.006
   35  0.000  0.000  0.002  0.002
   36  0.001  0.003  0.003  0.008
   37  0.007  0.015  0.000  0.022
   38  0.000  0.010  0.000  0.010
tot    0.318  0.128  0.201  0.648
 
band    19 # energy   -4.75362015 # occ.  2.00000000
 
ion      s      p      d    tot
    1  0.000  0.004  0.010  0.014
    2  0.005  0.002  0.005  0.012
    3  0.020  0.004  0.005  0.029
    4  0.005  0.002  0.005  0.012
    5  0.000  0.000  0.010  0.010
    6  0.005  0.002  0.005  0.012
    7  0.021  0.004  0.005  0.029
    8  0.006  0.002  0.005  0.012
    9  0.000  0.005  0.009  0.013
   10  0.014  0.001  0.006  0.021
   11  0.001  0.003  0.012  0.016
   12  0.003  0.004  0.015  0.022
   13  0.001  0.003  0.012  0.016
   14  0.003  0.001  0.007  0.011
   15  0.007  0.001  0.017  0.026
   16  0.003  0.004  0.015  0.022
   17  0.007  0.001  0.017  0.026
   18  0.028  0.005  0.005  0.038
   19  0.003  0.002  0.013  0.017
   20  0.001  0.001  0.009  0.011
   21  0.000  0.001  0.012  0.013
   22  0.002  0.002  0.024  0.027
   23  0.000  0.001  0.012  0.013
   24  0.006  0.002  0.003  0.011
   25  0.011  0.007  0.010  0.028
   26  0.003  0.002  0.013  0.017
   27  0.001  0.002  0.024  0.027
   28  0.000  0.005  0.008  0.013
   29  0.007  0.002  0.008  0.018
   30  0.027  0.003  0.011  0.042
   31  0.007  0.002  0.008  0.017
   32  0.006  0.002  0.008  0.017
   33  0.027  0.003  0.011  0.042
   34  0.007  0.002  0.008  0.017
   35  0.000  0.005  0.011  0.016
   36  0.000  0.000  0.011  0.011
   37  0.000  0.000  0.000  0.000
   38  0.000  0.000  0.000  0.000
tot    0.237  0.093  0.369  0.700
 
band    20 # energy   -4.75356635 # occ.  2.00000000
 
ion      s      p      d    tot
    1  0.000  0.004  0.010  0.014
    2  0.016  0.003  0.005  0.024
    3  0.000  0.002  0.005  0.006
    4  0.016  0.003  0.005  0.024
    5  0.000  0.000  0.010  0.010
    6  0.015  0.003  0.005  0.024
    7  0.000  0.002  0.005  0.006
    8  0.015  0.003  0.005  0.023
    9  0.000  0.005  0.009  0.013
   10  0.000  0.005  0.017  0.022
   11  0.002  0.002  0.009  0.013
   12  0.010  0.002  0.009  0.021
   13  0.002  0.002  0.009  0.013
   14  0.000  0.003  0.014  0.017
   15  0.021  0.004  0.009  0.034
   16  0.010  0.002  0.009  0.021
   17  0.021  0.003  0.009  0.034
   18  0.000  0.000  0.022  0.022
   19  0.008  0.005  0.011  0.024
   20  0.000  0.002  0.012  0.014
   21  0.001  0.001  0.010  0.012
   22  0.004  0.002  0.010  0.017
   23  0.001  0.001  0.010  0.012
   24  0.000  0.002  0.031  0.033
   25  0.000  0.000  0.014  0.014
   26  0.008  0.005  0.011  0.024
   27  0.005  0.002  0.010  0.016
   28  0.000  0.005  0.008  0.013
   29  0.020  0.003  0.010  0.033
   30  0.000  0.002  0.007  0.009
   31  0.020  0.003  0.010  0.033
   32  0.021  0.003  0.010  0.034
   33  0.000  0.002  0.007  0.009
   34  0.021  0.003  0.010  0.034
   35  0.000  0.005  0.011  0.016
   36  0.000  0.000  0.011  0.011
   37  0.000  0.000  0.000  0.000
   38  0.000  0.000  0.000  0.000
tot    0.237  0.093  0.369  0.700
 
band    21 # energy   -4.71340088 # occ.  2.00000000
 
ion      s      p      d    tot
    1  0.003  0.001  0.010  0.013
    2  0.005  0.001  0.010  0.016
    3  0.005  0.001  0.010  0.016
    4  0.005  0.001  0.010  0.016
    5  0.001  0.001  0.009  0.011
    6  0.005  0.001  0.010  0.016
    7  0.005  0.001  0.010  0.016
    8  0.005  0.001  0.010  0.016
    9  0.019  0.000  0.007  0.026
   10  0.010  0.000  0.024  0.034
   11  0.009  0.000  0.021  0.030
   12  0.010  0.000  0.024  0.034
   13  0.009  0.000  0.021  0.030
   14  0.009  0.000  0.021  0.030
   15  0.002  0.000  0.023  0.025
   16  0.010  0.000  0.024  0.034