 vasp.6.2.0 18Jan21 (build Jun 12 2021 23:27:24) complex                        
  
 executed on             LinuxIFC date 2022.05.28  02:42:39
 running on   28 total cores
 distrk:  each k-point on   28 cores,    1 groups
 distr:  one band on NCORE=   1 cores,   28 groups


--------------------------------------------------------------------------------------------------------


 INCAR:
   ISMEAR = -5
   SIGMA = 0.1
   ISPIN = 1
   EDIFF = 1.d-5
   EDIFFG = -0.01
   NSW = 0
   NELM = 150
   ENCUT = 500
   ISIF = 2
   IBRION = 2
   LREAL = Auto
   ALGO = Fast
   ICHARG = 11
   LORBIT = 10
   LCHARG = .F.
   LWAVE = .F.

 POTCAR:    PAW_PBE Cu 22Jun2005                  
 POTCAR:    PAW_PBE Hf 20Jan2003                  
 POTCAR:    PAW_PBE H 15Jun2001                   
 POTCAR:    PAW_PBE O 08Apr2002                   
 -----------------------------------------------------------------------------
|                                                                             |
|           W    W    AA    RRRRR   N    N  II  N    N   GGGG   !!!           |
|           W    W   A  A   R    R  NN   N  II  NN   N  G    G  !!!           |
|           W    W  A    A  R    R  N N  N  II  N N  N  G       !!!           |
|           W WW W  AAAAAA  RRRRR   N  N N  II  N  N N  G  GGG   !            |
|           WW  WW  A    A  R   R   N   NN  II  N   NN  G    G                |
|           W    W  A    A  R    R  N    N  II  N    N   GGGG   !!!           |
|                                                                             |
|     For optimal performance we recommend to set                             |
|       NCORE = 2 up to number-of-cores-per-socket                            |
|     NCORE specifies how many cores store one orbital (NPAR=cpu/NCORE).      |
|     This setting can greatly improve the performance of VASP for DFT.       |
|     The default, NCORE=1 might be grossly inefficient on modern             |
|     multi-core architectures or massively parallel machines. Do your        |
|     own testing! More info at https://www.vasp.at/wiki/index.php/NCORE      |
|     Unfortunately you need to use the default for GW and RPA                |
|     calculations (for HF NCORE is supported but not extensively tested      |
|     yet).                                                                   |
|                                                                             |
 -----------------------------------------------------------------------------

 POTCAR:    PAW_PBE Cu 22Jun2005                  
   VRHFIN =Cu: d10 p1                                                                               
   LEXCH  = PE                                                                                      
   EATOM  =  1390.9808 eV,  102.2342 Ry                                                             
                                                                                                    
   TITEL  = PAW_PBE Cu 22Jun2005                                                                    
   LULTRA =        F    use ultrasoft PP ?                                                          
   IUNSCR =        1    unscreen: 0-lin 1-nonlin 2-no                                               
   RPACOR =    2.000    partial core radius                                                         
   POMASS =   63.546; ZVAL   =   11.000    mass and valenz                                          
   RCORE  =    2.300    outmost cutoff radius                                                       
   RWIGS  =    2.200; RWIGS  =    1.164    wigner-seitz radius (au A)                               
   ENMAX  =  295.446; ENMIN  =  221.585 eV                                                          
   ICORE  =        3    local potential                                                             
   LCOR   =        T    correct aug charges                                                         
   LPAW   =        T    paw PP                                                                      
   EAUG   =  586.980                                                                                
   DEXC   =    0.000                                                                                
   RMAX   =    2.344    core radius for proj-oper                                                   
   RAUG   =    1.300    factor for augmentation sphere                                              
   RDEP   =    2.302    radius for radial grids                                                     
   RDEPT  =    1.771    core radius for aug-charge                                                  
                                                                                                    
   Atomic configuration                                                                             
    9 entries                                                                                       
     n  l   j            E        occ.                                                              
     1  0  0.50     -8850.2468   2.0000                                                             
     2  0  0.50     -1062.3498   2.0000                                                             
     2  1  1.50      -916.8226   6.0000                                                             
     3  0  0.50      -114.6929   2.0000                                                             
     3  1  1.50       -72.1325   6.0000                                                             
     3  2  2.50        -5.0394  10.0000                                                             
     4  0  0.50        -4.6097   1.0000                                                             
     4  1  0.50        -4.0817   0.0000                                                             
     4  3  2.50        -1.3606   0.0000                                                             
   Description                                                                                      
     l       E           TYP  RCUT    TYP  RCUT                                                     
     2     -5.0393973     23  2.200                                                                 
     2     10.8846608     23  2.200                                                                 
     0     -4.6097109     23  2.200                                                                 
     0      8.2520465     23  2.200                                                                 
     1     -2.7211652     23  2.200                                                                 
     1     21.7055443     23  2.200                                                                 
     3      2.7211652     23  2.300                                                                 
  local pseudopotential read in
  partial core-charges read in
  partial kinetic energy density read in
  atomic valenz-charges read in
  non local Contribution for L=           2  read in
    real space projection operators read in
  non local Contribution for L=           2  read in
    real space projection operators read in
  non local Contribution for L=           0  read in
    real space projection operators read in
  non local Contribution for L=           0  read in
    real space projection operators read in
  non local Contribution for L=           1  read in
    real space projection operators read in
  non local Contribution for L=           1  read in
    real space projection operators read in
    PAW grid and wavefunctions read in
 
   number of l-projection  operators is LMAX  =           6
   number of lm-projection operators is LMMAX =          18
 
 POTCAR:    PAW_PBE Hf 20Jan2003                  
   VRHFIN =Hf: 6s5d                                                                                 
   LEXCH  = PE                                                                                      
   EATOM  =    75.9011 eV,    5.5786 Ry                                                             
                                                                                                    
   TITEL  = PAW_PBE Hf 20Jan2003                                                                    
   LULTRA =        F    use ultrasoft PP ?                                                          
   IUNSCR =        1    unscreen: 0-lin 1-nonlin 2-no                                               
   RPACOR =    2.500    partial core radius                                                         
   POMASS =  178.490; ZVAL   =    4.000    mass and valenz                                          
   RCORE  =    3.000    outmost cutoff radius                                                       
   RWIGS  =    3.050; RWIGS  =    1.614    wigner-seitz radius (au A)                               
   ENMAX  =  220.334; ENMIN  =  165.250 eV                                                          
   RCLOC  =    2.212    cutoff for local pot                                                        
   LCOR   =        T    correct aug charges                                                         
   LPAW   =        T    paw PP                                                                      
   EAUG   =  335.116                                                                                
   DEXC   =    0.000                                                                                
   RMAX   =    3.077    core radius for proj-oper                                                   
   RAUG   =    1.300    factor for augmentation sphere                                              
   RDEP   =    3.047    radius for radial grids                                                     
   RDEPT  =    2.344    core radius for aug-charge                                                  
                                                                                                    
   Atomic configuration                                                                             
   16 entries                                                                                       
     n  l   j            E        occ.                                                              
     1  0  0.50    -65259.4397   2.0000                                                             
     2  0  0.50    -11157.9882   2.0000                                                             
     2  1  1.50     -9795.2113   6.0000                                                             
     3  0  0.50     -2541.4058   2.0000                                                             
     3  1  1.50     -2134.4770   6.0000                                                             
     3  2  2.50     -1653.5418  10.0000                                                             
     4  0  0.50      -510.9575   2.0000                                                             
     4  1  1.50      -377.5023   6.0000                                                             
     4  2  2.50      -205.2085  10.0000                                                             
     4  3  3.50       -15.4905  14.0000                                                             
     5  0  0.50       -65.6020   2.0000                                                             
     5  1  1.50       -34.2798   6.0000                                                             
     5  2  2.50        -1.9877   3.0000                                                             
     6  0  0.50        -4.7357   1.0000                                                             
     6  1  1.50        -1.3606   0.0000                                                             
     5  3  2.50        -1.3606   0.0000                                                             
   Description                                                                                      
     l       E           TYP  RCUT    TYP  RCUT                                                     
     2     -1.9876627     23  2.500                                                                 
     2      0.0744703     23  2.500                                                                 
     0     -4.7356889     23  2.600                                                                 
     0      3.2364747     23  2.600                                                                 
     1     -1.3605826     23  3.000                                                                 
     1     27.2116520     23  3.000                                                                 
  local pseudopotential read in
  partial core-charges read in
  partial kinetic energy density read in
  atomic valenz-charges read in
  non local Contribution for L=           2  read in
    real space projection operators read in
  non local Contribution for L=           2  read in
    real space projection operators read in
  non local Contribution for L=           0  read in
    real space projection operators read in
  non local Contribution for L=           0  read in
    real space projection operators read in
  non local Contribution for L=           1  read in
    real space projection operators read in
  non local Contribution for L=           1  read in
    real space projection operators read in
    PAW grid and wavefunctions read in
 
   number of l-projection  operators is LMAX  =           6
   number of lm-projection operators is LMMAX =          18
 
 POTCAR:    PAW_PBE H 15Jun2001                   
   VRHFIN =H: ultrasoft test                                                                        
   LEXCH  = PE                                                                                      
   EATOM  =    12.4884 eV,    0.9179 Ry                                                             
                                                                                                    
   TITEL  = PAW_PBE H 15Jun2001                                                                     
   LULTRA =        F    use ultrasoft PP ?                                                          
   IUNSCR =        0    unscreen: 0-lin 1-nonlin 2-no                                               
   RPACOR =    0.000    partial core radius                                                         
   POMASS =    1.000; ZVAL   =    1.000    mass and valenz                                          
   RCORE  =    1.100    outmost cutoff radius                                                       
   RWIGS  =    0.700; RWIGS  =    0.370    wigner-seitz radius (au A)                               
   ENMAX  =  250.000; ENMIN  =  200.000 eV                                                          
   RCLOC  =    0.701    cutoff for local pot                                                        
   LCOR   =        T    correct aug charges                                                         
   LPAW   =        T    paw PP                                                                      
   EAUG   =  400.000                                                                                
   RMAX   =    1.123    core radius for proj-oper                                                   
   RAUG   =    1.200    factor for augmentation sphere                                              
   RDEP   =    1.112    radius for radial grids                                                     
   RDEPT  =    0.926    core radius for aug-charge                                                  
                                                                                                    
   Atomic configuration                                                                             
    2 entries                                                                                       
     n  l   j            E        occ.                                                              
     1  0  0.50        -6.4927   1.0000                                                             
     2  1  0.50        -3.4015   0.0000                                                             
   Description                                                                                      
     l       E           TYP  RCUT    TYP  RCUT                                                     
     0     -6.4927494     23  1.100                                                                 
     0      6.8029130     23  1.100                                                                 
     1     -4.0817478     23  1.100                                                                 
  local pseudopotential read in
  atomic valenz-charges read in
  non local Contribution for L=           0  read in
    real space projection operators read in
  non local Contribution for L=           0  read in
    real space projection operators read in
  non local Contribution for L=           1  read in
    real space projection operators read in
    PAW grid and wavefunctions read in
 
   number of l-projection  operators is LMAX  =           3
   number of lm-projection operators is LMMAX =           5
 
 POTCAR:    PAW_PBE O 08Apr2002                   
   VRHFIN =O: s2p4                                                                                  
   LEXCH  = PE                                                                                      
   EATOM  =   432.3788 eV,   31.7789 Ry                                                             
                                                                                                    
   TITEL  = PAW_PBE O 08Apr2002                                                                     
   LULTRA =        F    use ultrasoft PP ?                                                          
   IUNSCR =        1    unscreen: 0-lin 1-nonlin 2-no                                               
   RPACOR =    1.200    partial core radius                                                         
   POMASS =   16.000; ZVAL   =    6.000    mass and valenz                                          
   RCORE  =    1.520    outmost cutoff radius                                                       
   RWIGS  =    1.550; RWIGS  =    0.820    wigner-seitz radius (au A)                               
   ENMAX  =  400.000; ENMIN  =  300.000 eV                                                          
   ICORE  =        2    local potential                                                             
   LCOR   =        T    correct aug charges                                                         
   LPAW   =        T    paw PP                                                                      
   EAUG   =  605.392                                                                                
   DEXC   =    0.000                                                                                
   RMAX   =    1.553    core radius for proj-oper                                                   
   RAUG   =    1.300    factor for augmentation sphere                                              
   RDEP   =    1.550    radius for radial grids                                                     
   RDEPT  =    1.329    core radius for aug-charge                                                  
                                                                                                    
   Atomic configuration                                                                             
    4 entries                                                                                       
     n  l   j            E        occ.                                                              
     1  0  0.50      -514.6923   2.0000                                                             
     2  0  0.50       -23.9615   2.0000                                                             
     2  1  0.50        -9.0305   4.0000                                                             
     3  2  1.50        -9.5241   0.0000                                                             
   Description                                                                                      
     l       E           TYP  RCUT    TYP  RCUT                                                     
     0    -23.9615318     23  1.200                                                                 
     0     -9.5240782     23  1.200                                                                 
     1     -9.0304911     23  1.520                                                                 
     1      8.1634956     23  1.520                                                                 
     2     -9.5240782      7  1.500                                                                 
  local pseudopotential read in
  partial core-charges read in
  partial kinetic energy density read in
  kinetic energy density of atom read in
  atomic valenz-charges read in
  non local Contribution for L=           0  read in
    real space projection operators read in
  non local Contribution for L=           0  read in
    real space projection operators read in
  non local Contribution for L=           1  read in
    real space projection operators read in
  non local Contribution for L=           1  read in
    real space projection operators read in
    PAW grid and wavefunctions read in
 
   number of l-projection  operators is LMAX  =           4
   number of lm-projection operators is LMMAX =           8
 
 Optimization of the real space projectors (new method)

 maximal supplied QI-value         = 16.25
 optimisation between [QCUT,QGAM] = [ 11.38, 22.75] = [ 36.24,144.96] Ry 
 Optimized for a Real-space Cutoff    1.52 Angstroem

   l    n(q)    QCUT    max X(q) W(low)/X(q) W(high)/X(q)  e(spline) 
   2      9    11.376     4.610    0.21E-03    0.10E-03    0.26E-06
   2      9    11.376     8.522    0.33E-03    0.16E-03    0.37E-06
   0     10    11.376    51.609    0.62E-04    0.20E-04    0.13E-06
   0     10    11.376    27.747    0.54E-04    0.20E-04    0.13E-06
   1     10    11.376    20.408    0.13E-04    0.99E-04    0.19E-06
   1     10    11.376    13.425    0.12E-04    0.87E-04    0.17E-06
 Optimization of the real space projectors (new method)

 maximal supplied QI-value         = 12.47
 optimisation between [QCUT,QGAM] = [ 11.35, 22.82] = [ 36.07,145.88] Ry 
 Optimized for a Real-space Cutoff    1.66 Angstroem

   l    n(q)    QCUT    max X(q) W(low)/X(q) W(high)/X(q)  e(spline) 
   2     10    11.350    48.111    0.20E-03    0.11E-03    0.41E-06
   2     10    11.350    40.545    0.19E-03    0.10E-03    0.39E-06
   0     11    11.350   121.658    0.22E-04    0.19E-04    0.24E-06
   0     11    11.350    71.177    0.17E-04    0.17E-04    0.23E-06
   1     11    11.350    14.183    0.25E-03    0.43E-03    0.12E-05
   1     11    11.350     8.257    0.17E-03    0.29E-03    0.81E-06
 Optimization of the real space projectors (new method)

 maximal supplied QI-value         = 34.20
 optimisation between [QCUT,QGAM] = [ 11.29, 22.57] = [ 35.68,142.71] Ry 
 Optimized for a Real-space Cutoff    1.16 Angstroem

   l    n(q)    QCUT    max X(q) W(low)/X(q) W(high)/X(q)  e(spline) 
   0      8    11.287    19.460    0.40E-03    0.73E-03    0.16E-06
   0      8    11.287    12.209    0.38E-03    0.70E-03    0.15E-06
   1      7    11.287     4.655    0.22E-03    0.25E-04    0.22E-06
 Optimization of the real space projectors (new method)

 maximal supplied QI-value         = 24.76
 optimisation between [QCUT,QGAM] = [ 11.39, 22.77] = [ 36.31,145.25] Ry 
 Optimized for a Real-space Cutoff    1.00 Angstroem

   l    n(q)    QCUT    max X(q) W(low)/X(q) W(high)/X(q)  e(spline) 
   0      7    11.387    20.381    0.39E-03    0.13E-02    0.15E-06
   0      7    11.387    15.268    0.42E-03    0.14E-02    0.17E-06
   1      6    11.387     5.964    0.41E-03    0.11E-02    0.17E-06
   1      6    11.387     5.382    0.39E-03    0.87E-03    0.15E-06
  PAW_PBE Cu 22Jun2005                  :
 energy of atom  1       EATOM=-1390.9808
 kinetic energy error for atom=    0.0043 (will be added to EATOM!!)
  PAW_PBE Hf 20Jan2003                  :
 energy of atom  2       EATOM=  -75.9011
 kinetic energy error for atom=    0.0007 (will be added to EATOM!!)
  PAW_PBE H 15Jun2001                   :
 energy of atom  3       EATOM=  -12.4884
 kinetic energy error for atom=    0.0020 (will be added to EATOM!!)
  PAW_PBE O 08Apr2002                   :
 energy of atom  4       EATOM= -432.3788
 kinetic energy error for atom=    0.0224 (will be added to EATOM!!)
 
 
 POSCAR: Cu-Hf-H2O
  positions in direct lattice
  velocities in cartesian coordinates
 exchange correlation table for  LEXCH =        8
   RHO(1)=    0.500       N(1)  =     2000
   RHO(2)=  100.500       N(2)  =     4000

 VTST: version 3.2, (02/03/18)

 CHAIN: initializing optimizer
 
 OPT: Using VASP Conjugate-Gradient optimizer
 CHAIN: Read ICHAIN            0
 
 POSCAR: Cu-Hf-H2O
  positions in direct lattice
  velocities in cartesian coordinates
 


--------------------------------------------------------------------------------------------------------


 ion  position               nearest neighbor table
   1  0.000  0.000  0.221-   7 2.57   3 2.57   4 2.57   2 2.57   6 2.57   8 2.57  12 2.57  10 2.57
                            16 2.57
   2  0.333  0.000  0.221-   8 2.57   9 2.57   5 2.57   1 2.57   3 2.57  11 2.57   4 2.57  10 2.57
                            17 2.57
   3  0.667  0.000  0.221-   1 2.57   7 2.57   6 2.57   9 2.57   2 2.57  12 2.57   5 2.57  18 2.57
                            11 2.57
   4  0.000  0.333  0.221-   5 2.57   6 2.57   1 2.57   7 2.57   2 2.57  13 2.57   9 2.57  10 2.57
                            15 2.57
   5  0.333  0.333  0.221-   4 2.57   2 2.57   7 2.57  13 2.57   8 2.57   6 2.57   3 2.57  11 2.57
                            14 2.57
   6  0.667  0.333  0.221-   4 2.57   9 2.57  15 2.57   3 2.57   1 2.57   8 2.57  14 2.57   5 2.57
                            12 2.57
   7  0.000  0.667  0.221-   1 2.57   3 2.57  16 2.57  18 2.57   4 2.57   5 2.57   8 2.57   9 2.57
                            13 2.57
   8  0.333  0.667  0.221-   9 2.57   2 2.57  17 2.57   6 2.57   1 2.57   7 2.57   5 2.57  14 2.57
                            16 2.57
   9  0.667  0.667  0.221-   8 2.57   6 2.57   2 2.57  17 2.57   3 2.57   7 2.57   4 2.57  15 2.57
                            18 2.57
  10  0.111  0.111  0.308-  26 2.54  19 2.54  11 2.57  12 2.57  13 2.57   1 2.57   2 2.57   4 2.57
                            15 2.57  16 2.57  17 2.57  20 2.58
  11  0.444  0.111  0.308-  27 2.56  10 2.57  13 2.57   2 2.57  17 2.57  14 2.57  12 2.57   5 2.57
                             3 2.57  18 2.57  20 2.57  21 2.57
  12  0.778  0.111  0.308-  19 2.54  25 2.54  15 2.57  10 2.57  14 2.57  18 2.57   3 2.57   1 2.57
                            16 2.57  11 2.57   6 2.57  21 2.58
  13  0.111  0.444  0.308-  22 2.56  16 2.57  18 2.57  10 2.57  11 2.57  14 2.57   5 2.57   4 2.57
                             7 2.57  15 2.57  23 2.57  20 2.57
  14  0.444  0.444  0.308-  24 2.56  15 2.57  17 2.57  12 2.57  16 2.57  13 2.57  11 2.57   6 2.57
                             8 2.57   5 2.57  21 2.57  23 2.57
  15  0.778  0.444  0.308-  19 2.55  24 2.56  22 2.56  14 2.57  17 2.57  12 2.57   6 2.57  18 2.57
                            10 2.57   9 2.57  13 2.57   4 2.57
  16  0.111  0.778  0.308-  25 2.54  26 2.54  18 2.57  13 2.57   7 2.57  14 2.57  17 2.57  12 2.57
                            10 2.57   8 2.57   1 2.57  23 2.58
  17  0.444  0.778  0.308-  26 2.55  27 2.56  24 2.56  14 2.57  15 2.57   8 2.57   9 2.57  11 2.57
                            16 2.57  18 2.57  10 2.57   2 2.57
  18  0.778  0.778  0.308-  25 2.55  22 2.56  27 2.56  16 2.57  13 2.57   7 2.57  15 2.57  12 2.57
                            17 2.57   9 2.57   3 2.57  11 2.57
  19  0.889  0.221  0.393-  12 2.54  10 2.54  15 2.55  25 2.56  26 2.56  32 2.57  31 2.57  22 2.57
                            24 2.57  21 2.57  20 2.57  28 2.57
  20  0.223  0.223  0.394-  23 2.55  21 2.55  27 2.57  22 2.57  26 2.57  19 2.57  11 2.57  13 2.57
                            10 2.58  29 2.58  31 2.58  36 2.77
  21  0.555  0.223  0.394-  20 2.55  23 2.55  24 2.57  27 2.57  19 2.57  25 2.57  14 2.57  11 2.57
                            12 2.58  32 2.58  30 2.58  36 2.77
  22  0.889  0.556  0.394-  18 2.56  15 2.56  13 2.56  24 2.56  27 2.56  23 2.57  20 2.57  31 2.57
                            33 2.57  19 2.57  25 2.57  35 2.58
  23  0.223  0.555  0.394-  20 2.55  21 2.55  22 2.57  24 2.57  25 2.57  26 2.57  13 2.57  14 2.57
                            16 2.58  33 2.58  34 2.58  36 2.77
  24  0.556  0.556  0.394-  15 2.56  17 2.56  14 2.56  22 2.56  27 2.56  21 2.57  23 2.57  32 2.57
                            34 2.57  19 2.57  26 2.57  35 2.58
  25  0.889  0.889  0.393-  12 2.54  16 2.54  18 2.55  19 2.56  26 2.56  33 2.57  30 2.57  22 2.57
                            27 2.57  21 2.57  23 2.57  28 2.57
  26  0.221  0.889  0.393-  10 2.54  16 2.54  17 2.55  25 2.56  19 2.56  29 2.57  34 2.57  27 2.57
                            24 2.57  20 2.57  23 2.57  28 2.57
  27  0.556  0.889  0.394-  17 2.56  18 2.56  11 2.56  24 2.56  22 2.56  20 2.57  21 2.57  29 2.57
                            30 2.57  26 2.57  25 2.57  35 2.58
  28  0.000  0.000  0.480-  33 2.55  30 2.55  31 2.55  29 2.55  32 2.55  34 2.55  25 2.57  19 2.57
                            26 2.57
  29  0.334  0.994  0.480-  34 2.48  35 2.54  28 2.55  26 2.57  27 2.57  20 2.58  30 2.60  31 2.61
                            36 2.62
  30  0.672  0.994  0.480-  33 2.48  35 2.54  28 2.55  25 2.57  27 2.57  21 2.58  29 2.60  32 2.61
                            36 2.62
  31  0.994  0.334  0.480-  32 2.48  35 2.54  28 2.55  19 2.57  22 2.57  20 2.58  33 2.60  29 2.61
                            36 2.62
  32  0.672  0.334  0.480-  31 2.48  35 2.54  28 2.55  19 2.57  24 2.57  21 2.58  34 2.60  30 2.61
                            36 2.62
  33  0.994  0.672  0.480-  30 2.48  35 2.54  28 2.55  25 2.57  22 2.57  23 2.58  31 2.60  34 2.61
                            36 2.62
  34  0.334  0.672  0.480-  29 2.48  35 2.54  28 2.55  26 2.57  24 2.57  23 2.58  32 2.60  33 2.61
                            36 2.62
  35  0.667  0.667  0.481-  34 2.54  32 2.54  29 2.54  30 2.54  33 2.54  31 2.54  24 2.58  27 2.58
                            22 2.58
  36  0.333  0.333  0.491-  39 2.26  31 2.62  29 2.62  33 2.62  32 2.62  34 2.62  30 2.62  23 2.77
                            20 2.77  21 2.77
  37  0.289  0.210  0.592-  39 0.98
  38  0.498  0.201  0.591-  39 0.98
  39  0.355  0.289  0.583-  37 0.98  38 0.98  36 2.26
 
  LATTYP: Found a hexagonal cell.
 ALAT       =     7.6967864036
 C/A-ratio  =     3.1535378041
  
  Lattice vectors:
  
 A1 = (  -3.8483927580,  -6.6656128093,   0.0000000000)
 A2 = (   7.6967864037,   0.0000000000,   0.0000000000)
 A3 = (   0.0000000000,   0.0000000000,  24.2721068937)


Analysis of symmetry for initial positions (statically):
=====================================================================
 Subroutine PRICEL returns:
 Original cell was already a primitive cell.
 

 Routine SETGRP: Setting up the symmetry group for a 
 hexagonal supercell.


 Subroutine GETGRP returns: Found  1 space group operations
 (whereof  1 operations were pure point group operations)
 out of a pool of 24 trial point group operations.


The static configuration has the point symmetry C_1 .


Analysis of symmetry for dynamics (positions and initial velocities):
=====================================================================
 Subroutine PRICEL returns:
 Original cell was already a primitive cell.
 

 Routine SETGRP: Setting up the symmetry group for a 
 hexagonal supercell.


 Subroutine GETGRP returns: Found  1 space group operations
 (whereof  1 operations were pure point group operations)
 out of a pool of 24 trial point group operations.


The dynamic configuration has the point symmetry C_1 .


Analysis of constrained symmetry for selective dynamics:
=====================================================================
 Subroutine PRICEL returns:
 Original cell was already a primitive cell.
 

 Routine SETGRP: Setting up the symmetry group for a 
 hexagonal supercell.


 Subroutine GETGRP returns: Found  1 space group operations
 (whereof  1 operations were pure point group operations)
 out of a pool of 24 trial point group operations.


The constrained configuration has the point symmetry C_1 .


 Subroutine INISYM returns: Found  1 space group operations
 (whereof  1 operations are pure point group operations),
 and found     1 'primitive' translations


----------------------------------------------------------------------------------------

                                     Primitive cell                                     

  volume of cell :    1245.2513

  direct lattice vectors                    reciprocal lattice vectors
     7.696786404  0.000000000  0.000000000     0.129924354 -0.075011849  0.000000000
     3.848392758  6.665612809  0.000000000     0.000000000  0.150023716  0.000000000
     0.000000000  0.000000000 24.272106894     0.000000000  0.000000000  0.041199555

  length of vectors
     7.696786404  7.696786404 24.272106894     0.150023716  0.150023716  0.041199555

  position of ions in fractional coordinates (direct lattice)
     0.000000000  0.000000000  0.221305866
     0.333333343  0.000000000  0.221305866
     0.666666687  0.000000000  0.221305866
     1.000000000  0.333333343  0.221305866
     0.333333313  0.333333343  0.221305866
     0.666666687  0.333333343  0.221305866
     1.000000000  0.666666687  0.221305866
     0.333333373  0.666666687  0.221305866
     0.666666627  0.666666687  0.221305866
     0.111111119  0.111111112  0.307610705
     0.444444418  0.111111112  0.307610705
     0.777777791  0.111111112  0.307610705
     0.111111119  0.444444448  0.307610705
     0.444444478  0.444444448  0.307610705
     0.777777731  0.444444448  0.307610705
     0.111111112  0.777777731  0.307610705
     0.444444478  0.777777731  0.307610705
     0.777777851  0.777777731  0.307610705
     0.889263854  0.221472309  0.392869843
     0.222727760  0.222727745  0.394381371
     0.554544539  0.222727745  0.394381371
     0.888734740  0.555632600  0.393641035
     0.222727730  0.554544479  0.394381371
     0.555632660  0.555632600  0.393641035
     0.889263854  0.889263854  0.392869843
     0.221472324  0.889263854  0.392869843
     0.555632600  0.888734740  0.393641035
     0.000000000  0.000000000  0.479690213
     0.333803354  0.994491360  0.480208856
     0.671705316  0.994491360  0.480208856
     0.994491360  0.333803354  0.480208856
     0.671705316  0.333803354  0.480208856
     0.994491360  0.671705316  0.480208856
     0.333803384  0.671705316  0.480208856
     0.666666627  0.666666687  0.480698549
     0.333333313  0.333333343  0.490935264
     0.289121660  0.210432463  0.591704943
     0.498155114  0.201231425  0.591418181
     0.354893970  0.288677204  0.583268443

  ion indices of the primitive-cell ions
   primitive index   ion index
                 1           1
                 2           2
                 3           3
                 4           4
                 5           5
                 6           6
                 7           7
                 8           8
                 9           9
                10          10
                11          11
                12          12
                13          13
                14          14
                15          15
                16          16
                17          17
                18          18
                19          19
                20          20
                21          21
                22          22
                23          23
                24          24
                25          25
                26          26
                27          27
                28          28
                29          29
                30          30
                31          31
                32          32
                33          33
                34          34
                35          35
                36          36
                37          37
                38          38
                39          39

----------------------------------------------------------------------------------------

 
 
 KPOINTS: Automatic mesh                          

Automatic generation of k-mesh.
 Grid dimensions read from file:
 generate k-points for:    8    8    1

 Generating k-lattice:

  Cartesian coordinates                     Fractional coordinates (reciprocal lattice)
     0.016240544 -0.009376481  0.000000000     0.125000000 -0.000000000  0.000000000
     0.000000000  0.018752964  0.000000000     0.000000000  0.125000000  0.000000000
     0.000000000  0.000000000  0.041199555     0.000000000  0.000000000  1.000000000

  Length of vectors
     0.018752964  0.018752964  0.041199555

  Shift w.r.t. Gamma in fractional coordinates (k-lattice)
     0.000000000  0.000000000  0.000000000

 TETIRR: Found    192 inequivalent tetrahedra from      384
 
 Subroutine IBZKPT returns following result:
 ===========================================
 
 Found     34 irreducible k-points:
 
 Following reciprocal coordinates:
            Coordinates               Weight
  0.000000  0.000000  0.000000      1.000000
  0.125000 -0.000000  0.000000      2.000000
  0.125000  0.125000  0.000000      2.000000
  0.000000  0.125000  0.000000      2.000000
  0.250000 -0.000000  0.000000      2.000000
  0.250000  0.250000  0.000000      2.000000
  0.000000  0.250000  0.000000      2.000000
  0.375000 -0.000000  0.000000      2.000000
  0.375000  0.375000  0.000000      2.000000
  0.000000  0.375000  0.000000      2.000000
  0.500000 -0.000000  0.000000      1.000000
  0.500000  0.500000  0.000000      1.000000
  0.000000  0.500000  0.000000      1.000000
  0.250000  0.125000  0.000000      2.000000
  0.125000  0.250000  0.000000      2.000000
 -0.125000  0.125000  0.000000      2.000000
  0.375000  0.125000  0.000000      2.000000
  0.250000  0.375000  0.000000      2.000000
 -0.125000  0.250000  0.000000      2.000000
  0.250000 -0.125000  0.000000      2.000000
 -0.125000 -0.375000  0.000000      2.000000
 -0.375000 -0.250000  0.000000      2.000000
  0.500000  0.125000  0.000000      2.000000
  0.375000  0.500000  0.000000      2.000000
 -0.125000  0.375000  0.000000      2.000000
  0.375000 -0.125000  0.000000      2.000000
 -0.125000  0.500000  0.000000      2.000000
  0.500000 -0.375000  0.000000      2.000000
  0.500000  0.250000  0.000000      2.000000
  0.250000  0.500000  0.000000      2.000000
 -0.250000  0.250000  0.000000      2.000000
 -0.375000  0.250000  0.000000      2.000000
  0.375000 -0.375000  0.000000      2.000000
 -0.250000  0.375000  0.000000      2.000000
 
 Following cartesian coordinates:
            Coordinates               Weight
  0.000000  0.000000  0.000000      1.000000
  0.016241 -0.009376  0.000000      2.000000
  0.016241  0.009376  0.000000      2.000000
  0.000000  0.018753  0.000000      2.000000
  0.032481 -0.018753  0.000000      2.000000
  0.032481  0.018753  0.000000      2.000000
  0.000000  0.037506  0.000000      2.000000
  0.048722 -0.028129  0.000000      2.000000
  0.048722  0.028129  0.000000      2.000000
  0.000000  0.056259  0.000000      2.000000
  0.064962 -0.037506  0.000000      1.000000
  0.064962  0.037506  0.000000      1.000000
  0.000000  0.075012  0.000000      1.000000
  0.032481  0.000000  0.000000      2.000000
  0.016241  0.028129  0.000000      2.000000
 -0.016241  0.028129  0.000000      2.000000
  0.048722 -0.009376  0.000000      2.000000
  0.032481  0.037506  0.000000      2.000000
 -0.016241  0.046882  0.000000      2.000000
  0.032481 -0.037506  0.000000      2.000000
 -0.016241 -0.046882  0.000000      2.000000
 -0.048722 -0.009376  0.000000      2.000000
  0.064962 -0.018753  0.000000      2.000000
  0.048722  0.046882  0.000000      2.000000
 -0.016241  0.065635  0.000000      2.000000
  0.048722 -0.046882  0.000000      2.000000
 -0.016241  0.084388  0.000000      2.000000
  0.064962 -0.093765  0.000000      2.000000
  0.064962  0.000000  0.000000      2.000000
  0.032481  0.056259  0.000000      2.000000
 -0.032481  0.056259  0.000000      2.000000
 -0.048722  0.065635  0.000000      2.000000
  0.048722 -0.084388  0.000000      2.000000
 -0.032481  0.075012  0.000000      2.000000
 


--------------------------------------------------------------------------------------------------------




 Dimension of arrays:
   k-points           NKPTS =     34   k-points in BZ     NKDIM =     34   number of bands    NBANDS=    252
   number of dos      NEDOS =    301   number of ions     NIONS =     39
   non local maximal  LDIM  =      6   non local SUM 2l+1 LMDIM =     18
   total plane-waves  NPLWV = 246960
   max r-space proj   IRMAX =   3846   max aug-charges    IRDMAX=  13515
   dimension x,y,z NGX =    42 NGY =   42 NGZ =  140
   dimension x,y,z NGXF=    84 NGYF=   84 NGZF=  280
   support grid    NGXF=    84 NGYF=   84 NGZF=  280
   ions per type =              35   1   2   1
   NGX,Y,Z   is equivalent  to a cutoff of   9.07,  9.07,  9.59 a.u.
   NGXF,Y,Z  is equivalent  to a cutoff of  18.14, 18.14, 19.18 a.u.

 SYSTEM =  unknown system                          
 POSCAR =  Cu-Hf-H2O                               

 Startparameter for this run:
   NWRITE =      2    write-flag & timer
   PREC   = normal    normal or accurate (medium, high low for compatibility)
   ISTART =      0    job   : 0-new  1-cont  2-samecut
   ICHARG =     11    charge: 1-file 2-atom 10-const
   ISPIN  =      1    spin polarized calculation?
   LNONCOLLINEAR =      F non collinear calculations
   LSORBIT =      F    spin-orbit coupling
   INIWAV =      1    electr: 0-lowe 1-rand  2-diag
   LASPH  =      F    aspherical Exc in radial PAW
   METAGGA=      F    non-selfconsistent MetaGGA calc.

 Electronic Relaxation 1
   ENCUT  =  500.0 eV  36.75 Ry    6.06 a.u.  14.03 14.03 44.25*2*pi/ulx,y,z
   ENINI  =  500.0     initial cutoff
   ENAUG  =  605.4 eV  augmentation charge cutoff
   NELM   =    150;   NELMIN=  2; NELMDL= -5     # of ELM steps 
   EDIFF  = 0.1E-04   stopping-criterion for ELM
   LREAL  =      T    real-space projection
   NLSPLINE    = F    spline interpolate recip. space projectors
   LCOMPAT=      F    compatible to vasp.4.4
   GGA_COMPAT  = T    GGA compatible to vasp.4.4-vasp.4.6
   LMAXPAW     = -100 max onsite density
   LMAXMIX     =    2 max onsite mixed and CHGCAR
   VOSKOWN=      0    Vosko Wilk Nusair interpolation
   ROPT   =   -0.00050  -0.00050  -0.00050  -0.00050
 Ionic relaxation
   EDIFFG = -.1E-01   stopping-criterion for IOM
   NSW    =      0    number of steps for IOM
   NBLOCK =      1;   KBLOCK =      1    inner block; outer block 
   IBRION =     -1    ionic relax: 0-MD 1-quasi-New 2-CG
   NFREE  =      1    steps in history (QN), initial steepest desc. (CG)
   ISIF   =      2    stress and relaxation
   IWAVPR =     10    prediction:  0-non 1-charg 2-wave 3-comb
   ISYM   =      2    0-nonsym 1-usesym 2-fastsym
   LCORR  =      T    Harris-Foulkes like correction to forces

   POTIM  = 0.5000    time-step for ionic-motion
   TEIN   =    0.0    initial temperature
   TEBEG  =    0.0;   TEEND  =   0.0 temperature during run
   SMASS  =  -3.00    Nose mass-parameter (am)
   estimated Nose-frequenzy (Omega)   =  0.10E-29 period in steps = 0.13E+47 mass=  -0.135E-26a.u.
   SCALEE = 1.0000    scale energy and forces
   NPACO  =    256;   APACO  = 16.0  distance and # of slots for P.C.
   PSTRESS=    0.0 pullay stress

  Mass of Ions in am
   POMASS =  63.55178.49  1.00 16.00
  Ionic Valenz
   ZVAL   =  11.00  4.00  1.00  6.00
  Atomic Wigner-Seitz radii
   RWIGS  =  -1.00 -1.00 -1.00 -1.00
  virtual crystal weights 
   VCA    =   1.00  1.00  1.00  1.00
   NELECT =     397.0000    total number of electrons
   NUPDOWN=      -1.0000    fix difference up-down

 DOS related values:
   EMIN   =  10.00;   EMAX   =-10.00  energy-range for DOS
   EFERMI =   0.00
   ISMEAR =    -5;   SIGMA  =   0.10  broadening in eV -4-tet -1-fermi 0-gaus

 Electronic relaxation 2 (details)
   IALGO  =     68    algorithm
   LDIAG  =      T    sub-space diagonalisation (order eigenvalues)
   LSUBROT=      F    optimize rotation matrix (better conditioning)
   TURBO    =      0    0=normal 1=particle mesh
   IRESTART =      0    0=no restart 2=restart with 2 vectors
   NREBOOT  =      0    no. of reboots
   NMIN     =      0    reboot dimension
   EREF     =   0.00    reference energy to select bands
   IMIX   =      4    mixing-type and parameters
     AMIX     =   0.40;   BMIX     =  1.00
     AMIX_MAG =   1.60;   BMIX_MAG =  1.00
     AMIN     =   0.10
     WC   =   100.;   INIMIX=   1;  MIXPRE=   1;  MAXMIX= -45

 Intra band minimization:
   WEIMIN = 0.0000     energy-eigenvalue tresh-hold
   EBREAK =  0.99E-08  absolut break condition
   DEPER  =   0.30     relativ break condition  

   TIME   =   0.40     timestep for ELM

  volume/ion in A,a.u.               =      31.93       215.47
  Fermi-wavevector in a.u.,A,eV,Ry     =   1.118371  2.113415 17.017545  1.250754
  Thomas-Fermi vector in A             =   2.255002
 
 Write flags
   LWAVE        =      F    write WAVECAR
   LDOWNSAMPLE  =      F    k-point downsampling of WAVECAR
   LCHARG       =      F    write CHGCAR
   LVTOT        =      F    write LOCPOT, total local potential
   LVHAR        =      F    write LOCPOT, Hartree potential only
   LELF         =      F    write electronic localiz. function (ELF)
   LORBIT       =     10    0 simple, 1 ext, 2 COOP (PROOUT), +10 PAW based schemes


 Dipole corrections
   LMONO  =      F    monopole corrections only (constant potential shift)
   LDIPOL =      F    correct potential (dipole corrections)
   IDIPOL =      0    1-x, 2-y, 3-z, 4-all directions 
   EPSILON=  1.0000000 bulk dielectric constant

 Exchange correlation treatment:
   GGA     =    --    GGA type
   LEXCH   =     8    internal setting for exchange type
   VOSKOWN=      0    Vosko Wilk Nusair interpolation
   LHFCALC =     F    Hartree Fock is set to
   LHFONE  =     F    Hartree Fock one center treatment
   AEXX    =    0.0000 exact exchange contribution

 Linear response parameters
   LEPSILON=     F    determine dielectric tensor
   LRPA    =     F    only Hartree local field effects (RPA)
   LNABLA  =     F    use nabla operator in PAW spheres
   LVEL    =     F    velocity operator in full k-point grid
   LINTERFAST=   F  fast interpolation
   KINTER  =     0    interpolate to denser k-point grid
   CSHIFT  =0.1000    complex shift for real part using Kramers Kronig
   OMEGAMAX=  -1.0    maximum frequency
   DEG_THRESHOLD= 0.2000000E-02 threshold for treating states as degnerate
   RTIME   =   -0.100 relaxation time in fs
  (WPLASMAI=    0.000 imaginary part of plasma frequency in eV, 0.658/RTIME)
   DFIELD  = 0.0000000 0.0000000 0.0000000 field for delta impulse in time
 
 Orbital magnetization related:
   ORBITALMAG=     F  switch on orbital magnetization
   LCHIMAG   =     F  perturbation theory with respect to B field
   DQ        =  0.001000  dq finite difference perturbation B field
   LLRAUG    =     F  two centre corrections for induced B field



--------------------------------------------------------------------------------------------------------


 Static calculation
 charge density and potential remain constant during run
 non-spin polarized calculation
 RMM-DIIS sequential band-by-band and
  variant of blocked Davidson during initial phase
 perform sub-space diagonalisation
    before iterative eigenvector-optimisation
 no mixing
 using additional bands           53
 real space projection scheme for non local part
 use partial core corrections
 calculate Harris-corrections to forces 
   (improved forces if not selfconsistent)
 use gradient corrections 
 WARNING: stress and forces are not correct
  (second derivative of E(xc) not defined)
 use of overlap-Matrix (Vanderbilt PP)
 Fermi weights with tetrahedron method with Bloechl corrections


--------------------------------------------------------------------------------------------------------


  energy-cutoff  :      500.00
  volume of cell :     1245.25
      direct lattice vectors                 reciprocal lattice vectors
     7.696786404  0.000000000  0.000000000     0.129924354 -0.075011849  0.000000000
     3.848392758  6.665612809  0.000000000     0.000000000  0.150023716  0.000000000
     0.000000000  0.000000000 24.272106894     0.000000000  0.000000000  0.041199555

  length of vectors
     7.696786404  7.696786404 24.272106894     0.150023716  0.150023716  0.041199555


 
 k-points in units of 2pi/SCALE and weight: Automatic mesh                          
   0.00000000  0.00000000  0.00000000       0.016
   0.01624054 -0.00937648  0.00000000       0.031
   0.01624054  0.00937648  0.00000000       0.031
   0.00000000  0.01875296  0.00000000       0.031
   0.03248109 -0.01875296  0.00000000       0.031
   0.03248109  0.01875297  0.00000000       0.031
   0.00000000  0.03750593  0.00000000       0.031
   0.04872163 -0.02812944  0.00000000       0.031
   0.04872163  0.02812945  0.00000000       0.031
   0.00000000  0.05625889  0.00000000       0.031
   0.06496218 -0.03750592  0.00000000       0.016
   0.06496218  0.03750593  0.00000000       0.016
   0.00000000  0.07501186  0.00000000       0.016
   0.03248109  0.00000000  0.00000000       0.031
   0.01624054  0.02812945  0.00000000       0.031
  -0.01624054  0.02812945  0.00000000       0.031
   0.04872163 -0.00937648  0.00000000       0.031
   0.03248109  0.03750593  0.00000000       0.031
  -0.01624054  0.04688241  0.00000000       0.031
   0.03248109 -0.03750593  0.00000000       0.031
  -0.01624054 -0.04688241  0.00000000       0.031
  -0.04872163 -0.00937649  0.00000000       0.031
   0.06496218 -0.01875296  0.00000000       0.031
   0.04872163  0.04688241  0.00000000       0.031
  -0.01624054  0.06563537  0.00000000       0.031
   0.04872163 -0.04688241  0.00000000       0.031
  -0.01624054  0.08438834  0.00000000       0.031
   0.06496218 -0.09376482  0.00000000       0.031
   0.06496218  0.00000000  0.00000000       0.031
   0.03248109  0.05625890  0.00000000       0.031
  -0.03248109  0.05625889  0.00000000       0.031
  -0.04872163  0.06563537  0.00000000       0.031
   0.04872163 -0.08438834  0.00000000       0.031
  -0.03248109  0.07501186  0.00000000       0.031
 
 k-points in reciprocal lattice and weights: Automatic mesh                          
   0.00000000  0.00000000  0.00000000       0.016
   0.12500000 -0.00000000  0.00000000       0.031
   0.12500000  0.12500000  0.00000000       0.031
   0.00000000  0.12500000  0.00000000       0.031
   0.25000000 -0.00000000  0.00000000       0.031
   0.25000000  0.25000000  0.00000000       0.031
   0.00000000  0.25000000  0.00000000       0.031
   0.37500000 -0.00000000  0.00000000       0.031
   0.37500000  0.37500000  0.00000000       0.031
   0.00000000  0.37500000  0.00000000       0.031
   0.50000000 -0.00000000  0.00000000       0.016
   0.50000000  0.50000000  0.00000000       0.016
   0.00000000  0.50000000  0.00000000       0.016
   0.25000000  0.12500000  0.00000000       0.031
   0.12500000  0.25000000  0.00000000       0.031
  -0.12500000  0.12500000  0.00000000       0.031
   0.37500000  0.12500000  0.00000000       0.031
   0.25000000  0.37500000  0.00000000       0.031
  -0.12500000  0.25000000  0.00000000       0.031
   0.25000000 -0.12500000  0.00000000       0.031
  -0.12500000 -0.37500000  0.00000000       0.031
  -0.37500000 -0.25000000  0.00000000       0.031
   0.50000000  0.12500000  0.00000000       0.031
   0.37500000  0.50000000  0.00000000       0.031
  -0.12500000  0.37500000  0.00000000       0.031
   0.37500000 -0.12500000  0.00000000       0.031
  -0.12500000  0.50000000  0.00000000       0.031
   0.50000000 -0.37500000  0.00000000       0.031
   0.50000000  0.25000000  0.00000000       0.031
   0.25000000  0.50000000  0.00000000       0.031
  -0.25000000  0.25000000  0.00000000       0.031
  -0.37500000  0.25000000  0.00000000       0.031
   0.37500000 -0.37500000  0.00000000       0.031
  -0.25000000  0.37500000  0.00000000       0.031
 
 position of ions in fractional coordinates (direct lattice) 
   0.00000000  0.00000000  0.22130587
   0.33333334  0.00000000  0.22130587
   0.66666669  0.00000000  0.22130587
   0.00000000  0.33333334  0.22130587
   0.33333331  0.33333334  0.22130587
   0.66666669  0.33333334  0.22130587
   0.00000000  0.66666669  0.22130587
   0.33333337  0.66666669  0.22130587
   0.66666663  0.66666669  0.22130587
   0.11111112  0.11111111  0.30761070
   0.44444442  0.11111111  0.30761070
   0.77777779  0.11111111  0.30761070
   0.11111112  0.44444445  0.30761070
   0.44444448  0.44444445  0.30761070
   0.77777773  0.44444445  0.30761070
   0.11111111  0.77777773  0.30761070
   0.44444448  0.77777773  0.30761070
   0.77777785  0.77777773  0.30761070
   0.88926385  0.22147231  0.39286984
   0.22272776  0.22272775  0.39438137
   0.55454454  0.22272775  0.39438137
   0.88873474  0.55563260  0.39364104
   0.22272773  0.55454448  0.39438137
   0.55563266  0.55563260  0.39364104
   0.88926385  0.88926385  0.39286984
   0.22147232  0.88926385  0.39286984
   0.55563260  0.88873474  0.39364104
   0.00000000  0.00000000  0.47969021
   0.33380335  0.99449136  0.48020886
   0.67170532  0.99449136  0.48020886
   0.99449136  0.33380335  0.48020886
   0.67170532  0.33380335  0.48020886
   0.99449136  0.67170532  0.48020886
   0.33380338  0.67170532  0.48020886
   0.66666663  0.66666669  0.48069855
   0.33333331  0.33333334  0.49093526
   0.28912166  0.21043246  0.59170494
   0.49815511  0.20123142  0.59141818
   0.35489397  0.28867720  0.58326844
 
 position of ions in cartesian coordinates  (Angst):
   0.00000000  0.00000000  5.37155964
   2.56559554  0.00000000  5.37155964
   5.13119109  0.00000000  5.37155964
   1.28279762  2.22187100  5.37155964
   3.84839293  2.22187100  5.37155964
   6.41398872  2.22187100  5.37155964
   2.56559525  4.44374201  5.37155964
   5.13119102  4.44374201  5.37155964
   7.69678588  4.44374201  5.37155964
   1.28279775  0.74062365  7.46635991
   3.84839295  0.74062365  7.46635991
   6.41398873  0.74062365  7.46635991
   2.56559535  2.96249461  7.46635991
   5.13119101  2.96249461  7.46635991
   7.69678586  2.96249461  7.46635991
   3.84839268  5.18436521  7.46635991
   6.41398840  5.18436521  7.46635991
   8.97958418  5.18436521  7.46635991
   7.69678637  1.47624866  9.53577883
   2.57143184  1.48461691  9.57246679
   5.12535471  1.48461691  9.57246679
   8.97869394  3.70363178  9.55449728
   3.84839272  3.69637878  9.57246679
   6.41487838  3.70363178  9.55449728
  10.26671051  5.92748853  9.53577883
   5.12686175  5.92748853  9.53577883
   7.69678578  5.92396167  9.55449728
   0.00000000  0.00000000 11.64309213
   6.39640647  6.62889435 11.65568068
   8.99716569  6.62889435 11.65568068
   8.93899399  2.22500391 11.65568068
   6.45457875  2.22500391 11.65568068
  10.23937345  4.47732756 11.65568068
   5.15419922  4.47732756 11.65568068
   7.69678588  4.44374201 11.66756656
   3.84839293  2.22187100 11.91603321
   3.03513443  1.40266132 14.36192563
   4.60861106  1.34133076 14.35496532
   3.84248635  1.92421047 14.15715400
 


--------------------------------------------------------------------------------------------------------


 k-point   1 :   0.0000 0.0000 0.0000  plane waves:   31487
 k-point   2 :   0.1250-0.0000 0.0000  plane waves:   31553
 k-point   3 :   0.1250 0.1250 0.0000  plane waves:   31553
 k-point   4 :   0.0000 0.1250 0.0000  plane waves:   31553
 k-point   5 :   0.2500-0.0000 0.0000  plane waves:   31574
 k-point   6 :   0.2500 0.2500 0.0000  plane waves:   31574
 k-point   7 :   0.0000 0.2500 0.0000  plane waves:   31574
 k-point   8 :   0.3750-0.0000 0.0000  plane waves:   31600
 k-point   9 :   0.3750 0.3750 0.0000  plane waves:   31600
 k-point  10 :   0.0000 0.3750 0.0000  plane waves:   31600
 k-point  11 :   0.5000-0.0000 0.0000  plane waves:   31646
 k-point  12 :   0.5000 0.5000 0.0000  plane waves:   31646
 k-point  13 :   0.0000 0.5000 0.0000  plane waves:   31646
 k-point  14 :   0.2500 0.1250 0.0000  plane waves:   31618
 k-point  15 :   0.1250 0.2500 0.0000  plane waves:   31618
 k-point  16 :  -0.1250 0.1250 0.0000  plane waves:   31618
 k-point  17 :   0.3750 0.1250 0.0000  plane waves:   31612
 k-point  18 :   0.2500 0.3750 0.0000  plane waves:   31612
 k-point  19 :  -0.1250 0.2500 0.0000  plane waves:   31612
 k-point  20 :   0.2500-0.1250 0.0000  plane waves:   31612
 k-point  21 :  -0.1250-0.3750 0.0000  plane waves:   31612
 k-point  22 :  -0.3750-0.2500 0.0000  plane waves:   31612
 k-point  23 :   0.5000 0.1250 0.0000  plane waves:   31639
 k-point  24 :   0.3750 0.5000 0.0000  plane waves:   31639
 k-point  25 :  -0.1250 0.3750 0.0000  plane waves:   31639
 k-point  26 :   0.3750-0.1250 0.0000  plane waves:   31639
 k-point  27 :  -0.1250 0.5000 0.0000  plane waves:   31639
 k-point  28 :   0.5000-0.3750 0.0000  plane waves:   31639
 k-point  29 :   0.5000 0.2500 0.0000  plane waves:   31648
 k-point  30 :   0.2500 0.5000 0.0000  plane waves:   31648
 k-point  31 :  -0.2500 0.2500 0.0000  plane waves:   31648
 k-point  32 :  -0.3750 0.2500 0.0000  plane waves:   31656
 k-point  33 :   0.3750-0.3750 0.0000  plane waves:   31656
 k-point  34 :  -0.2500 0.3750 0.0000  plane waves:   31656

 maximum and minimum number of plane-waves per node :     31656    31487

 maximum number of plane-waves:     31656
 maximum index in each direction: 
   IXMAX=   14   IYMAX=   14   IZMAX=   44
   IXMIN=  -14   IYMIN=  -14   IZMIN=  -44


 serial   3D FFT for wavefunctions
 parallel 3D FFT for charge:
    minimum data exchange during FFTs selected (reduces bandwidth)


 total amount of memory used by VASP MPI-rank0   226350. kBytes
=======================================================================

   base      :      30000. kBytes
   nonlr-proj:      18999. kBytes
   fftplans  :       3394. kBytes
   grid      :      15015. kBytes
   one-center:        606. kBytes
   wavefun   :     158336. kBytes
 
     INWAV:  cpu time    0.0000: real time    0.0000
 initial charge density was supplied:
 number of electron     396.9999873 magnetization 
 keeping initial charge density in first step


--------------------------------------------------------------------------------------------------------


 Maximum index for non-local projection operator         3691
 Maximum index for augmentation-charges          614 (set IRDMAX)


--------------------------------------------------------------------------------------------------------


 First call to EWALD:  gamma=   0.165
 Maximum number of real-space cells 4x 4x 1
 Maximum number of reciprocal cells 2x 2x 6

    FEWALD:  cpu time    0.0012: real time    0.0012


--------------------------------------- Iteration      1(   1)  ---------------------------------------


    POTLOK:  cpu time    0.0297: real time    0.0300
    SETDIJ:  cpu time    0.0039: real time    0.0041
     EDDAV:  cpu time   20.9577: real time   20.9593
 BZINTS: Fermi energy:   12.685753;  397.000000 electrons
         Band energy: 0.242473E+04;  BLOECHL correction:   -0.041711
       DOS:  cpu time    0.0509: real time    0.0509
    --------------------------------------------
      LOOP:  cpu time   21.0423: real time   21.0443

 eigenvalue-minimisations  : 17136
 total energy-change (2. order) : 0.3483293E+04  (-0.1677009E+05)
 number of electron     396.9999873 magnetization 
 augmentation part      396.9999873 magnetization 

 Free energy of the ion-electron system (eV)
  ---------------------------------------------------
  alpha Z        PSCENC =       777.10848217
  Ewald energy   TEWEN  =    201659.93151453
  -Hartree energ DENC   =   -248421.94331541
  -exchange      EXHF   =         0.00000000
  -V(xc)+E(xc)   XCENC  =      1539.50139506
  PAW double counting   =     46617.41671516   -50330.86084485
  entropy T*S    EENTRO =         0.00000000
  eigenvalues    EBANDS =      2424.72988583
  atomic energy  EATOM  =     49217.40873229
  Solvation  Ediel_sol  =         0.00000000
  ---------------------------------------------------
  free energy    TOTEN  =      3483.29256479 eV

  energy without entropy =     3483.29256479  energy(sigma->0) =     3483.29256479


--------------------------------------------------------------------------------------------------------




--------------------------------------- Iteration      1(   2)  ---------------------------------------


     EDDAV:  cpu time   21.0444: real time   21.0449
 BZINTS: Fermi energy:    2.698311;  397.000000 electrons
         Band energy:-0.754126E+03;  BLOECHL correction:   -0.019666
       DOS:  cpu time    0.0531: real time    0.0531
    --------------------------------------------
      LOOP:  cpu time   21.0976: real time   21.0980

 eigenvalue-minimisations  : 17136
 total energy-change (2. order) :-0.3178856E+04  (-0.3046365E+04)
 number of electron     396.9999873 magnetization 
 augmentation part      396.9999873 magnetization 

 Free energy of the ion-electron system (eV)
  ---------------------------------------------------
  alpha Z        PSCENC =       777.10848217
  Ewald energy   TEWEN  =    201659.93151453
  -Hartree energ DENC   =   -248421.94331541
  -exchange      EXHF   =         0.00000000
  -V(xc)+E(xc)   XCENC  =      1539.50139506
  PAW double counting   =     46617.41671516   -50330.86084485
  entropy T*S    EENTRO =         0.00000000
  eigenvalues    EBANDS =      -754.12631240
  atomic energy  EATOM  =     49217.40873229
  Solvation  Ediel_sol  =         0.00000000
  ---------------------------------------------------
  free energy    TOTEN  =       304.43636656 eV

  energy without entropy =      304.43636656  energy(sigma->0) =      304.43636656


--------------------------------------------------------------------------------------------------------




--------------------------------------- Iteration      1(   3)  ---------------------------------------


     EDDAV:  cpu time   25.2565: real time   25.2568
 BZINTS: Fermi energy:    0.261981;  397.000000 electrons
         Band energy:-0.117759E+04;  BLOECHL correction:   -0.054507
       DOS:  cpu time    0.0513: real time    0.0512
    --------------------------------------------
      LOOP:  cpu time   25.3077: real time   25.3081

 eigenvalue-minimisations  : 21364
 total energy-change (2. order) :-0.4234665E+03  (-0.3992624E+03)
 number of electron     396.9999873 magnetization 
 augmentation part      396.9999873 magnetization 

 Free energy of the ion-electron system (eV)
  ---------------------------------------------------
  alpha Z        PSCENC =       777.10848217
  Ewald energy   TEWEN  =    201659.93151453
  -Hartree energ DENC   =   -248421.94331541
  -exchange      EXHF   =         0.00000000
  -V(xc)+E(xc)   XCENC  =      1539.50139506
  PAW double counting   =     46617.41671516   -50330.86084485
  entropy T*S    EENTRO =         0.00000000
  eigenvalues    EBANDS =     -1177.59282231
  atomic energy  EATOM  =     49217.40873229
  Solvation  Ediel_sol  =         0.00000000
  ---------------------------------------------------
  free energy    TOTEN  =      -119.03014335 eV

  energy without entropy =     -119.03014335  energy(sigma->0) =     -119.03014335


--------------------------------------------------------------------------------------------------------




--------------------------------------- Iteration      1(   4)  ---------------------------------------


     EDDAV:  cpu time   27.5002: real time   27.5005
 BZINTS: Fermi energy:    0.089734;  397.000000 electrons
         Band energy:-0.120515E+04;  BLOECHL correction:   -0.045311
       DOS:  cpu time    0.0486: real time    0.0486
    --------------------------------------------
      LOOP:  cpu time   27.5488: real time   27.5491

 eigenvalue-minimisations  : 23744
 total energy-change (2. order) :-0.2755223E+02  (-0.2698121E+02)
 number of electron     396.9999873 magnetization 
 augmentation part      396.9999873 magnetization 

 Free energy of the ion-electron system (eV)
  ---------------------------------------------------
  alpha Z        PSCENC =       777.10848217
  Ewald energy   TEWEN  =    201659.93151453
  -Hartree energ DENC   =   -248421.94331541
  -exchange      EXHF   =         0.00000000
  -V(xc)+E(xc)   XCENC  =      1539.50139506
  PAW double counting   =     46617.41671516   -50330.86084485
  entropy T*S    EENTRO =         0.00000000
  eigenvalues    EBANDS =     -1205.14505673
  atomic energy  EATOM  =     49217.40873229
  Solvation  Ediel_sol  =         0.00000000
  ---------------------------------------------------
  free energy    TOTEN  =      -146.58237777 eV

  energy without entropy =     -146.58237777  energy(sigma->0) =     -146.58237777


--------------------------------------------------------------------------------------------------------




--------------------------------------- Iteration      1(   5)  ---------------------------------------


     EDDAV:  cpu time   24.2267: real time   24.2306
 BZINTS: Fermi energy:    0.084825;  397.000000 electrons
         Band energy:-0.120573E+04;  BLOECHL correction:   -0.044897
       DOS:  cpu time    0.0525: real time    0.0525
    --------------------------------------------
      LOOP:  cpu time   24.2792: real time   24.2830

 eigenvalue-minimisations  : 20412
 total energy-change (2. order) :-0.5866260E+00  (-0.5855858E+00)
 number of electron     396.9999873 magnetization 
 augmentation part      396.9999873 magnetization 

 Free energy of the ion-electron system (eV)
  ---------------------------------------------------
  alpha Z        PSCENC =       777.10848217
  Ewald energy   TEWEN  =    201659.93151453
  -Hartree energ DENC   =   -248421.94331541
  -exchange      EXHF   =         0.00000000
  -V(xc)+E(xc)   XCENC  =      1539.50139506
  PAW double counting   =     46617.41671516   -50330.86084485
  entropy T*S    EENTRO =         0.00000000
  eigenvalues    EBANDS =     -1205.73168271
  atomic energy  EATOM  =     49217.40873229
  Solvation  Ediel_sol  =         0.00000000
  ---------------------------------------------------
  free energy    TOTEN  =      -147.16900375 eV

  energy without entropy =     -147.16900375  energy(sigma->0) =     -147.16900375


--------------------------------------------------------------------------------------------------------




--------------------------------------- Iteration      1(   6)  ---------------------------------------


    EDDIAG:  cpu time    3.8869: real time    3.8873
  RMM-DIIS:  cpu time   12.4092: real time   12.4093
    ORTHCH:  cpu time    0.7221: real time    0.7221
 BZINTS: Fermi energy:    0.084801;  397.000000 electrons
         Band energy:-0.120575E+04;  BLOECHL correction:   -0.044896
       DOS:  cpu time    0.0503: real time    0.0503
    --------------------------------------------
      LOOP:  cpu time   17.0685: real time   17.0690

 eigenvalue-minimisations  : 18793
 total energy-change (2. order) :-0.1549830E-01  (-0.1549763E-01)
 number of electron     396.9999873 magnetization 
 augmentation part      396.9999873 magnetization 

 Free energy of the ion-electron system (eV)
  ---------------------------------------------------
  alpha Z        PSCENC =       777.10848217
  Ewald energy   TEWEN  =    201659.93151453
  -Hartree energ DENC   =   -248421.94331541
  -exchange      EXHF   =         0.00000000
  -V(xc)+E(xc)   XCENC  =      1539.50139506
  PAW double counting   =     46617.41671516   -50330.86084485
  entropy T*S    EENTRO =         0.00000000
  eigenvalues    EBANDS =     -1205.74718101
  atomic energy  EATOM  =     49217.40873229
  Solvation  Ediel_sol  =         0.00000000
  ---------------------------------------------------
  free energy    TOTEN  =      -147.18450205 eV

  energy without entropy =     -147.18450205  energy(sigma->0) =     -147.18450205


--------------------------------------------------------------------------------------------------------




--------------------------------------- Iteration      1(   7)  ---------------------------------------


    EDDIAG:  cpu time    3.8844: real time    3.8847
  RMM-DIIS:  cpu time   17.4825: real time   17.4827
    ORTHCH:  cpu time    0.7231: real time    0.7232
 BZINTS: Fermi energy:    0.084791;  397.000000 electrons
         Band energy:-0.120575E+04;  BLOECHL correction:   -0.044895
       DOS:  cpu time    0.0527: real time    0.0527
    --------------------------------------------
      LOOP:  cpu time   22.1428: real time   22.1432

 eigenvalue-minimisations  : 26431
 total energy-change (2. order) :-0.7159762E-02  (-0.7067048E-02)
 number of electron     396.9999873 magnetization 
 augmentation part      396.9999873 magnetization 

 Free energy of the ion-electron system (eV)
  ---------------------------------------------------
  alpha Z        PSCENC =       777.10848217
  Ewald energy   TEWEN  =    201659.93151453
  -Hartree energ DENC   =   -248421.94331541
  -exchange      EXHF   =         0.00000000
  -V(xc)+E(xc)   XCENC  =      1539.50139506
  PAW double counting   =     46617.41671516   -50330.86084485
  entropy T*S    EENTRO =         0.00000000
  eigenvalues    EBANDS =     -1205.75434077
  atomic energy  EATOM  =     49217.40873229
  Solvation  Ediel_sol  =         0.00000000
  ---------------------------------------------------
  free energy    TOTEN  =      -147.19166181 eV

  energy without entropy =     -147.19166181  energy(sigma->0) =     -147.19166181


--------------------------------------------------------------------------------------------------------




--------------------------------------- Iteration      1(   8)  ---------------------------------------


    EDDIAG:  cpu time    3.9151: real time    3.9152
  RMM-DIIS:  cpu time   16.6306: real time   16.6307
    ORTHCH:  cpu time    0.7133: real time    0.7134
 BZINTS: Fermi energy:    0.084790;  397.000000 electrons
         Band energy:-0.120575E+04;  BLOECHL correction:   -0.044895
       DOS:  cpu time    0.0504: real time    0.0504
    --------------------------------------------
      LOOP:  cpu time   21.3094: real time   21.3097

 eigenvalue-minimisations  : 25208
 total energy-change (2. order) :-0.6258687E-03  (-0.6009896E-03)
 number of electron     396.9999873 magnetization 
 augmentation part      396.9999873 magnetization 

 Free energy of the ion-electron system (eV)
  ---------------------------------------------------
  alpha Z        PSCENC =       777.10848217
  Ewald energy   TEWEN  =    201659.93151453
  -Hartree energ DENC   =   -248421.94331541
  -exchange      EXHF   =         0.00000000
  -V(xc)+E(xc)   XCENC  =      1539.50139506
  PAW double counting   =     46617.41671516   -50330.86084485
  entropy T*S    EENTRO =         0.00000000
  eigenvalues    EBANDS =     -1205.75496664
  atomic energy  EATOM  =     49217.40873229
  Solvation  Ediel_sol  =         0.00000000
  ---------------------------------------------------
  free energy    TOTEN  =      -147.19228768 eV

  energy without entropy =     -147.19228768  energy(sigma->0) =     -147.19228768


--------------------------------------------------------------------------------------------------------




--------------------------------------- Iteration      1(   9)  ---------------------------------------


    EDDIAG:  cpu time    3.8841: real time    3.8842
  RMM-DIIS:  cpu time   17.4634: real time   17.4636
    ORTHCH:  cpu time    0.7178: real time    0.7178
 BZINTS: Fermi energy:    0.084790;  397.000000 electrons
         Band energy:-0.120576E+04;  BLOECHL correction:   -0.044895
       DOS:  cpu time    0.0527: real time    0.0527
    --------------------------------------------
      LOOP:  cpu time   22.1180: real time   22.1183

 eigenvalue-minimisations  : 26460
 total energy-change (2. order) :-0.1193363E-03  (-0.1144279E-03)
 number of electron     396.9999873 magnetization 
 augmentation part      396.9999873 magnetization 

 Free energy of the ion-electron system (eV)
  ---------------------------------------------------
  alpha Z        PSCENC =       777.10848217
  Ewald energy   TEWEN  =    201659.93151453
  -Hartree energ DENC   =   -248421.94331541
  -exchange      EXHF   =         0.00000000
  -V(xc)+E(xc)   XCENC  =      1539.50139506
  PAW double counting   =     46617.41671516   -50330.86084485
  entropy T*S    EENTRO =         0.00000000
  eigenvalues    EBANDS =     -1205.75508598
  atomic energy  EATOM  =     49217.40873229
  Solvation  Ediel_sol  =         0.00000000
  ---------------------------------------------------
  free energy    TOTEN  =      -147.19240701 eV

  energy without entropy =     -147.19240701  energy(sigma->0) =     -147.19240701


--------------------------------------------------------------------------------------------------------




--------------------------------------- Iteration      1(  10)  ---------------------------------------


    EDDIAG:  cpu time    3.8886: real time    3.8888
  RMM-DIIS:  cpu time   14.2018: real time   14.2019
    ORTHCH:  cpu time    0.7131: real time    0.7131
 BZINTS: Fermi energy:    0.084790;  397.000000 electrons
         Band energy:-0.120576E+04;  BLOECHL correction:   -0.044895
       DOS:  cpu time    0.0481: real time    0.0480
    --------------------------------------------
      LOOP:  cpu time   18.8515: real time   18.8519

 eigenvalue-minimisations  : 20679
 total energy-change (2. order) :-0.1801984E-04  (-0.1716736E-04)
 number of electron     396.9999873 magnetization 
 augmentation part      396.9999873 magnetization 

 Free energy of the ion-electron system (eV)
  ---------------------------------------------------
  alpha Z        PSCENC =       777.10848217
  Ewald energy   TEWEN  =    201659.93151453
  -Hartree energ DENC   =   -248421.94331541
  -exchange      EXHF   =         0.00000000
  -V(xc)+E(xc)   XCENC  =      1539.50139506
  PAW double counting   =     46617.41671516   -50330.86084485
  entropy T*S    EENTRO =         0.00000000
  eigenvalues    EBANDS =     -1205.75510400
  atomic energy  EATOM  =     49217.40873229
  Solvation  Ediel_sol  =         0.00000000
  ---------------------------------------------------
  free energy    TOTEN  =      -147.19242503 eV

  energy without entropy =     -147.19242503  energy(sigma->0) =     -147.19242503


--------------------------------------------------------------------------------------------------------




--------------------------------------- Iteration      1(  11)  ---------------------------------------


    EDDIAG:  cpu time    3.8761: real time    3.8762
  RMM-DIIS:  cpu time   10.5547: real time   10.5548
    ORTHCH:  cpu time    0.7084: real time    0.7084
 BZINTS: Fermi energy:    0.084790;  397.000000 electrons
         Band energy:-0.120576E+04;  BLOECHL correction:   -0.044895
       DOS:  cpu time    0.0504: real time    0.0504
    --------------------------------------------
      LOOP:  cpu time   15.1896: real time   15.1899

 eigenvalue-minimisations  : 13963
 total energy-change (2. order) :-0.3052352E-05  (-0.3068302E-05)
 number of electron     396.9999873 magnetization 
 augmentation part      396.9999873 magnetization 

 Free energy of the ion-electron system (eV)
  ---------------------------------------------------
  alpha Z        PSCENC =       777.10848217
  Ewald energy   TEWEN  =    201659.93151453
  -Hartree energ DENC   =   -248421.94331541
  -exchange      EXHF   =         0.00000000
  -V(xc)+E(xc)   XCENC  =      1539.50139506
  PAW double counting   =     46617.41671516   -50330.86084485
  entropy T*S    EENTRO =         0.00000000
  eigenvalues    EBANDS =     -1205.75510705
  atomic energy  EATOM  =     49217.40873229
  Solvation  Ediel_sol  =         0.00000000
  ---------------------------------------------------
  free energy    TOTEN  =      -147.19242809 eV

  energy without entropy =     -147.19242809  energy(sigma->0) =     -147.19242809


--------------------------------------------------------------------------------------------------------




 average (electrostatic) potential at core
  the test charge radii are     0.9430  1.2481  0.5201  0.7215
  (the norm of the test charge is              1.0000)
       1 -70.9213       2 -70.9271       3 -70.9271       4 -70.9272       5 -70.9420
       6 -70.9269       7 -70.9278       8 -70.9278       9 -70.9205      10 -71.2117
      11 -71.1791      12 -71.2116      13 -71.1816      14 -71.1813      15 -71.1935
      16 -71.2113      17 -71.1961      18 -71.1961      19 -71.2257      20 -71.3784
      21 -71.3781      22 -71.1905      23 -71.3789      24 -71.1904      25 -71.2244
      26 -71.2239      27 -71.1933      28 -71.0324      29 -71.3138      30 -71.3151
      31 -71.3065      32 -71.3053      33 -71.2971      34 -71.2966      35 -71.0028
      36 -41.9673      37 -42.4489      38 -42.4448      39 -79.0297
 
 
 
 E-fermi :   0.0848     XC(G=0):  -5.3550     alpha+bet : -4.7810

 Fermi energy:         0.0847900368

 k-point     1 :       0.0000    0.0000    0.0000
  band No.  band energies     occupation 
      1     -23.5866      2.00000
      2     -11.3205      2.00000
      3      -8.8060      2.00000
      4      -8.1768      2.00000
      5      -7.5395      2.00000
      6      -6.2331      2.00000
      7      -5.9339      2.00000
      8      -5.8223      2.00000
      9      -5.8197      2.00000
     10      -5.7898      2.00000
     11      -5.7824      2.00000
     12      -5.7817      2.00000
     13      -5.6949      2.00000
     14      -5.1047      2.00000
     15      -5.1039      2.00000
     16      -5.0726      2.00000
     17      -5.0378      2.00000
[...]
  0.000   0.000   0.000   0.000   0.000   0.000   0.000   0.000   0.000   0.000   1.000   0.000   0.000   0.000   0.000   0.000
  0.000   0.000   0.000   0.000   0.000   0.000   0.000   0.000   0.000   0.000   0.000   0.000   0.000   0.000   0.000   0.000
  0.000   0.000   0.000   0.000   0.000   0.000   0.000   0.000   0.000   0.000   0.000   0.000   0.000   0.000   0.000   0.000
  0.000   0.000   0.000   0.000   0.000   0.000   0.000   0.000   0.000   0.000   0.000   0.000   0.000   0.000   0.000   0.000
  0.000   0.000   0.000   0.000   0.000   0.000   0.000   0.000   0.000   0.000   0.000   0.000   0.000   0.000   0.000   0.000
  0.000   0.000   0.000   0.000   0.000   0.000   0.000   0.000   0.000   0.000   0.000   0.000   0.000   0.000   0.000   0.000
  0.000   0.000   0.000   0.000   0.000   0.000   0.000   0.000   0.000   0.000   0.000   0.000   0.000   0.000   0.000   0.000
  0.000   0.000   0.000   0.000   0.000   0.000   0.000   0.000   0.000   0.000   0.000   0.000   0.000   0.000   0.000   0.000


------------------------ aborting loop because EDIFF is reached ----------------------------------------





 total charge

# of ion       s       p       d       tot
------------------------------------------
    1        0.450   0.283   9.187   9.920
    2        0.448   0.286   9.185   9.919
    3        0.448   0.286   9.185   9.919
    4        0.448   0.286   9.185   9.919
    5        0.448   0.286   9.182   9.916
    6        0.448   0.286   9.185   9.919
    7        0.448   0.286   9.185   9.919
    8        0.447   0.286   9.185   9.919
    9        0.450   0.284   9.186   9.920
   10        0.443   0.371   9.176   9.990
   11        0.441   0.365   9.181   9.987
   12        0.443   0.371   9.176   9.990
   13        0.440   0.365   9.181   9.987
   14        0.440   0.365   9.181   9.987
   15        0.440   0.372   9.176   9.988
   16        0.442   0.371   9.176   9.990
   17        0.439   0.372   9.176   9.988
   18        0.439   0.372   9.176   9.988
   19        0.445   0.373   9.178   9.996
   20        0.459   0.387   9.159  10.005
   21        0.460   0.387   9.159  10.005
   22        0.435   0.375   9.177   9.987
   23        0.459   0.386   9.160  10.005
   24        0.435   0.375   9.177   9.987
   25        0.445   0.372   9.179   9.997
   26        0.445   0.372   9.179   9.996
   27        0.435   0.375   9.177   9.987
   28        0.443   0.303   9.176   9.923
   29        0.489   0.330   9.157   9.976
   30        0.489   0.331   9.157   9.977
   31        0.488   0.330   9.156   9.974
   32        0.488   0.330   9.156   9.973
   33        0.488   0.326   9.158   9.972
   34        0.488   0.326   9.158   9.972
   35        0.442   0.307   9.177   9.926
   36        0.623   0.541   1.979   3.143
   37        0.593   0.116   0.000   0.709
   38        0.593   0.116   0.000   0.709
   39        1.564   3.636   0.000   5.200
--------------------------------------------------
tot         19.206  16.286 323.090 358.582
 
    CHARGE:  cpu time    0.7574: real time    0.7574
    FORLOC:  cpu time    0.0086: real time    0.0086
    FORNL :  cpu time    4.3032: real time    4.3034
    STRESS:  cpu time   12.8818: real time   12.8821
    FORCOR:  cpu time    0.0297: real time    0.0298
    FORHAR:  cpu time    0.0129: real time    0.0131
    OFIELD:  cpu time    0.0002: real time    0.0002

  FORCE on cell =-STRESS in cart. coord.  units (eV):
  Direction    XX          YY          ZZ          XY          YZ          ZX
  --------------------------------------------------------------------------------------
  Alpha Z   777.10848   777.10848   777.10848
  Ewald  227230.73368227164.85095************    -2.71664     9.60997    -0.58091
  Hartree239984.35409239969.61783************    -0.58476    32.50556     0.62239
  E(xc)   -2299.01976 -2299.26388 -2302.66382    -0.01006     0.01966    -0.00182
  Local  ************************479898.00535     2.59137   -49.67262    -0.45766
  n-local  -775.37998  -776.01975  -787.12504    -0.01452    -0.52547    -0.03039
  augment  3315.06302  3316.31215  3339.28843     0.02881     0.41623     0.02514
  Kinetic  3298.13056  3315.98804  3350.21832     0.71932     7.62845     0.40045
  Fock        0.00000     0.00000     0.00000     0.00000     0.00000     0.00000
  -------------------------------------------------------------------------------------
  Total      -6.50934    -6.38644    -1.29475     0.01353    -0.01822    -0.02280
  in kB      -8.37511    -8.21698    -1.66586     0.01741    -0.02344    -0.02933
  external pressure =       -6.09 kB  Pullay stress =        0.00 kB


 VOLUME and BASIS-vectors are now :
 -----------------------------------------------------------------------------
  energy-cutoff  :      500.00
  volume of cell :     1245.25
      direct lattice vectors                 reciprocal lattice vectors
     7.696786404  0.000000000  0.000000000     0.129924354 -0.075011849  0.000000000
     3.848392758  6.665612809  0.000000000     0.000000000  0.150023716  0.000000000
     0.000000000  0.000000000 24.272106894     0.000000000  0.000000000  0.041199555

  length of vectors
     7.696786404  7.696786404 24.272106894     0.150023716  0.150023716  0.041199555


 FORCES acting on ions
    electron-ion (+dipol)            ewald-force                    non-local-force                 convergence-correction
 -----------------------------------------------------------------------------------------------
   -.753E-03 0.307E-01 0.374E+04   -.442E-03 -.185E-01 -.374E+04   0.105E-02 -.327E-02 -.208E+01   0.217E-03 -.816E-02 -.561E-01
   -.120E+01 -.148E+01 0.374E+04   0.114E+01 0.145E+01 -.373E+04   0.343E-01 0.628E-01 -.190E+01   0.370E-01 -.267E-01 0.339E-01
   0.120E+01 -.150E+01 0.374E+04   -.114E+01 0.145E+01 -.373E+04   -.345E-01 0.635E-01 -.190E+01   -.361E-01 -.125E-01 0.326E-01
   -.191E+01 -.348E+00 0.374E+04   0.184E+01 0.294E+00 -.373E+04   0.770E-01 0.636E-02 -.191E+01   -.464E-03 0.485E-01 0.386E-01
   -.186E-01 -.364E-01 0.373E+04   0.110E-02 0.415E-01 -.373E+04   -.836E-02 -.206E-01 -.180E+01   0.261E-01 0.142E-01 0.375E-01
   0.192E+01 -.354E+00 0.374E+04   -.184E+01 0.294E+00 -.373E+04   -.768E-01 0.494E-02 -.191E+01   -.120E-01 0.570E-01 0.420E-01
   -.701E+00 0.182E+01 0.374E+04   0.702E+00 -.174E+01 -.373E+04   0.261E-01 -.602E-01 -.194E+01   -.247E-01 -.233E-01 0.153E-01
   0.690E+00 0.183E+01 0.374E+04   -.702E+00 -.174E+01 -.373E+04   -.290E-01 -.580E-01 -.195E+01   0.384E-01 -.314E-01 0.177E-01
   0.175E-01 0.383E-01 0.374E+04   -.214E-03 -.226E-01 -.373E+04   0.927E-02 0.238E-02 -.192E+01   -.270E-01 -.170E-01 0.259E-01
   -.124E+02 -.722E+01 0.124E+04   0.125E+02 0.731E+01 -.124E+04   -.172E+00 -.112E+00 -.866E+00   0.358E-01 0.347E-01 -.559E+00
   -.188E-01 -.138E+02 0.122E+04   0.570E-02 0.135E+02 -.122E+04   -.659E-02 0.251E+00 -.376E+00   0.199E-01 -.305E-03 -.570E+00
   0.124E+02 -.724E+01 0.124E+04   -.126E+02 0.732E+01 -.124E+04   0.170E+00 -.113E+00 -.865E+00   -.428E-01 0.450E-01 -.568E+00
   -.119E+02 0.666E+01 0.122E+04   0.116E+02 -.650E+01 -.122E+04   0.206E+00 -.132E+00 -.365E+00   -.290E-02 -.937E-02 -.560E+00
   0.118E+02 0.665E+01 0.122E+04   -.116E+02 -.650E+01 -.122E+04   -.224E+00 -.130E+00 -.366E+00   0.450E-01 -.767E-02 -.565E+00
   0.201E-01 -.817E+00 0.125E+04   -.626E-02 0.722E+00 -.124E+04   0.184E-02 0.642E-01 -.882E+00   -.155E-01 0.406E-01 -.537E+00
   -.108E-01 0.146E+02 0.124E+04   0.134E-02 -.148E+02 -.124E+04   0.303E-02 0.201E+00 -.841E+00   0.641E-02 -.360E-01 -.562E+00
   -.521E+00 0.590E+00 0.125E+04   0.440E+00 -.540E+00 -.124E+04   0.388E-01 -.232E-01 -.871E+00   0.491E-01 -.302E-01 -.551E+00
   0.530E+00 0.570E+00 0.125E+04   -.442E+00 -.534E+00 -.124E+04   -.407E-01 -.232E-01 -.871E+00   -.544E-01 -.174E-01 -.553E+00
   0.442E-01 -.102E+02 -.122E+04   -.457E-01 0.102E+02 0.122E+04   -.219E-02 -.758E-01 0.816E+00   0.344E-02 0.391E-02 -.553E+00
   -.762E+02 -.458E+02 -.136E+04   0.771E+02 0.463E+02 0.136E+04   -.956E+00 -.584E+00 -.555E+00   -.876E-02 -.494E-02 -.546E+00
   0.762E+02 -.458E+02 -.136E+04   -.771E+02 0.464E+02 0.136E+04   0.975E+00 -.580E+00 -.555E+00   -.195E-01 0.516E-02 -.553E+00
   -.378E+02 0.216E+02 -.125E+04   0.376E+02 -.214E+02 0.125E+04   0.257E+00 -.125E+00 0.669E+00   -.460E-01 -.226E-01 -.577E+00
   -.457E-01 0.879E+02 -.136E+04   0.398E-01 -.890E+02 0.136E+04   -.193E-02 0.108E+01 -.384E+00   0.720E-02 -.222E-02 -.559E+00
   0.379E+02 0.216E+02 -.125E+04   -.377E+02 -.215E+02 0.125E+04   -.239E+00 -.129E+00 0.677E+00   0.109E-01 -.142E-01 -.578E+00
   0.742E+01 0.612E+01 -.122E+04   -.752E+01 -.615E+01 0.122E+04   0.988E-01 0.149E-01 0.902E+00   0.163E-01 0.166E-01 -.541E+00
   -.742E+01 0.617E+01 -.122E+04   0.751E+01 -.619E+01 0.122E+04   -.976E-01 0.179E-01 0.910E+00   -.365E-02 0.131E-01 -.540E+00
   0.958E-02 -.417E+02 -.125E+04   0.914E-02 0.414E+02 0.125E+04   0.641E-02 0.304E+00 0.666E+00   -.256E-01 -.154E-01 -.574E+00
   0.130E+00 0.449E+01 -.365E+04   -.131E+00 -.453E+01 0.365E+04   -.479E-03 0.466E-01 0.144E+01   0.124E-02 -.888E-03 -.163E+00
   -.531E+02 -.107E+03 -.362E+04   0.533E+02 0.108E+03 0.362E+04   -.275E+00 -.191E+00 0.138E+00   -.323E-01 -.595E-01 -.335E+00
   0.529E+02 -.108E+03 -.362E+04   -.532E+02 0.108E+03 0.362E+04   0.265E+00 -.206E+00 0.895E-01   0.576E-01 -.493E-01 -.330E+00
   -.128E+03 -.199E+01 -.363E+04   0.129E+03 0.219E+01 0.363E+04   -.406E+00 -.194E+00 0.600E-01   -.687E-01 -.776E-02 -.334E+00
   0.129E+03 -.196E+01 -.363E+04   -.129E+03 0.215E+01 0.363E+04   0.385E+00 -.196E+00 0.948E-01   0.968E-01 0.446E-02 -.327E+00
   -.749E+02 0.115E+03 -.364E+04   0.750E+02 -.116E+03 0.364E+04   -.838E-01 0.437E+00 0.373E+00   -.173E-01 0.963E-01 -.326E+00
   0.748E+02 0.116E+03 -.364E+04   -.749E+02 -.116E+03 0.364E+04   0.656E-01 0.440E+00 0.380E+00   0.651E-01 0.990E-01 -.335E+00
   0.141E+00 0.580E+01 -.367E+04   -.122E+00 -.578E+01 0.366E+04   0.141E-01 -.880E-02 0.174E+01   -.328E-01 -.110E-01 -.299E+00
   -.284E+00 -.121E+02 -.132E+04   0.278E+00 0.119E+02 0.132E+04   0.861E-02 0.236E+00 0.273E+01   0.104E-03 -.446E-02 -.804E-01
   0.692E+02 0.404E+02 -.365E+03   -.761E+02 -.445E+02 0.367E+03   0.683E+01 0.416E+01 -.169E+01   -.215E-02 -.157E-02 0.184E-01
   -.660E+02 0.456E+02 -.365E+03   0.725E+02 -.503E+02 0.366E+03   -.650E+01 0.468E+01 -.163E+01   0.218E-02 -.150E-02 0.183E-01
   -.225E+01 -.643E+02 -.211E+04   0.383E+01 0.105E+03 0.210E+04   -.158E+01 -.408E+02 0.469E+01   0.128E-02 -.148E-02 0.117E+00
 -----------------------------------------------------------------------------------------------
   0.122E+01 0.316E+02 0.243E+02   0.284E-13 0.711E-13 -.909E-11   -.127E+01 -.317E+02 -.121E+02   0.473E-01 0.616E-01 -.122E+02
 
 
 POSITION                                       TOTAL-FORCE (eV/Angst)
 -----------------------------------------------------------------------------------
      0.00000      0.00000      5.37156         0.000081      0.000930      0.001889
      2.56560      0.00000      5.37156         0.007043      0.006408      0.042132
      5.13119      0.00000      5.37156        -0.006905      0.006193      0.041853
      1.28280      2.22187      5.37156         0.007689      0.001389      0.044476
      3.84839      2.22187      5.37156         0.000277     -0.001169      0.055905
      6.41399      2.22187      5.37156        -0.007457      0.001500      0.045076
      2.56560      4.44374      5.37156         0.002849     -0.007500      0.045032
      5.13119      4.44374      5.37156        -0.003023     -0.007504      0.044844
      7.69679      4.44374      5.37156        -0.000424      0.001170      0.022604
      1.28280      0.74062      7.46636         0.018189      0.010522     -0.101450
      3.84839      0.74062      7.46636         0.000263     -0.020901     -0.031926
      6.41399      0.74062      7.46636        -0.017971      0.010365     -0.101486
      2.56560      2.96249      7.46636        -0.013805      0.012720     -0.029692
      5.13119      2.96249      7.46636         0.014668      0.012857     -0.029533
      7.69679      2.96249      7.46636         0.000143      0.009768     -0.029797
      3.84839      5.18437      7.46636        -0.000041     -0.024166     -0.104020
      6.41399      5.18437      7.46636         0.007577     -0.003329     -0.022806
      8.97958      5.18437      7.46636        -0.007215     -0.003755     -0.023058
      7.69679      1.47625      9.53578        -0.000286     -0.014942     -0.016149
      2.57143      1.48462      9.57247        -0.033647     -0.023206     -0.093072
      5.12535      1.48462      9.57247         0.033581     -0.023209     -0.093813
      8.97869      3.70363      9.55450         0.013166     -0.010844      0.021293
      3.84839      3.69638      9.57247        -0.000624      0.064338     -0.104010
      6.41488      3.70363      9.55450        -0.014271     -0.011620      0.022496
     10.26671      5.92749      9.53578         0.017398      0.008804     -0.013912
      5.12686      5.92749      9.53578        -0.017691      0.009096     -0.014162
      7.69679      5.92396      9.55450        -0.000465      0.017325      0.014229
      0.00000      0.00000     11.64309         0.000086      0.006867      0.052352
      6.39641      6.62889     11.65568        -0.052771     -0.067007     -0.086850
      8.99717      6.62889     11.65568         0.053318     -0.064616     -0.083998
      8.93899      2.22500     11.65568        -0.036494     -0.001343     -0.032633
      6.45458      2.22500     11.65568         0.037971     -0.003293     -0.032954
     10.23937      4.47733     11.65568        -0.035567      0.041112     -0.045363
      5.15420      4.47733     11.65568         0.036135      0.042919     -0.048228
      7.69679      4.44374     11.66757         0.000302      0.002466      0.038638
      3.84839      2.22187     11.91603         0.002884      0.033518      0.639135
      3.03513      1.40266     14.36193        -0.002996     -0.000476     -0.000831
      4.60861      1.34133     14.35497         0.005922     -0.002483     -0.000310
      3.84249      1.92421     14.15715        -0.007891     -0.008899      0.008100
 -----------------------------------------------------------------------------------
    total drift:                               -0.000397     -0.004477      0.034354


--------------------------------------------------------------------------------------------------------



  FREE ENERGIE OF THE ION-ELECTRON SYSTEM (eV)
  ---------------------------------------------------
  free  energy   TOTEN  =      -147.19242809 eV

  energy  without entropy=     -147.19242809  energy(sigma->0) =     -147.19242809
 


--------------------------------------------------------------------------------------------------------


    POTLOK:  cpu time    0.0305: real time    0.0306


--------------------------------------------------------------------------------------------------------


 stress matrix after NEB project (eV)
     -6.50934      0.01353     -0.02280
      0.01353     -6.38644     -0.01822
     -0.02280     -0.01822     -1.29475
  FORCES: max atom, RMS     0.014391    0.002574
  FORCE total and by dimension    0.016072    0.008899
  Stress total and by dimension    9.210676    6.509343
     LOOP+:  cpu time  254.0892: real time  254.1041
 -----------------------------------------------------------------------------
|                                                                             |
|           W    W    AA    RRRRR   N    N  II  N    N   GGGG   !!!           |
|           W    W   A  A   R    R  NN   N  II  NN   N  G    G  !!!           |
|           W    W  A    A  R    R  N N  N  II  N N  N  G       !!!           |
|           W WW W  AAAAAA  RRRRR   N  N N  II  N  N N  G  GGG   !            |
|           WW  WW  A    A  R   R   N   NN  II  N   NN  G    G                |
|           W    W  A    A  R    R  N    N  II  N    N   GGGG   !!!           |
|                                                                             |
|     Tetrahedron method does not include variations of the Fermi             |
|     occupations, so forces and stress will be inaccurate. We suggest        |
|     using a different smearing scheme ISMEAR = 1 or 2 for metals in         |
|     relaxations.                                                            |
|                                                                             |
 -----------------------------------------------------------------------------

    4ORBIT:  cpu time    0.0000: real time    0.0000



 total charge

# of ion       s       p       d       tot
------------------------------------------
    1        0.450   0.283   9.187   9.920
    2        0.448   0.286   9.185   9.919
    3        0.448   0.286   9.185   9.919
    4        0.448   0.286   9.185   9.919
    5        0.448   0.286   9.182   9.916
    6        0.448   0.286   9.185   9.919
    7        0.448   0.286   9.185   9.919
    8        0.447   0.286   9.185   9.919
    9        0.450   0.284   9.186   9.920
   10        0.443   0.371   9.176   9.990
   11        0.441   0.365   9.181   9.987
   12        0.443   0.371   9.176   9.990
   13        0.440   0.365   9.181   9.987
   14        0.440   0.365   9.181   9.987
   15        0.440   0.372   9.176   9.988
   16        0.442   0.371   9.176   9.990
   17        0.439   0.372   9.176   9.988
   18        0.439   0.372   9.176   9.988
   19        0.445   0.373   9.178   9.996
   20        0.459   0.387   9.159  10.005
   21        0.460   0.387   9.159  10.005
   22        0.435   0.375   9.177   9.987
   23        0.459   0.386   9.160  10.005
   24        0.435   0.375   9.177   9.987
   25        0.445   0.372   9.179   9.997
   26        0.445   0.372   9.179   9.996
   27        0.435   0.375   9.177   9.987
   28        0.443   0.303   9.176   9.923
   29        0.489   0.330   9.157   9.976
   30        0.489   0.331   9.157   9.977
   31        0.488   0.330   9.156   9.974
   32        0.488   0.330   9.156   9.973
   33        0.488   0.326   9.158   9.972
   34        0.488   0.326   9.158   9.972
   35        0.442   0.307   9.177   9.926
   36        0.623   0.541   1.979   3.143
   37        0.593   0.116   0.000   0.709
   38        0.593   0.116   0.000   0.709
   39        1.564   3.636   0.000   5.200
--------------------------------------------------
tot         19.206  16.286 323.090 358.582
 
 BZINTS: Fermi energy:    0.084790;  397.000000 electrons
         Band energy:-0.120576E+04;  BLOECHL correction:   -0.044895

 total amount of memory used by VASP MPI-rank0   226350. kBytes
=======================================================================

   base      :      30000. kBytes
   nonlr-proj:      18999. kBytes
   fftplans  :       3394. kBytes
   grid      :      15015. kBytes
   one-center:        606. kBytes
   wavefun   :     158336. kBytes
 
  
  
 General timing and accounting informations for this job:
 ========================================================
  
                  Total CPU time used (sec):      271.178
                            User time (sec):      261.916
                          System time (sec):        9.263
                         Elapsed time (sec):      271.819
  
                   Maximum memory used (kb):      497052.
                   Average memory used (kb):          N/A
  
                          Minor page faults:       197222
                          Major page faults:            0
                 Voluntary context switches:         7742
