 vasp.6.2.0 18Jan21 (build Jun 12 2021 23:27:24) complex                        
  
 executed on             LinuxIFC date 2022.05.28  02:53:57
 running on   28 total cores
 distrk:  each k-point on   28 cores,    1 groups
 distr:  one band on NCORE=   1 cores,   28 groups


--------------------------------------------------------------------------------------------------------


 INCAR:
   ISMEAR = -5
   SIGMA = 0.1
   ISPIN = 1
   EDIFF = 1.d-5
   EDIFFG = -0.01
   NSW = 0
   NELM = 150
   ENCUT = 500
   ISIF = 2
   IBRION = 2
   LREAL = Auto
   ALGO = Fast
   ICHARG = 11
   LORBIT = 10
   LCHARG = .F.
   LWAVE = .F.

 POTCAR:    PAW_PBE Cu 22Jun2005                  
 POTCAR:    PAW_PBE Ir 06Sep2000                  
 POTCAR:    PAW_PBE O 08Apr2002                   
 POTCAR:    PAW_PBE H 15Jun2001                   
 -----------------------------------------------------------------------------
|                                                                             |
|           W    W    AA    RRRRR   N    N  II  N    N   GGGG   !!!           |
|           W    W   A  A   R    R  NN   N  II  NN   N  G    G  !!!           |
|           W    W  A    A  R    R  N N  N  II  N N  N  G       !!!           |
|           W WW W  AAAAAA  RRRRR   N  N N  II  N  N N  G  GGG   !            |
|           WW  WW  A    A  R   R   N   NN  II  N   NN  G    G                |
|           W    W  A    A  R    R  N    N  II  N    N   GGGG   !!!           |
|                                                                             |
|     For optimal performance we recommend to set                             |
|       NCORE = 2 up to number-of-cores-per-socket                            |
|     NCORE specifies how many cores store one orbital (NPAR=cpu/NCORE).      |
|     This setting can greatly improve the performance of VASP for DFT.       |
|     The default, NCORE=1 might be grossly inefficient on modern             |
|     multi-core architectures or massively parallel machines. Do your        |
|     own testing! More info at https://www.vasp.at/wiki/index.php/NCORE      |
|     Unfortunately you need to use the default for GW and RPA                |
|     calculations (for HF NCORE is supported but not extensively tested      |
|     yet).                                                                   |
|                                                                             |
 -----------------------------------------------------------------------------

 POTCAR:    PAW_PBE Cu 22Jun2005                  
   VRHFIN =Cu: d10 p1                                                                               
   LEXCH  = PE                                                                                      
   EATOM  =  1390.9808 eV,  102.2342 Ry                                                             
                                                                                                    
   TITEL  = PAW_PBE Cu 22Jun2005                                                                    
   LULTRA =        F    use ultrasoft PP ?                                                          
   IUNSCR =        1    unscreen: 0-lin 1-nonlin 2-no                                               
   RPACOR =    2.000    partial core radius                                                         
   POMASS =   63.546; ZVAL   =   11.000    mass and valenz                                          
   RCORE  =    2.300    outmost cutoff radius                                                       
   RWIGS  =    2.200; RWIGS  =    1.164    wigner-seitz radius (au A)                               
   ENMAX  =  295.446; ENMIN  =  221.585 eV                                                          
   ICORE  =        3    local potential                                                             
   LCOR   =        T    correct aug charges                                                         
   LPAW   =        T    paw PP                                                                      
   EAUG   =  586.980                                                                                
   DEXC   =    0.000                                                                                
   RMAX   =    2.344    core radius for proj-oper                                                   
   RAUG   =    1.300    factor for augmentation sphere                                              
   RDEP   =    2.302    radius for radial grids                                                     
   RDEPT  =    1.771    core radius for aug-charge                                                  
                                                                                                    
   Atomic configuration                                                                             
    9 entries                                                                                       
     n  l   j            E        occ.                                                              
     1  0  0.50     -8850.2468   2.0000                                                             
     2  0  0.50     -1062.3498   2.0000                                                             
     2  1  1.50      -916.8226   6.0000                                                             
     3  0  0.50      -114.6929   2.0000                                                             
     3  1  1.50       -72.1325   6.0000                                                             
     3  2  2.50        -5.0394  10.0000                                                             
     4  0  0.50        -4.6097   1.0000                                                             
     4  1  0.50        -4.0817   0.0000                                                             
     4  3  2.50        -1.3606   0.0000                                                             
   Description                                                                                      
     l       E           TYP  RCUT    TYP  RCUT                                                     
     2     -5.0393973     23  2.200                                                                 
     2     10.8846608     23  2.200                                                                 
     0     -4.6097109     23  2.200                                                                 
     0      8.2520465     23  2.200                                                                 
     1     -2.7211652     23  2.200                                                                 
     1     21.7055443     23  2.200                                                                 
     3      2.7211652     23  2.300                                                                 
  local pseudopotential read in
  partial core-charges read in
  partial kinetic energy density read in
  atomic valenz-charges read in
  non local Contribution for L=           2  read in
    real space projection operators read in
  non local Contribution for L=           2  read in
    real space projection operators read in
  non local Contribution for L=           0  read in
    real space projection operators read in
  non local Contribution for L=           0  read in
    real space projection operators read in
  non local Contribution for L=           1  read in
    real space projection operators read in
  non local Contribution for L=           1  read in
    real space projection operators read in
    PAW grid and wavefunctions read in
 
   number of l-projection  operators is LMAX  =           6
   number of lm-projection operators is LMMAX =          18
 
 POTCAR:    PAW_PBE Ir 06Sep2000                  
   VRHFIN =Ir: s1d8                                                                                 
   LEXCH  = PE                                                                                      
   EATOM  =   560.1833 eV,   41.1723 Ry                                                             
                                                                                                    
   TITEL  = PAW_PBE Ir 06Sep2000                                                                    
   LULTRA =        F    use ultrasoft PP ?                                                          
   IUNSCR =        1    unscreen: 0-lin 1-nonlin 2-no                                               
   RPACOR =    2.250    partial core radius                                                         
   POMASS =  192.220; ZVAL   =    9.000    mass and valenz                                          
   RCORE  =    2.600    outmost cutoff radius                                                       
   RWIGS  =    2.690; RWIGS  =    1.423    wigner-seitz radius (au A)                               
   ENMAX  =  210.864; ENMIN  =  158.148 eV                                                          
   RCLOC  =    1.857    cutoff for local pot                                                        
   LCOR   =        T    correct aug charges                                                         
   LPAW   =        T    paw PP                                                                      
   EAUG   =  318.962                                                                                
   DEXC   =    0.000                                                                                
   RMAX   =    2.667    core radius for proj-oper                                                   
   RAUG   =    1.300    factor for augmentation sphere                                              
   RDEP   =    2.748    radius for radial grids                                                     
   RDEPT  =    2.300    core radius for aug-charge                                                  
                                                                                                    
   Atomic configuration                                                                             
   16 entries                                                                                       
     n  l   j            E        occ.                                                              
     1  0  0.50    -76100.0449   2.0000                                                             
     2  0  0.50    -13308.1683   2.0000                                                             
     2  1  1.50    -11558.0021   6.0000                                                             
     3  0  0.50     -3110.7274   2.0000                                                             
     3  1  1.50     -2599.2109   6.0000                                                             
     3  2  2.50     -2037.1515  10.0000                                                             
     4  0  0.50      -661.6001   2.0000                                                             
     4  1  1.50      -493.8981   6.0000                                                             
     4  2  2.50      -288.1909  10.0000                                                             
     4  3  3.50       -59.5718  14.0000                                                             
     5  0  0.50       -95.3879   2.0000                                                             
     5  1  1.50       -52.2747   6.0000                                                             
     5  2  2.50        -5.4180   8.0000                                                             
     6  0  0.50        -5.5479   1.0000                                                             
     6  1  1.50        -6.8029   0.0000                                                             
     5  3  2.50        -1.3606   0.0000                                                             
   Description                                                                                      
     l       E           TYP  RCUT    TYP  RCUT                                                     
     2     -5.4179967     23  2.600                                                                 
     2     -6.7785793     23  2.600                                                                 
     0     -5.5478636     23  2.600                                                                 
     0      2.2542272     23  2.600                                                                 
     1     -2.7211652     23  2.600                                                                 
     1     20.4087390     23  2.600                                                                 
  local pseudopotential read in
  partial core-charges read in
  partial kinetic energy density read in
  atomic valenz-charges read in
  non local Contribution for L=           2  read in
    real space projection operators read in
  non local Contribution for L=           2  read in
    real space projection operators read in
  non local Contribution for L=           0  read in
    real space projection operators read in
  non local Contribution for L=           0  read in
    real space projection operators read in
  non local Contribution for L=           1  read in
    real space projection operators read in
  non local Contribution for L=           1  read in
    real space projection operators read in
    PAW grid and wavefunctions read in
 
   number of l-projection  operators is LMAX  =           6
   number of lm-projection operators is LMMAX =          18
 
 POTCAR:    PAW_PBE O 08Apr2002                   
   VRHFIN =O: s2p4                                                                                  
   LEXCH  = PE                                                                                      
   EATOM  =   432.3788 eV,   31.7789 Ry                                                             
                                                                                                    
   TITEL  = PAW_PBE O 08Apr2002                                                                     
   LULTRA =        F    use ultrasoft PP ?                                                          
   IUNSCR =        1    unscreen: 0-lin 1-nonlin 2-no                                               
   RPACOR =    1.200    partial core radius                                                         
   POMASS =   16.000; ZVAL   =    6.000    mass and valenz                                          
   RCORE  =    1.520    outmost cutoff radius                                                       
   RWIGS  =    1.550; RWIGS  =    0.820    wigner-seitz radius (au A)                               
   ENMAX  =  400.000; ENMIN  =  300.000 eV                                                          
   ICORE  =        2    local potential                                                             
   LCOR   =        T    correct aug charges                                                         
   LPAW   =        T    paw PP                                                                      
   EAUG   =  605.392                                                                                
   DEXC   =    0.000                                                                                
   RMAX   =    1.553    core radius for proj-oper                                                   
   RAUG   =    1.300    factor for augmentation sphere                                              
   RDEP   =    1.550    radius for radial grids                                                     
   RDEPT  =    1.329    core radius for aug-charge                                                  
                                                                                                    
   Atomic configuration                                                                             
    4 entries                                                                                       
     n  l   j            E        occ.                                                              
     1  0  0.50      -514.6923   2.0000                                                             
     2  0  0.50       -23.9615   2.0000                                                             
     2  1  0.50        -9.0305   4.0000                                                             
     3  2  1.50        -9.5241   0.0000                                                             
   Description                                                                                      
     l       E           TYP  RCUT    TYP  RCUT                                                     
     0    -23.9615318     23  1.200                                                                 
     0     -9.5240782     23  1.200                                                                 
     1     -9.0304911     23  1.520                                                                 
     1      8.1634956     23  1.520                                                                 
     2     -9.5240782      7  1.500                                                                 
  local pseudopotential read in
  partial core-charges read in
  partial kinetic energy density read in
  kinetic energy density of atom read in
  atomic valenz-charges read in
  non local Contribution for L=           0  read in
    real space projection operators read in
  non local Contribution for L=           0  read in
    real space projection operators read in
  non local Contribution for L=           1  read in
    real space projection operators read in
  non local Contribution for L=           1  read in
    real space projection operators read in
    PAW grid and wavefunctions read in
 
   number of l-projection  operators is LMAX  =           4
   number of lm-projection operators is LMMAX =           8
 
 POTCAR:    PAW_PBE H 15Jun2001                   
   VRHFIN =H: ultrasoft test                                                                        
   LEXCH  = PE                                                                                      
   EATOM  =    12.4884 eV,    0.9179 Ry                                                             
                                                                                                    
   TITEL  = PAW_PBE H 15Jun2001                                                                     
   LULTRA =        F    use ultrasoft PP ?                                                          
   IUNSCR =        0    unscreen: 0-lin 1-nonlin 2-no                                               
   RPACOR =    0.000    partial core radius                                                         
   POMASS =    1.000; ZVAL   =    1.000    mass and valenz                                          
   RCORE  =    1.100    outmost cutoff radius                                                       
   RWIGS  =    0.700; RWIGS  =    0.370    wigner-seitz radius (au A)                               
   ENMAX  =  250.000; ENMIN  =  200.000 eV                                                          
   RCLOC  =    0.701    cutoff for local pot                                                        
   LCOR   =        T    correct aug charges                                                         
   LPAW   =        T    paw PP                                                                      
   EAUG   =  400.000                                                                                
   RMAX   =    1.123    core radius for proj-oper                                                   
   RAUG   =    1.200    factor for augmentation sphere                                              
   RDEP   =    1.112    radius for radial grids                                                     
   RDEPT  =    0.926    core radius for aug-charge                                                  
                                                                                                    
   Atomic configuration                                                                             
    2 entries                                                                                       
     n  l   j            E        occ.                                                              
     1  0  0.50        -6.4927   1.0000                                                             
     2  1  0.50        -3.4015   0.0000                                                             
   Description                                                                                      
     l       E           TYP  RCUT    TYP  RCUT                                                     
     0     -6.4927494     23  1.100                                                                 
     0      6.8029130     23  1.100                                                                 
     1     -4.0817478     23  1.100                                                                 
  local pseudopotential read in
  atomic valenz-charges read in
  non local Contribution for L=           0  read in
    real space projection operators read in
  non local Contribution for L=           0  read in
    real space projection operators read in
  non local Contribution for L=           1  read in
    real space projection operators read in
    PAW grid and wavefunctions read in
 
   number of l-projection  operators is LMAX  =           3
   number of lm-projection operators is LMMAX =           5
 
 Optimization of the real space projectors (new method)

 maximal supplied QI-value         = 16.25
 optimisation between [QCUT,QGAM] = [ 11.38, 22.75] = [ 36.24,144.96] Ry 
 Optimized for a Real-space Cutoff    1.52 Angstroem

   l    n(q)    QCUT    max X(q) W(low)/X(q) W(high)/X(q)  e(spline) 
   2      9    11.376     4.610    0.21E-03    0.10E-03    0.26E-06
   2      9    11.376     8.522    0.33E-03    0.16E-03    0.37E-06
   0     10    11.376    51.609    0.62E-04    0.20E-04    0.13E-06
   0     10    11.376    27.747    0.54E-04    0.20E-04    0.13E-06
   1     10    11.376    20.408    0.13E-04    0.99E-04    0.19E-06
   1     10    11.376    13.425    0.12E-04    0.87E-04    0.17E-06
 Optimization of the real space projectors (new method)

 maximal supplied QI-value         = 14.36
 optimisation between [QCUT,QGAM] = [ 11.35, 22.84] = [ 36.05,146.02] Ry 
 Optimized for a Real-space Cutoff    1.52 Angstroem

   l    n(q)    QCUT    max X(q) W(low)/X(q) W(high)/X(q)  e(spline) 
   2      9    11.346   134.116    0.47E-03    0.13E-03    0.92E-06
   2      9    11.346   130.192    0.47E-03    0.13E-03    0.92E-06
   0     10    11.346    60.310    0.74E-04    0.13E-03    0.69E-06
   0     10    11.346    39.218    0.68E-04    0.12E-03    0.65E-06
   1     10    11.346    18.439    0.15E-03    0.34E-04    0.20E-06
   1     10    11.346    12.760    0.12E-03    0.31E-04    0.16E-06
 Optimization of the real space projectors (new method)

 maximal supplied QI-value         = 24.76
 optimisation between [QCUT,QGAM] = [ 11.39, 22.77] = [ 36.31,145.25] Ry 
 Optimized for a Real-space Cutoff    1.00 Angstroem

   l    n(q)    QCUT    max X(q) W(low)/X(q) W(high)/X(q)  e(spline) 
   0      7    11.387    20.381    0.39E-03    0.13E-02    0.15E-06
   0      7    11.387    15.268    0.42E-03    0.14E-02    0.17E-06
   1      6    11.387     5.964    0.41E-03    0.11E-02    0.17E-06
   1      6    11.387     5.382    0.39E-03    0.87E-03    0.15E-06
 Optimization of the real space projectors (new method)

 maximal supplied QI-value         = 34.20
 optimisation between [QCUT,QGAM] = [ 11.29, 22.57] = [ 35.68,142.71] Ry 
 Optimized for a Real-space Cutoff    1.16 Angstroem

   l    n(q)    QCUT    max X(q) W(low)/X(q) W(high)/X(q)  e(spline) 
   0      8    11.287    19.460    0.40E-03    0.73E-03    0.16E-06
   0      8    11.287    12.209    0.38E-03    0.70E-03    0.15E-06
   1      7    11.287     4.655    0.22E-03    0.25E-04    0.22E-06
  PAW_PBE Cu 22Jun2005                  :
 energy of atom  1       EATOM=-1390.9808
 kinetic energy error for atom=    0.0043 (will be added to EATOM!!)
  PAW_PBE Ir 06Sep2000                  :
 energy of atom  2       EATOM= -560.1833
 kinetic energy error for atom=    0.0018 (will be added to EATOM!!)
  PAW_PBE O 08Apr2002                   :
 energy of atom  3       EATOM= -432.3788
 kinetic energy error for atom=    0.0224 (will be added to EATOM!!)
  PAW_PBE H 15Jun2001                   :
 energy of atom  4       EATOM=  -12.4884
 kinetic energy error for atom=    0.0020 (will be added to EATOM!!)
 
 
 POSCAR: Cu-Ir-OOH
  positions in direct lattice
  velocities in cartesian coordinates
 exchange correlation table for  LEXCH =        8
   RHO(1)=    0.500       N(1)  =     2000
   RHO(2)=  100.500       N(2)  =     4000

 VTST: version 3.2, (02/03/18)

 CHAIN: initializing optimizer
 
 OPT: Using VASP Conjugate-Gradient optimizer
 CHAIN: Read ICHAIN            0
 
 POSCAR: Cu-Ir-OOH
  positions in direct lattice
  velocities in cartesian coordinates
 


--------------------------------------------------------------------------------------------------------


 ion  position               nearest neighbor table
   1  0.000  0.000  0.212-   7 2.57   3 2.57   4 2.57   2 2.57   6 2.57   8 2.57  12 2.57  10 2.57
                            16 2.57
   2  0.333  0.000  0.212-   8 2.57   9 2.57   5 2.57   1 2.57   3 2.57  11 2.57   4 2.57  10 2.57
                            17 2.57
   3  0.667  0.000  0.212-   1 2.57   7 2.57   6 2.57   9 2.57   2 2.57  12 2.57   5 2.57  18 2.57
                            11 2.57
   4  0.000  0.333  0.212-   5 2.57   6 2.57   1 2.57   7 2.57   2 2.57  13 2.57   9 2.57  10 2.57
                            15 2.57
   5  0.333  0.333  0.212-   4 2.57   2 2.57   7 2.57  13 2.57   8 2.57   6 2.57   3 2.57  11 2.57
                            14 2.57
   6  0.667  0.333  0.212-   4 2.57   9 2.57  15 2.57   3 2.57   1 2.57   8 2.57  14 2.57   5 2.57
                            12 2.57
   7  0.000  0.667  0.212-   1 2.57   3 2.57  16 2.57  18 2.57   4 2.57   5 2.57   8 2.57   9 2.57
                            13 2.57
   8  0.333  0.667  0.212-   9 2.57   2 2.57  17 2.57   6 2.57   1 2.57   7 2.57   5 2.57  14 2.57
                            16 2.57
   9  0.667  0.667  0.212-   8 2.57   6 2.57   2 2.57  17 2.57   3 2.57   7 2.57   4 2.57  15 2.57
                            18 2.57
  10  0.111  0.111  0.294-  20 2.53  11 2.57  12 2.57  13 2.57   1 2.57   2 2.57   4 2.57  15 2.57
                            16 2.57  17 2.57  26 2.57  19 2.57
  11  0.444  0.111  0.294-  20 2.55  21 2.55  10 2.57  13 2.57   2 2.57  17 2.57  14 2.57  12 2.57
                             5 2.57   3 2.57  18 2.57  27 2.57
  12  0.778  0.111  0.294-  21 2.53  15 2.57  10 2.57  14 2.57  18 2.57   3 2.57   1 2.57  16 2.57
                            11 2.57   6 2.57  19 2.57  25 2.57
  13  0.111  0.444  0.294-  23 2.55  20 2.55  16 2.57  18 2.57  10 2.57  11 2.57  14 2.57   5 2.57
                             4 2.57   7 2.57  15 2.57  22 2.57
  14  0.444  0.444  0.294-  21 2.55  23 2.55  15 2.57  17 2.57  12 2.57  16 2.57  13 2.57  11 2.57
                             6 2.57   8 2.57   5 2.57  24 2.57
  15  0.778  0.444  0.294-  19 2.56  24 2.56  22 2.56  14 2.57  17 2.57  12 2.57   6 2.57  18 2.57
                            10 2.57   9 2.57  13 2.57   4 2.57
  16  0.111  0.778  0.294-  23 2.53  18 2.57  13 2.57   7 2.57  14 2.57  17 2.57  12 2.57  10 2.57
                             8 2.57   1 2.57  25 2.57  26 2.57
  17  0.444  0.778  0.294-  26 2.56  27 2.56  24 2.56  14 2.57  15 2.57   8 2.57   9 2.57  11 2.57
                            16 2.57  18 2.57  10 2.57   2 2.57
  18  0.778  0.778  0.294-  25 2.56  22 2.56  27 2.56  16 2.57  13 2.57   7 2.57  15 2.57  12 2.57
                            17 2.57   9 2.57   3 2.57  11 2.57
  19  0.888  0.223  0.377-  28 2.55  21 2.55  20 2.55  22 2.56  24 2.56  15 2.56  32 2.56  31 2.56
                            12 2.57  10 2.57  25 2.58  26 2.58
  20  0.221  0.221  0.376-  10 2.53  11 2.55  13 2.55  26 2.55  19 2.55  36 2.55  27 2.57  22 2.57
                            29 2.59  31 2.59  23 2.59  21 2.59
  21  0.558  0.221  0.376-  12 2.53  14 2.55  11 2.55  19 2.55  25 2.55  36 2.55  24 2.57  27 2.57
                            32 2.59  30 2.59  20 2.59  23 2.59
  22  0.888  0.556  0.377-  35 2.54  24 2.56  27 2.56  19 2.56  25 2.56  18 2.56  15 2.56  13 2.57
                            23 2.57  20 2.57  31 2.57  33 2.57
  23  0.221  0.558  0.376-  16 2.53  13 2.55  14 2.55  25 2.55  26 2.55  36 2.55  22 2.57  24 2.57
                            33 2.59  34 2.59  20 2.59  21 2.59
  24  0.556  0.556  0.377-  35 2.54  22 2.56  27 2.56  19 2.56  26 2.56  15 2.56  17 2.56  14 2.57
                            21 2.57  23 2.57  32 2.57  34 2.57
  25  0.888  0.888  0.377-  28 2.55  21 2.55  23 2.55  22 2.56  27 2.56  18 2.56  33 2.56  30 2.56
                            16 2.57  12 2.57  19 2.58  26 2.58
  26  0.223  0.888  0.377-  28 2.55  20 2.55  23 2.55  27 2.56  24 2.56  17 2.56  29 2.56  34 2.56
                            10 2.57  16 2.57  25 2.58  19 2.58
  27  0.556  0.888  0.377-  35 2.54  24 2.56  22 2.56  26 2.56  25 2.56  17 2.56  18 2.56  11 2.57
                            20 2.57  21 2.57  29 2.57  30 2.57
  28  0.000  0.000  0.458-  25 2.55  19 2.55  26 2.55  33 2.56  30 2.56  31 2.56  29 2.56  32 2.56
                            34 2.56
  29  0.333  0.999  0.459-  34 2.55  28 2.56  26 2.56  35 2.57  31 2.57  27 2.57  36 2.57  30 2.58
                            20 2.59
  30  0.668  0.999  0.459-  33 2.55  28 2.56  25 2.56  35 2.57  32 2.57  27 2.57  36 2.57  29 2.58
                            21 2.59
  31  0.999  0.333  0.459-  32 2.55  28 2.56  19 2.56  35 2.57  29 2.57  22 2.57  36 2.57  33 2.58
                            20 2.59
  32  0.668  0.333  0.459-  31 2.55  28 2.56  19 2.56  35 2.57  30 2.57  24 2.57  36 2.57  34 2.58
                            21 2.59
  33  0.999  0.668  0.459-  30 2.55  28 2.56  25 2.56  35 2.57  34 2.57  22 2.57  36 2.57  31 2.58
                            23 2.59
  34  0.333  0.668  0.459-  29 2.55  28 2.56  26 2.56  35 2.57  33 2.57  24 2.57  36 2.57  32 2.58
                            23 2.59
  35  0.667  0.667  0.458-  24 2.54  27 2.54  22 2.54  34 2.57  32 2.57  29 2.57  30 2.57  33 2.57
                            31 2.57
  36  0.333  0.333  0.457-  37 1.97  23 2.55  20 2.55  21 2.55  31 2.57  29 2.57  33 2.57  34 2.57
                            32 2.57  30 2.57
  37  0.335  0.326  0.535-  38 1.51  36 1.97
  38  0.265  0.188  0.556-  39 0.98  37 1.51
  39  0.355  0.132  0.586-  38 0.98
 
  LATTYP: Found a hexagonal cell.
 ALAT       =     7.6967864036
 C/A-ratio  =     3.2973366172
  
  Lattice vectors:
  
 A1 = (  -3.8483927580,  -6.6656128093,   0.0000000000)
 A2 = (   7.6967864037,   0.0000000000,   0.0000000000)
 A3 = (   0.0000000000,   0.0000000000,  25.3788956434)


Analysis of symmetry for initial positions (statically):
=====================================================================
 Subroutine PRICEL returns:
 Original cell was already a primitive cell.
 

 Routine SETGRP: Setting up the symmetry group for a 
 hexagonal supercell.


 Subroutine GETGRP returns: Found  1 space group operations
 (whereof  1 operations were pure point group operations)
 out of a pool of 24 trial point group operations.


The static configuration has the point symmetry C_1 .


Analysis of symmetry for dynamics (positions and initial velocities):
=====================================================================
 Subroutine PRICEL returns:
 Original cell was already a primitive cell.
 

 Routine SETGRP: Setting up the symmetry group for a 
 hexagonal supercell.


 Subroutine GETGRP returns: Found  1 space group operations
 (whereof  1 operations were pure point group operations)
 out of a pool of 24 trial point group operations.


The dynamic configuration has the point symmetry C_1 .


Analysis of constrained symmetry for selective dynamics:
=====================================================================
 Subroutine PRICEL returns:
 Original cell was already a primitive cell.
 

 Routine SETGRP: Setting up the symmetry group for a 
 hexagonal supercell.


 Subroutine GETGRP returns: Found  1 space group operations
 (whereof  1 operations were pure point group operations)
 out of a pool of 24 trial point group operations.


The constrained configuration has the point symmetry C_1 .


 Subroutine INISYM returns: Found  1 space group operations
 (whereof  1 operations are pure point group operations),
 and found     1 'primitive' translations


----------------------------------------------------------------------------------------

                                     Primitive cell                                     

  volume of cell :    1302.0337

  direct lattice vectors                    reciprocal lattice vectors
     7.696786404  0.000000000  0.000000000     0.129924354 -0.075011849  0.000000000
     3.848392758  6.665612809  0.000000000     0.000000000  0.150023716  0.000000000
     0.000000000  0.000000000 25.378895643     0.000000000  0.000000000  0.039402818

  length of vectors
     7.696786404  7.696786404 25.378895643     0.150023716  0.150023716  0.039402818

  position of ions in fractional coordinates (direct lattice)
     0.000000000  0.000000000  0.211654586
     0.333333343  0.000000000  0.211654586
     0.666666687  0.000000000  0.211654586
     1.000000000  0.333333343  0.211654586
     0.333333313  0.333333343  0.211654586
     0.666666687  0.333333343  0.211654586
     1.000000000  0.666666687  0.211654586
     0.333333373  0.666666687  0.211654586
     0.666666627  0.666666687  0.211654586
     0.111111119  0.111111112  0.294195619
     0.444444418  0.111111112  0.294195619
     0.777777791  0.111111112  0.294195619
     0.111111119  0.444444448  0.294195619
     0.444444478  0.444444448  0.294195619
     0.777777731  0.444444448  0.294195619
     0.111111112  0.777777731  0.294195619
     0.444444478  0.777777731  0.294195619
     0.777777851  0.777777731  0.294195619
     0.888405840  0.223188336  0.376758261
     0.221047320  0.221047305  0.375564566
     0.557905420  0.221047305  0.375564566
     0.888076192  0.555961874  0.376701037
     0.221047290  0.557905360  0.375564566
     0.555961934  0.555961874  0.376701037
     0.888405840  0.888405840  0.376758261
     0.223188351  0.888405840  0.376758261
     0.555961874  0.888076192  0.376701037
     0.000000000  0.000000000  0.458255405
     0.332763824  0.999227797  0.459479823
     0.668008409  0.999227797  0.459479823
     0.999227797  0.332763824  0.459479823
     0.668008409  0.332763824  0.459479823
     0.999227797  0.668008409  0.459479823
     0.332763854  0.668008409  0.459479823
     0.666666627  0.666666687  0.458221206
     0.333333313  0.333333343  0.457077430
     0.334590793  0.325905989  0.534849239
     0.264860682  0.187570692  0.555913978
     0.355074752  0.131619632  0.586356560

  ion indices of the primitive-cell ions
   primitive index   ion index
                 1           1
                 2           2
                 3           3
                 4           4
                 5           5
                 6           6
                 7           7
                 8           8
                 9           9
                10          10
                11          11
                12          12
                13          13
                14          14
                15          15
                16          16
                17          17
                18          18
                19          19
                20          20
                21          21
                22          22
                23          23
                24          24
                25          25
                26          26
                27          27
                28          28
                29          29
                30          30
                31          31
                32          32
                33          33
                34          34
                35          35
                36          36
                37          37
                38          38
                39          39

----------------------------------------------------------------------------------------

 
 
 KPOINTS: Automatic mesh                          

Automatic generation of k-mesh.
 Grid dimensions read from file:
 generate k-points for:    8    8    1

 Generating k-lattice:

  Cartesian coordinates                     Fractional coordinates (reciprocal lattice)
     0.016240544 -0.009376481  0.000000000     0.125000000 -0.000000000  0.000000000
     0.000000000  0.018752964  0.000000000     0.000000000  0.125000000  0.000000000
     0.000000000  0.000000000  0.039402818     0.000000000  0.000000000  1.000000000

  Length of vectors
     0.018752964  0.018752964  0.039402818

  Shift w.r.t. Gamma in fractional coordinates (k-lattice)
     0.000000000  0.000000000  0.000000000

 TETIRR: Found    192 inequivalent tetrahedra from      384
 
 Subroutine IBZKPT returns following result:
 ===========================================
 
 Found     34 irreducible k-points:
 
 Following reciprocal coordinates:
            Coordinates               Weight
  0.000000  0.000000  0.000000      1.000000
  0.125000  0.000000  0.000000      2.000000
  0.125000  0.125000  0.000000      2.000000
  0.000000  0.125000  0.000000      2.000000
  0.250000  0.000000  0.000000      2.000000
  0.250000  0.250000  0.000000      2.000000
  0.000000  0.250000  0.000000      2.000000
  0.375000  0.000000  0.000000      2.000000
  0.375000  0.375000  0.000000      2.000000
  0.000000  0.375000  0.000000      2.000000
  0.500000  0.000000  0.000000      1.000000
  0.500000  0.500000  0.000000      1.000000
  0.000000  0.500000  0.000000      1.000000
  0.250000  0.125000  0.000000      2.000000
  0.125000  0.250000  0.000000      2.000000
 -0.125000  0.125000  0.000000      2.000000
  0.375000  0.125000  0.000000      2.000000
  0.250000  0.375000  0.000000      2.000000
 -0.125000  0.250000  0.000000      2.000000
  0.250000 -0.125000  0.000000      2.000000
 -0.125000 -0.375000  0.000000      2.000000
 -0.375000 -0.250000  0.000000      2.000000
  0.500000  0.125000  0.000000      2.000000
  0.375000  0.500000  0.000000      2.000000
 -0.125000  0.375000  0.000000      2.000000
  0.375000 -0.125000  0.000000      2.000000
 -0.125000  0.500000  0.000000      2.000000
  0.500000 -0.375000  0.000000      2.000000
  0.500000  0.250000  0.000000      2.000000
  0.250000  0.500000  0.000000      2.000000
 -0.250000  0.250000  0.000000      2.000000
 -0.375000  0.250000  0.000000      2.000000
  0.375000 -0.375000  0.000000      2.000000
 -0.250000  0.375000  0.000000      2.000000
 
 Following cartesian coordinates:
            Coordinates               Weight
  0.000000  0.000000  0.000000      1.000000
  0.016241 -0.009376  0.000000      2.000000
  0.016241  0.009376  0.000000      2.000000
  0.000000  0.018753  0.000000      2.000000
  0.032481 -0.018753  0.000000      2.000000
  0.032481  0.018753  0.000000      2.000000
  0.000000  0.037506  0.000000      2.000000
  0.048722 -0.028129  0.000000      2.000000
  0.048722  0.028129  0.000000      2.000000
  0.000000  0.056259  0.000000      2.000000
  0.064962 -0.037506  0.000000      1.000000
  0.064962  0.037506  0.000000      1.000000
  0.000000  0.075012  0.000000      1.000000
  0.032481  0.000000  0.000000      2.000000
  0.016241  0.028129  0.000000      2.000000
 -0.016241  0.028129  0.000000      2.000000
  0.048722 -0.009376  0.000000      2.000000
  0.032481  0.037506  0.000000      2.000000
 -0.016241  0.046882  0.000000      2.000000
  0.032481 -0.037506  0.000000      2.000000
 -0.016241 -0.046882  0.000000      2.000000
 -0.048722 -0.009376  0.000000      2.000000
  0.064962 -0.018753  0.000000      2.000000
  0.048722  0.046882  0.000000      2.000000
 -0.016241  0.065635  0.000000      2.000000
  0.048722 -0.046882  0.000000      2.000000
 -0.016241  0.084388  0.000000      2.000000
  0.064962 -0.093765  0.000000      2.000000
  0.064962  0.000000  0.000000      2.000000
  0.032481  0.056259  0.000000      2.000000
 -0.032481  0.056259  0.000000      2.000000
 -0.048722  0.065635  0.000000      2.000000
  0.048722 -0.084388  0.000000      2.000000
 -0.032481  0.075012  0.000000      2.000000
 


--------------------------------------------------------------------------------------------------------




 Dimension of arrays:
   k-points           NKPTS =     34   k-points in BZ     NKDIM =     34   number of bands    NBANDS=    252
   number of dos      NEDOS =    301   number of ions     NIONS =     39
   non local maximal  LDIM  =      6   non local SUM 2l+1 LMDIM =     18
   total plane-waves  NPLWV = 246960
   max r-space proj   IRMAX =   2832   max aug-charges    IRDMAX=  13913
   dimension x,y,z NGX =    42 NGY =   42 NGZ =  140
   dimension x,y,z NGXF=    84 NGYF=   84 NGZF=  280
   support grid    NGXF=    84 NGYF=   84 NGZF=  280
   ions per type =              35   1   2   1
   NGX,Y,Z   is equivalent  to a cutoff of   9.07,  9.07,  9.17 a.u.
   NGXF,Y,Z  is equivalent  to a cutoff of  18.14, 18.14, 18.34 a.u.

 SYSTEM =  unknown system                          
 POSCAR =  Cu-Ir-OOH                               

 Startparameter for this run:
   NWRITE =      2    write-flag & timer
   PREC   = normal    normal or accurate (medium, high low for compatibility)
   ISTART =      0    job   : 0-new  1-cont  2-samecut
   ICHARG =     11    charge: 1-file 2-atom 10-const
   ISPIN  =      1    spin polarized calculation?
   LNONCOLLINEAR =      F non collinear calculations
   LSORBIT =      F    spin-orbit coupling
   INIWAV =      1    electr: 0-lowe 1-rand  2-diag
   LASPH  =      F    aspherical Exc in radial PAW
   METAGGA=      F    non-selfconsistent MetaGGA calc.

 Electronic Relaxation 1
   ENCUT  =  500.0 eV  36.75 Ry    6.06 a.u.  14.03 14.03 46.27*2*pi/ulx,y,z
   ENINI  =  500.0     initial cutoff
   ENAUG  =  605.4 eV  augmentation charge cutoff
   NELM   =    150;   NELMIN=  2; NELMDL= -5     # of ELM steps 
   EDIFF  = 0.1E-04   stopping-criterion for ELM
   LREAL  =      T    real-space projection
   NLSPLINE    = F    spline interpolate recip. space projectors
   LCOMPAT=      F    compatible to vasp.4.4
   GGA_COMPAT  = T    GGA compatible to vasp.4.4-vasp.4.6
   LMAXPAW     = -100 max onsite density
   LMAXMIX     =    2 max onsite mixed and CHGCAR
   VOSKOWN=      0    Vosko Wilk Nusair interpolation
   ROPT   =   -0.00050  -0.00050  -0.00050  -0.00050
 Ionic relaxation
   EDIFFG = -.1E-01   stopping-criterion for IOM
   NSW    =      0    number of steps for IOM
   NBLOCK =      1;   KBLOCK =      1    inner block; outer block 
   IBRION =     -1    ionic relax: 0-MD 1-quasi-New 2-CG
   NFREE  =      1    steps in history (QN), initial steepest desc. (CG)
   ISIF   =      2    stress and relaxation
   IWAVPR =     10    prediction:  0-non 1-charg 2-wave 3-comb
   ISYM   =      2    0-nonsym 1-usesym 2-fastsym
   LCORR  =      T    Harris-Foulkes like correction to forces

   POTIM  = 0.5000    time-step for ionic-motion
   TEIN   =    0.0    initial temperature
   TEBEG  =    0.0;   TEEND  =   0.0 temperature during run
   SMASS  =  -3.00    Nose mass-parameter (am)
   estimated Nose-frequenzy (Omega)   =  0.10E-29 period in steps = 0.13E+47 mass=  -0.135E-26a.u.
   SCALEE = 1.0000    scale energy and forces
   NPACO  =    256;   APACO  = 16.0  distance and # of slots for P.C.
   PSTRESS=    0.0 pullay stress

  Mass of Ions in am
   POMASS =  63.55192.22 16.00  1.00
  Ionic Valenz
   ZVAL   =  11.00  9.00  6.00  1.00
  Atomic Wigner-Seitz radii
   RWIGS  =  -1.00 -1.00 -1.00 -1.00
  virtual crystal weights 
   VCA    =   1.00  1.00  1.00  1.00
   NELECT =     407.0000    total number of electrons
   NUPDOWN=      -1.0000    fix difference up-down

 DOS related values:
   EMIN   =  10.00;   EMAX   =-10.00  energy-range for DOS
   EFERMI =   0.00
   ISMEAR =    -5;   SIGMA  =   0.10  broadening in eV -4-tet -1-fermi 0-gaus

 Electronic relaxation 2 (details)
   IALGO  =     68    algorithm
   LDIAG  =      T    sub-space diagonalisation (order eigenvalues)
   LSUBROT=      F    optimize rotation matrix (better conditioning)
   TURBO    =      0    0=normal 1=particle mesh
   IRESTART =      0    0=no restart 2=restart with 2 vectors
   NREBOOT  =      0    no. of reboots
   NMIN     =      0    reboot dimension
   EREF     =   0.00    reference energy to select bands
   IMIX   =      4    mixing-type and parameters
     AMIX     =   0.40;   BMIX     =  1.00
     AMIX_MAG =   1.60;   BMIX_MAG =  1.00
     AMIN     =   0.10
     WC   =   100.;   INIMIX=   1;  MIXPRE=   1;  MAXMIX= -45

 Intra band minimization:
   WEIMIN = 0.0000     energy-eigenvalue tresh-hold
   EBREAK =  0.99E-08  absolut break condition
   DEPER  =   0.30     relativ break condition  

   TIME   =   0.40     timestep for ELM

  volume/ion in A,a.u.               =      33.39       225.30
  Fermi-wavevector in a.u.,A,eV,Ry     =   1.111046  2.099573 16.795361  1.234424
  Thomas-Fermi vector in A             =   2.247605
 
 Write flags
   LWAVE        =      F    write WAVECAR
   LDOWNSAMPLE  =      F    k-point downsampling of WAVECAR
   LCHARG       =      F    write CHGCAR
   LVTOT        =      F    write LOCPOT, total local potential
   LVHAR        =      F    write LOCPOT, Hartree potential only
   LELF         =      F    write electronic localiz. function (ELF)
   LORBIT       =     10    0 simple, 1 ext, 2 COOP (PROOUT), +10 PAW based schemes


 Dipole corrections
   LMONO  =      F    monopole corrections only (constant potential shift)
   LDIPOL =      F    correct potential (dipole corrections)
   IDIPOL =      0    1-x, 2-y, 3-z, 4-all directions 
   EPSILON=  1.0000000 bulk dielectric constant

 Exchange correlation treatment:
   GGA     =    --    GGA type
   LEXCH   =     8    internal setting for exchange type
   VOSKOWN=      0    Vosko Wilk Nusair interpolation
   LHFCALC =     F    Hartree Fock is set to
   LHFONE  =     F    Hartree Fock one center treatment
   AEXX    =    0.0000 exact exchange contribution

 Linear response parameters
   LEPSILON=     F    determine dielectric tensor
   LRPA    =     F    only Hartree local field effects (RPA)
   LNABLA  =     F    use nabla operator in PAW spheres
   LVEL    =     F    velocity operator in full k-point grid
   LINTERFAST=   F  fast interpolation
   KINTER  =     0    interpolate to denser k-point grid
   CSHIFT  =0.1000    complex shift for real part using Kramers Kronig
   OMEGAMAX=  -1.0    maximum frequency
   DEG_THRESHOLD= 0.2000000E-02 threshold for treating states as degnerate
   RTIME   =   -0.100 relaxation time in fs
  (WPLASMAI=    0.000 imaginary part of plasma frequency in eV, 0.658/RTIME)
   DFIELD  = 0.0000000 0.0000000 0.0000000 field for delta impulse in time
 
 Orbital magnetization related:
   ORBITALMAG=     F  switch on orbital magnetization
   LCHIMAG   =     F  perturbation theory with respect to B field
   DQ        =  0.001000  dq finite difference perturbation B field
   LLRAUG    =     F  two centre corrections for induced B field



--------------------------------------------------------------------------------------------------------


 Static calculation
 charge density and potential remain constant during run
 non-spin polarized calculation
 RMM-DIIS sequential band-by-band and
  variant of blocked Davidson during initial phase
 perform sub-space diagonalisation
    before iterative eigenvector-optimisation
 no mixing
 using additional bands           48
 real space projection scheme for non local part
 use partial core corrections
 calculate Harris-corrections to forces 
   (improved forces if not selfconsistent)
 use gradient corrections 
 WARNING: stress and forces are not correct
  (second derivative of E(xc) not defined)
 use of overlap-Matrix (Vanderbilt PP)
 Fermi weights with tetrahedron method with Bloechl corrections


--------------------------------------------------------------------------------------------------------


  energy-cutoff  :      500.00
  volume of cell :     1302.03
      direct lattice vectors                 reciprocal lattice vectors
     7.696786404  0.000000000  0.000000000     0.129924354 -0.075011849  0.000000000
     3.848392758  6.665612809  0.000000000     0.000000000  0.150023716  0.000000000
     0.000000000  0.000000000 25.378895643     0.000000000  0.000000000  0.039402818

  length of vectors
     7.696786404  7.696786404 25.378895643     0.150023716  0.150023716  0.039402818


 
 k-points in units of 2pi/SCALE and weight: Automatic mesh                          
   0.00000000  0.00000000  0.00000000       0.016
   0.01624054 -0.00937648  0.00000000       0.031
   0.01624054  0.00937648  0.00000000       0.031
   0.00000000  0.01875296  0.00000000       0.031
   0.03248109 -0.01875296  0.00000000       0.031
   0.03248109  0.01875297  0.00000000       0.031
   0.00000000  0.03750593  0.00000000       0.031
   0.04872163 -0.02812944  0.00000000       0.031
   0.04872163  0.02812945  0.00000000       0.031
   0.00000000  0.05625889  0.00000000       0.031
   0.06496218 -0.03750592  0.00000000       0.016
   0.06496218  0.03750593  0.00000000       0.016
   0.00000000  0.07501186  0.00000000       0.016
   0.03248109  0.00000000  0.00000000       0.031
   0.01624054  0.02812945  0.00000000       0.031
  -0.01624054  0.02812945  0.00000000       0.031
   0.04872163 -0.00937648  0.00000000       0.031
   0.03248109  0.03750593  0.00000000       0.031
  -0.01624054  0.04688241  0.00000000       0.031
   0.03248109 -0.03750593  0.00000000       0.031
  -0.01624054 -0.04688241  0.00000000       0.031
  -0.04872163 -0.00937649  0.00000000       0.031
   0.06496218 -0.01875296  0.00000000       0.031
   0.04872163  0.04688241  0.00000000       0.031
  -0.01624054  0.06563537  0.00000000       0.031
   0.04872163 -0.04688241  0.00000000       0.031
  -0.01624054  0.08438834  0.00000000       0.031
   0.06496218 -0.09376482  0.00000000       0.031
   0.06496218  0.00000000  0.00000000       0.031
   0.03248109  0.05625890  0.00000000       0.031
  -0.03248109  0.05625889  0.00000000       0.031
  -0.04872163  0.06563537  0.00000000       0.031
   0.04872163 -0.08438834  0.00000000       0.031
  -0.03248109  0.07501186  0.00000000       0.031
 
 k-points in reciprocal lattice and weights: Automatic mesh                          
   0.00000000  0.00000000  0.00000000       0.016
   0.12500000  0.00000000  0.00000000       0.031
   0.12500000  0.12500000  0.00000000       0.031
   0.00000000  0.12500000  0.00000000       0.031
   0.25000000  0.00000000  0.00000000       0.031
   0.25000000  0.25000000  0.00000000       0.031
   0.00000000  0.25000000  0.00000000       0.031
   0.37500000  0.00000000  0.00000000       0.031
   0.37500000  0.37500000  0.00000000       0.031
   0.00000000  0.37500000  0.00000000       0.031
   0.50000000  0.00000000  0.00000000       0.016
   0.50000000  0.50000000  0.00000000       0.016
   0.00000000  0.50000000  0.00000000       0.016
   0.25000000  0.12500000  0.00000000       0.031
   0.12500000  0.25000000  0.00000000       0.031
  -0.12500000  0.12500000  0.00000000       0.031
   0.37500000  0.12500000  0.00000000       0.031
   0.25000000  0.37500000  0.00000000       0.031
  -0.12500000  0.25000000  0.00000000       0.031
   0.25000000 -0.12500000  0.00000000       0.031
  -0.12500000 -0.37500000  0.00000000       0.031
  -0.37500000 -0.25000000  0.00000000       0.031
   0.50000000  0.12500000  0.00000000       0.031
   0.37500000  0.50000000  0.00000000       0.031
  -0.12500000  0.37500000  0.00000000       0.031
   0.37500000 -0.12500000  0.00000000       0.031
  -0.12500000  0.50000000  0.00000000       0.031
   0.50000000 -0.37500000  0.00000000       0.031
   0.50000000  0.25000000  0.00000000       0.031
   0.25000000  0.50000000  0.00000000       0.031
  -0.25000000  0.25000000  0.00000000       0.031
  -0.37500000  0.25000000  0.00000000       0.031
   0.37500000 -0.37500000  0.00000000       0.031
  -0.25000000  0.37500000  0.00000000       0.031
 
 position of ions in fractional coordinates (direct lattice) 
   0.00000000  0.00000000  0.21165459
   0.33333334  0.00000000  0.21165459
   0.66666669  0.00000000  0.21165459
   0.00000000  0.33333334  0.21165459
   0.33333331  0.33333334  0.21165459
   0.66666669  0.33333334  0.21165459
   0.00000000  0.66666669  0.21165459
   0.33333337  0.66666669  0.21165459
   0.66666663  0.66666669  0.21165459
   0.11111112  0.11111111  0.29419562
   0.44444442  0.11111111  0.29419562
   0.77777779  0.11111111  0.29419562
   0.11111112  0.44444445  0.29419562
   0.44444448  0.44444445  0.29419562
   0.77777773  0.44444445  0.29419562
   0.11111111  0.77777773  0.29419562
   0.44444448  0.77777773  0.29419562
   0.77777785  0.77777773  0.29419562
   0.88840584  0.22318834  0.37675826
   0.22104732  0.22104730  0.37556457
   0.55790542  0.22104730  0.37556457
   0.88807619  0.55596187  0.37670104
   0.22104729  0.55790536  0.37556457
   0.55596193  0.55596187  0.37670104
   0.88840584  0.88840584  0.37675826
   0.22318835  0.88840584  0.37675826
   0.55596187  0.88807619  0.37670104
   0.00000000  0.00000000  0.45825540
   0.33276382  0.99922780  0.45947982
   0.66800841  0.99922780  0.45947982
   0.99922780  0.33276382  0.45947982
   0.66800841  0.33276382  0.45947982
   0.99922780  0.66800841  0.45947982
   0.33276385  0.66800841  0.45947982
   0.66666663  0.66666669  0.45822121
   0.33333331  0.33333334  0.45707743
   0.33459079  0.32590599  0.53484924
   0.26486068  0.18757069  0.55591398
   0.35507475  0.13161963  0.58635656
 
 position of ions in cartesian coordinates  (Angst):
   0.00000000  0.00000000  5.37155964
   2.56559554  0.00000000  5.37155964
   5.13119109  0.00000000  5.37155964
   1.28279762  2.22187100  5.37155964
   3.84839293  2.22187100  5.37155964
   6.41398872  2.22187100  5.37155964
   2.56559525  4.44374201  5.37155964
   5.13119102  4.44374201  5.37155964
   7.69678588  4.44374201  5.37155964
   1.28279775  0.74062365  7.46635991
   3.84839295  0.74062365  7.46635991
   6.41398873  0.74062365  7.46635991
   2.56559535  2.96249461  7.46635991
   5.13119101  2.96249461  7.46635991
   7.69678586  2.96249461  7.46635991
   3.84839268  5.18436521  7.46635991
   6.41398840  5.18436521  7.46635991
   8.97958418  5.18436521  7.46635991
   7.69678637  1.48768703  9.56170860
   2.55203085  1.47341575  9.53141393
   5.14475570  1.47341575  9.53141393
   8.97489241  3.70582659  9.56025631
   3.84839272  3.71878111  9.53141393
   6.41867990  3.70582659  9.56025631
  10.25680459  5.92176935  9.56170860
   5.13676766  5.92176935  9.56170860
   7.69678578  5.91957204  9.56025631
   0.00000000  0.00000000 11.63001609
   6.40663309  6.66046561 11.66109047
   8.98693906  6.66046561 11.66109047
   8.97144882  2.21807481 11.66109047
   6.42212393  2.21807481 11.66109047
  10.26160165  4.45268541 11.66109047
   5.13197103  4.45268541 11.66109047
   7.69678588  4.44374201 11.62914817
   3.84839293  2.22187100 11.60012040
   3.82948811  2.17236314 13.57388303
   2.76042179  1.25027361 14.10848284
   3.23945856  0.87732550 14.88108196
 


--------------------------------------------------------------------------------------------------------


 k-point   1 :   0.0000 0.0000 0.0000  plane waves:   33027
 k-point   2 :   0.1250 0.0000 0.0000  plane waves:   32999
 k-point   3 :   0.1250 0.1250 0.0000  plane waves:   32999
 k-point   4 :   0.0000 0.1250 0.0000  plane waves:   32999
 k-point   5 :   0.2500 0.0000 0.0000  plane waves:   33054
 k-point   6 :   0.2500 0.2500 0.0000  plane waves:   33054
 k-point   7 :   0.0000 0.2500 0.0000  plane waves:   33054
 k-point   8 :   0.3750 0.0000 0.0000  plane waves:   33036
 k-point   9 :   0.3750 0.3750 0.0000  plane waves:   33036
 k-point  10 :   0.0000 0.3750 0.0000  plane waves:   33036
 k-point  11 :   0.5000 0.0000 0.0000  plane waves:   33066
 k-point  12 :   0.5000 0.5000 0.0000  plane waves:   33066
 k-point  13 :   0.0000 0.5000 0.0000  plane waves:   33066
 k-point  14 :   0.2500 0.1250 0.0000  plane waves:   33058
 k-point  15 :   0.1250 0.2500 0.0000  plane waves:   33058
 k-point  16 :  -0.1250 0.1250 0.0000  plane waves:   33058
 k-point  17 :   0.3750 0.1250 0.0000  plane waves:   33072
 k-point  18 :   0.2500 0.3750 0.0000  plane waves:   33072
 k-point  19 :  -0.1250 0.2500 0.0000  plane waves:   33072
 k-point  20 :   0.2500-0.1250 0.0000  plane waves:   33072
 k-point  21 :  -0.1250-0.3750 0.0000  plane waves:   33072
 k-point  22 :  -0.3750-0.2500 0.0000  plane waves:   33072
 k-point  23 :   0.5000 0.1250 0.0000  plane waves:   33053
 k-point  24 :   0.3750 0.5000 0.0000  plane waves:   33053
 k-point  25 :  -0.1250 0.3750 0.0000  plane waves:   33053
 k-point  26 :   0.3750-0.1250 0.0000  plane waves:   33053
 k-point  27 :  -0.1250 0.5000 0.0000  plane waves:   33053
 k-point  28 :   0.5000-0.3750 0.0000  plane waves:   33053
 k-point  29 :   0.5000 0.2500 0.0000  plane waves:   33084
 k-point  30 :   0.2500 0.5000 0.0000  plane waves:   33084
 k-point  31 :  -0.2500 0.2500 0.0000  plane waves:   33084
 k-point  32 :  -0.3750 0.2500 0.0000  plane waves:   33108
 k-point  33 :   0.3750-0.3750 0.0000  plane waves:   33108
 k-point  34 :  -0.2500 0.3750 0.0000  plane waves:   33108

 maximum and minimum number of plane-waves per node :     33108    32999

 maximum number of plane-waves:     33108
 maximum index in each direction: 
   IXMAX=   14   IYMAX=   14   IZMAX=   46
   IXMIN=  -14   IYMIN=  -14   IZMIN=  -46


 serial   3D FFT for wavefunctions
 parallel 3D FFT for charge:
    minimum data exchange during FFTs selected (reduces bandwidth)


 total amount of memory used by VASP MPI-rank0   231909. kBytes
=======================================================================

   base      :      30000. kBytes
   nonlr-proj:      17429. kBytes
   fftplans  :       3394. kBytes
   grid      :      15015. kBytes
   one-center:        606. kBytes
   wavefun   :     165465. kBytes
 
     INWAV:  cpu time    0.0000: real time    0.0001
 initial charge density was supplied:
 number of electron     406.9999157 magnetization 
 keeping initial charge density in first step


--------------------------------------------------------------------------------------------------------


 Maximum index for non-local projection operator         2729
 Maximum index for augmentation-charges          615 (set IRDMAX)


--------------------------------------------------------------------------------------------------------


 First call to EWALD:  gamma=   0.162
 Maximum number of real-space cells 4x 4x 1
 Maximum number of reciprocal cells 2x 2x 6

    FEWALD:  cpu time    0.0013: real time    0.0013


--------------------------------------- Iteration      1(   1)  ---------------------------------------


    POTLOK:  cpu time    0.0337: real time    0.0341
    SETDIJ:  cpu time    0.0044: real time    0.0045
     EDDAV:  cpu time   22.0102: real time   22.0118
 BZINTS: Fermi energy:   12.968582;  407.000000 electrons
         Band energy: 0.237138E+04;  BLOECHL correction:   -0.038757
       DOS:  cpu time    0.0607: real time    0.0608
    --------------------------------------------
      LOOP:  cpu time   22.1092: real time   22.1113

 eigenvalue-minimisations  : 17136
 total energy-change (2. order) : 0.3656918E+04  (-0.1736398E+05)
 number of electron     406.9999157 magnetization 
 augmentation part      406.9999157 magnetization 

 Free energy of the ion-electron system (eV)
  ---------------------------------------------------
  alpha Z        PSCENC =       782.21976621
  Ewald energy   TEWEN  =    231524.03109918
  -Hartree energ DENC   =   -279008.00728446
  -exchange      EXHF   =         0.00000000
  -V(xc)+E(xc)   XCENC  =      1600.15959264
  PAW double counting   =     47319.00647783   -51053.43314894
  entropy T*S    EENTRO =         0.00000000
  eigenvalues    EBANDS =      2371.38116893
  atomic energy  EATOM  =     50121.55989571
  Solvation  Ediel_sol  =         0.00000000
  ---------------------------------------------------
  free energy    TOTEN  =      3656.91756709 eV

  energy without entropy =     3656.91756709  energy(sigma->0) =     3656.91756709


--------------------------------------------------------------------------------------------------------




--------------------------------------- Iteration      1(   2)  ---------------------------------------


     EDDAV:  cpu time   21.9738: real time   21.9743
 BZINTS: Fermi energy:    2.697121;  407.000000 electrons
         Band energy:-0.931929E+03;  BLOECHL correction:   -0.024574
       DOS:  cpu time    0.0592: real time    0.0592
    --------------------------------------------
      LOOP:  cpu time   22.0330: real time   22.0335

 eigenvalue-minimisations  : 17136
 total energy-change (2. order) :-0.3303310E+04  (-0.3178519E+04)
 number of electron     406.9999157 magnetization 
 augmentation part      406.9999157 magnetization 

 Free energy of the ion-electron system (eV)
  ---------------------------------------------------
  alpha Z        PSCENC =       782.21976621
  Ewald energy   TEWEN  =    231524.03109918
  -Hartree energ DENC   =   -279008.00728446
  -exchange      EXHF   =         0.00000000
  -V(xc)+E(xc)   XCENC  =      1600.15959264
  PAW double counting   =     47319.00647783   -51053.43314894
  entropy T*S    EENTRO =         0.00000000
  eigenvalues    EBANDS =      -931.92858158
  atomic energy  EATOM  =     50121.55989571
  Solvation  Ediel_sol  =         0.00000000
  ---------------------------------------------------
  free energy    TOTEN  =       353.60781659 eV

  energy without entropy =      353.60781659  energy(sigma->0) =      353.60781659


--------------------------------------------------------------------------------------------------------




--------------------------------------- Iteration      1(   3)  ---------------------------------------


     EDDAV:  cpu time   25.4916: real time   25.4920
 BZINTS: Fermi energy:   -0.144963;  407.000000 electrons
         Band energy:-0.139070E+04;  BLOECHL correction:   -0.073058
       DOS:  cpu time    0.0549: real time    0.0549
    --------------------------------------------
      LOOP:  cpu time   25.5465: real time   25.5469

 eigenvalue-minimisations  : 20496
 total energy-change (2. order) :-0.4587671E+03  (-0.4359611E+03)
 number of electron     406.9999157 magnetization 
 augmentation part      406.9999157 magnetization 

 Free energy of the ion-electron system (eV)
  ---------------------------------------------------
  alpha Z        PSCENC =       782.21976621
  Ewald energy   TEWEN  =    231524.03109918
  -Hartree energ DENC   =   -279008.00728446
  -exchange      EXHF   =         0.00000000
  -V(xc)+E(xc)   XCENC  =      1600.15959264
  PAW double counting   =     47319.00647783   -51053.43314894
  entropy T*S    EENTRO =         0.00000000
  eigenvalues    EBANDS =     -1390.69568304
  atomic energy  EATOM  =     50121.55989571
  Solvation  Ediel_sol  =         0.00000000
  ---------------------------------------------------
  free energy    TOTEN  =      -105.15928487 eV

  energy without entropy =     -105.15928487  energy(sigma->0) =     -105.15928487


--------------------------------------------------------------------------------------------------------




--------------------------------------- Iteration      1(   4)  ---------------------------------------


     EDDAV:  cpu time   31.5699: real time   31.5705
 BZINTS: Fermi energy:   -0.487861;  407.000000 electrons
         Band energy:-0.142983E+04;  BLOECHL correction:   -0.052038
       DOS:  cpu time    0.0606: real time    0.0606
    --------------------------------------------
      LOOP:  cpu time   31.6305: real time   31.6311

 eigenvalue-minimisations  : 26516
 total energy-change (2. order) :-0.3913742E+02  (-0.3808102E+02)
 number of electron     406.9999157 magnetization 
 augmentation part      406.9999157 magnetization 

 Free energy of the ion-electron system (eV)
  ---------------------------------------------------
  alpha Z        PSCENC =       782.21976621
  Ewald energy   TEWEN  =    231524.03109918
  -Hartree energ DENC   =   -279008.00728446
  -exchange      EXHF   =         0.00000000
  -V(xc)+E(xc)   XCENC  =      1600.15959264
  PAW double counting   =     47319.00647783   -51053.43314894
  entropy T*S    EENTRO =         0.00000000
  eigenvalues    EBANDS =     -1429.83310434
  atomic energy  EATOM  =     50121.55989571
  Solvation  Ediel_sol  =         0.00000000
  ---------------------------------------------------
  free energy    TOTEN  =      -144.29670617 eV

  energy without entropy =     -144.29670617  energy(sigma->0) =     -144.29670617


--------------------------------------------------------------------------------------------------------




--------------------------------------- Iteration      1(   5)  ---------------------------------------


     EDDAV:  cpu time   25.9158: real time   25.9195
 BZINTS: Fermi energy:   -0.500179;  407.000000 electrons
         Band energy:-0.143080E+04;  BLOECHL correction:   -0.052627
       DOS:  cpu time    0.0598: real time    0.0598
    --------------------------------------------
      LOOP:  cpu time   25.9757: real time   25.9793

 eigenvalue-minimisations  : 20972
 total energy-change (2. order) :-0.9621336E+00  (-0.9550991E+00)
 number of electron     406.9999157 magnetization 
 augmentation part      406.9999157 magnetization 

 Free energy of the ion-electron system (eV)
  ---------------------------------------------------
  alpha Z        PSCENC =       782.21976621
  Ewald energy   TEWEN  =    231524.03109918
  -Hartree energ DENC   =   -279008.00728446
  -exchange      EXHF   =         0.00000000
  -V(xc)+E(xc)   XCENC  =      1600.15959264
  PAW double counting   =     47319.00647783   -51053.43314894
  entropy T*S    EENTRO =         0.00000000
  eigenvalues    EBANDS =     -1430.79523790
  atomic energy  EATOM  =     50121.55989571
  Solvation  Ediel_sol  =         0.00000000
  ---------------------------------------------------
  free energy    TOTEN  =      -145.25883974 eV

  energy without entropy =     -145.25883974  energy(sigma->0) =     -145.25883974


--------------------------------------------------------------------------------------------------------




--------------------------------------- Iteration      1(   6)  ---------------------------------------


    EDDIAG:  cpu time    4.1851: real time    4.1857
  RMM-DIIS:  cpu time   12.5794: real time   12.5795
    ORTHCH:  cpu time    0.7988: real time    0.7988
 BZINTS: Fermi energy:   -0.500237;  407.000000 electrons
         Band energy:-0.143081E+04;  BLOECHL correction:   -0.052628
       DOS:  cpu time    0.0586: real time    0.0586
    --------------------------------------------
      LOOP:  cpu time   17.6219: real time   17.6226

 eigenvalue-minimisations  : 18894
 total energy-change (2. order) :-0.1155337E-01  (-0.1155496E-01)
 number of electron     406.9999157 magnetization 
 augmentation part      406.9999157 magnetization 

 Free energy of the ion-electron system (eV)
  ---------------------------------------------------
  alpha Z        PSCENC =       782.21976621
  Ewald energy   TEWEN  =    231524.03109918
  -Hartree energ DENC   =   -279008.00728446
  -exchange      EXHF   =         0.00000000
  -V(xc)+E(xc)   XCENC  =      1600.15959264
  PAW double counting   =     47319.00647783   -51053.43314894
  entropy T*S    EENTRO =         0.00000000
  eigenvalues    EBANDS =     -1430.80679127
  atomic energy  EATOM  =     50121.55989571
  Solvation  Ediel_sol  =         0.00000000
  ---------------------------------------------------
  free energy    TOTEN  =      -145.27039311 eV

  energy without entropy =     -145.27039311  energy(sigma->0) =     -145.27039311


--------------------------------------------------------------------------------------------------------




--------------------------------------- Iteration      1(   7)  ---------------------------------------


    EDDIAG:  cpu time    4.1825: real time    4.1827
  RMM-DIIS:  cpu time   17.0876: real time   17.0878
    ORTHCH:  cpu time    0.7998: real time    0.7999
 BZINTS: Fermi energy:   -0.500257;  407.000000 electrons
         Band energy:-0.143081E+04;  BLOECHL correction:   -0.052632
       DOS:  cpu time    0.0599: real time    0.0599
    --------------------------------------------
      LOOP:  cpu time   22.1298: real time   22.1302

 eigenvalue-minimisations  : 25590
 total energy-change (2. order) :-0.4963756E-02  (-0.4874377E-02)
 number of electron     406.9999157 magnetization 
 augmentation part      406.9999157 magnetization 

 Free energy of the ion-electron system (eV)
  ---------------------------------------------------
  alpha Z        PSCENC =       782.21976621
  Ewald energy   TEWEN  =    231524.03109918
  -Hartree energ DENC   =   -279008.00728446
  -exchange      EXHF   =         0.00000000
  -V(xc)+E(xc)   XCENC  =      1600.15959264
  PAW double counting   =     47319.00647783   -51053.43314894
  entropy T*S    EENTRO =         0.00000000
  eigenvalues    EBANDS =     -1430.81175503
  atomic energy  EATOM  =     50121.55989571
  Solvation  Ediel_sol  =         0.00000000
  ---------------------------------------------------
  free energy    TOTEN  =      -145.27535686 eV

  energy without entropy =     -145.27535686  energy(sigma->0) =     -145.27535686


--------------------------------------------------------------------------------------------------------




--------------------------------------- Iteration      1(   8)  ---------------------------------------


    EDDIAG:  cpu time    4.1843: real time    4.1845
  RMM-DIIS:  cpu time   14.4115: real time   14.4117
    ORTHCH:  cpu time    0.7995: real time    0.7996
 BZINTS: Fermi energy:   -0.500260;  407.000000 electrons
         Band energy:-0.143081E+04;  BLOECHL correction:   -0.052631
       DOS:  cpu time    0.0599: real time    0.0599
    --------------------------------------------
      LOOP:  cpu time   19.4552: real time   19.4556

 eigenvalue-minimisations  : 21846
 total energy-change (2. order) :-0.3876173E-03  (-0.3979308E-03)
 number of electron     406.9999157 magnetization 
 augmentation part      406.9999157 magnetization 

 Free energy of the ion-electron system (eV)
  ---------------------------------------------------
  alpha Z        PSCENC =       782.21976621
  Ewald energy   TEWEN  =    231524.03109918
  -Hartree energ DENC   =   -279008.00728446
  -exchange      EXHF   =         0.00000000
  -V(xc)+E(xc)   XCENC  =      1600.15959264
  PAW double counting   =     47319.00647783   -51053.43314894
  entropy T*S    EENTRO =         0.00000000
  eigenvalues    EBANDS =     -1430.81214265
  atomic energy  EATOM  =     50121.55989571
  Solvation  Ediel_sol  =         0.00000000
  ---------------------------------------------------
  free energy    TOTEN  =      -145.27574448 eV

  energy without entropy =     -145.27574448  energy(sigma->0) =     -145.27574448


--------------------------------------------------------------------------------------------------------




--------------------------------------- Iteration      1(   9)  ---------------------------------------


    EDDIAG:  cpu time    4.1845: real time    4.1847
  RMM-DIIS:  cpu time   17.2031: real time   17.2033
    ORTHCH:  cpu time    0.7995: real time    0.7995
 BZINTS: Fermi energy:   -0.500260;  407.000000 electrons
         Band energy:-0.143081E+04;  BLOECHL correction:   -0.052631
       DOS:  cpu time    0.0586: real time    0.0586
    --------------------------------------------
      LOOP:  cpu time   22.2457: real time   22.2462

 eigenvalue-minimisations  : 25416
 total energy-change (2. order) :-0.8186261E-04  (-0.8051457E-04)
 number of electron     406.9999157 magnetization 
 augmentation part      406.9999157 magnetization 

 Free energy of the ion-electron system (eV)
  ---------------------------------------------------
  alpha Z        PSCENC =       782.21976621
  Ewald energy   TEWEN  =    231524.03109918
  -Hartree energ DENC   =   -279008.00728446
  -exchange      EXHF   =         0.00000000
  -V(xc)+E(xc)   XCENC  =      1600.15959264
  PAW double counting   =     47319.00647783   -51053.43314894
  entropy T*S    EENTRO =         0.00000000
  eigenvalues    EBANDS =     -1430.81222451
  atomic energy  EATOM  =     50121.55989571
  Solvation  Ediel_sol  =         0.00000000
  ---------------------------------------------------
  free energy    TOTEN  =      -145.27582634 eV

  energy without entropy =     -145.27582634  energy(sigma->0) =     -145.27582634


--------------------------------------------------------------------------------------------------------




--------------------------------------- Iteration      1(  10)  ---------------------------------------


    EDDIAG:  cpu time    4.1852: real time    4.1854
  RMM-DIIS:  cpu time   10.4719: real time   10.4721
    ORTHCH:  cpu time    0.8020: real time    0.8020
 BZINTS: Fermi energy:   -0.500260;  407.000000 electrons
         Band energy:-0.143081E+04;  BLOECHL correction:   -0.052631
       DOS:  cpu time    0.0597: real time    0.0597
    --------------------------------------------
      LOOP:  cpu time   15.5188: real time   15.5192

 eigenvalue-minimisations  : 14277
 total energy-change (2. order) :-0.5496957E-05  (-0.5251209E-05)
 number of electron     406.9999157 magnetization 
 augmentation part      406.9999157 magnetization 

 Free energy of the ion-electron system (eV)
  ---------------------------------------------------
  alpha Z        PSCENC =       782.21976621
  Ewald energy   TEWEN  =    231524.03109918
  -Hartree energ DENC   =   -279008.00728446
  -exchange      EXHF   =         0.00000000
  -V(xc)+E(xc)   XCENC  =      1600.15959264
  PAW double counting   =     47319.00647783   -51053.43314894
  entropy T*S    EENTRO =         0.00000000
  eigenvalues    EBANDS =     -1430.81223001
  atomic energy  EATOM  =     50121.55989571
  Solvation  Ediel_sol  =         0.00000000
  ---------------------------------------------------
  free energy    TOTEN  =      -145.27583184 eV

  energy without entropy =     -145.27583184  energy(sigma->0) =     -145.27583184


--------------------------------------------------------------------------------------------------------




 average (electrostatic) potential at core
  the test charge radii are     0.9430  1.2793  0.7215  0.5201
  (the norm of the test charge is              1.0000)
       1 -71.4798       2 -71.4599       3 -71.4486       4 -71.4554       5 -71.4710
       6 -71.4501       7 -71.4514       8 -71.4512       9 -71.4728      10 -71.7425
      11 -71.7007      12 -71.7428      13 -71.7036      14 -71.6986      15 -71.7221
      16 -71.7444      17 -71.7211      18 -71.7231      19 -71.7055      20 -71.7425
      21 -71.7662      22 -71.6949      23 -71.7732      24 -71.7012      25 -71.6944
      26 -71.7151      27 -71.7019      28 -71.4232      29 -71.4676      30 -71.4481
      31 -71.4441      32 -71.4445      33 -71.4550      34 -71.4444      35 -71.4374
      36 -58.6689      37 -77.3760      38 -77.6313      39 -41.0283
 
 
 
 E-fermi :  -0.5003     XC(G=0):  -5.1288     alpha+bet : -4.5686

 Fermi energy:        -0.5002603896

 k-point     1 :       0.0000    0.0000    0.0000
  band No.  band energies     occupation 
      1     -22.9632      2.00000
      2     -17.6074      2.00000
      3      -9.3237      2.00000
      4      -8.6253      2.00000
      5      -8.1126      2.00000
      6      -7.2967      2.00000
      7      -6.4468      2.00000
      8      -6.3540      2.00000
      9      -6.3423      2.00000
     10      -6.3005      2.00000
     11      -6.2973      2.00000
     12      -6.2822      2.00000
     13      -6.2707      2.00000
     14      -5.8500      2.00000
     15      -5.6105      2.00000
     16      -5.6060      2.00000
     17      -5.5982      2.00000
     18      -5.5530      2.00000
     19      -5.5406      2.00000
     20      -5.5235      2.00000
     21      -5.4929      2.00000
     22      -4.9947      2.00000
     23      -4.9890      2.00000
     24      -4.8658      2.00000
     25      -4.8267      2.00000
     26      -4.8150      2.00000
     27      -4.8130      2.00000
     28      -4.6822      2.00000
     29      -4.5539      2.00000
     30      -4.5491      2.00000
     31      -4.5320      2.00000
     32      -4.5252      2.00000
     33      -4.5229      2.00000
     34      -4.4970      2.00000
     35      -4.4499      2.00000
     36      -4.4256      2.00000
     37      -4.3713      2.00000
     38      -4.3595      2.00000
     39      -4.3509      2.00000
     40      -4.3479      2.00000
     41      -4.3444      2.00000
     42      -4.3332      2.00000
     43      -4.3244      2.00000
     44      -4.2971      2.00000
     45      -4.2943      2.00000
     46      -4.2715      2.00000
     47      -4.2534      2.00000
     48      -4.2112      2.00000
     49      -4.2109      2.00000
     50      -4.1892      2.00000
     51      -4.0983      2.00000
     52      -4.0837      2.00000
     53      -4.0623      2.00000
     54      -4.0412      2.00000
     55      -4.0324      2.00000
     56      -4.0249      2.00000
     57      -4.0067      2.00000
     58      -3.9940      2.00000
     59      -3.9534      2.00000
     60      -3.8536      2.00000
     61      -3.7017      2.00000
     62      -3.6931      2.00000
     63      -3.6730      2.00000
     64      -3.6711      2.00000
     65      -3.6538      2.00000
[...]
  0.000   0.000   0.000   0.000   0.000   0.000   0.000   0.000   0.000   0.000   1.000   0.000   0.000   0.000   0.000   0.000
  0.000   0.000   0.000   0.000   0.000   0.000   0.000   0.000   0.000   0.000   0.000   0.000   0.000   0.000   0.000   0.000
  0.000   0.000   0.000   0.000   0.000   0.000   0.000   0.000   0.000   0.000   0.000   0.000   0.000   0.000   0.000   0.000
  0.000   0.000   0.000   0.000   0.000   0.000   0.000   0.000   0.000   0.000   0.000   0.000   0.000   0.000   0.000   0.000
  0.000   0.000   0.000   0.000   0.000   0.000   0.000   0.000   0.000   0.000   0.000   0.000   0.000   0.000   0.000   0.000
  0.000   0.000   0.000   0.000   0.000   0.000   0.000   0.000   0.000   0.000   0.000   0.000   0.000   0.000   0.000   0.000
  0.000   0.000   0.000   0.000   0.000   0.000   0.000   0.000   0.000   0.000   0.000   0.000   0.000   0.000   0.000   0.000
  0.000   0.000   0.000   0.000   0.000   0.000   0.000   0.000   0.000   0.000   0.000   0.000   0.000   0.000   0.000   0.000


------------------------ aborting loop because EDIFF is reached ----------------------------------------





 total charge

# of ion       s       p       d       tot
------------------------------------------
    1        0.449   0.284   9.189   9.921
    2        0.448   0.285   9.186   9.919
    3        0.449   0.284   9.187   9.920
    4        0.449   0.285   9.186   9.920
    5        0.448   0.287   9.181   9.915
    6        0.450   0.284   9.186   9.920
    7        0.449   0.286   9.186   9.920
    8        0.450   0.285   9.185   9.920
    9        0.447   0.283   9.189   9.919
   10        0.441   0.372   9.176   9.989
   11        0.443   0.367   9.184   9.993
   12        0.442   0.374   9.174   9.989
   13        0.442   0.367   9.183   9.993
   14        0.443   0.367   9.184   9.993
   15        0.438   0.368   9.180   9.987
   16        0.443   0.372   9.174   9.989
   17        0.438   0.368   9.181   9.987
   18        0.437   0.370   9.179   9.986
   19        0.441   0.371   9.181   9.993
   20        0.449   0.393   9.173  10.015
   21        0.454   0.397   9.165  10.016
   22        0.434   0.369   9.186   9.989
   23        0.456   0.393   9.168  10.017
   24        0.433   0.370   9.184   9.988
   25        0.442   0.370   9.183   9.994
   26        0.440   0.372   9.180   9.992
   27        0.433   0.371   9.184   9.988
   28        0.453   0.288   9.195   9.935
   29        0.443   0.303   9.185   9.931
   30        0.448   0.302   9.189   9.939
   31        0.448   0.299   9.190   9.937
   32        0.448   0.302   9.187   9.938
   33        0.447   0.302   9.187   9.936
   34        0.451   0.302   9.186   9.940
   35        0.444   0.293   9.192   9.930
   36        0.694   0.589   7.049   8.331
   37        1.601   3.231   0.000   4.831
   38        1.594   3.376   0.000   4.970
   39        0.617   0.112   0.000   0.729
--------------------------------------------------
tot         20.075  18.993 328.454 367.522
 
    CHARGE:  cpu time    0.8327: real time    0.8328
    FORLOC:  cpu time    0.0095: real time    0.0095
    FORNL :  cpu time    4.3878: real time    4.3880
    STRESS:  cpu time   13.1356: real time   13.1359
    FORCOR:  cpu time    0.0327: real time    0.0328
    FORHAR:  cpu time    0.0144: real time    0.0145
    OFIELD:  cpu time    0.0002: real time    0.0002

  FORCE on cell =-STRESS in cart. coord.  units (eV):
  Direction    XX          YY          ZZ          XY          YZ          ZX
  --------------------------------------------------------------------------------------
  Alpha Z   782.21977   782.21977   782.21977
  Ewald  257614.59100257583.89311************   132.19148   -93.52598   -36.74225
  Hartree270508.35937270493.23580************    77.77213   -28.09973   -20.93831
  E(xc)   -2350.69728 -2350.77643 -2354.40450     0.13482    -0.30027    -0.02046
  Local  ************************541136.61850  -196.50055   103.46401    56.47389
  n-local  -812.02956  -812.33463  -828.36230     4.24094    -1.81355    -1.76957
  augment  3358.89093  3359.28994  3376.08157    -1.67944     1.79714     0.60986
  Kinetic  3516.81377  3523.01861  3533.29888   -15.85399    18.19495     2.45955
  Fock        0.00000     0.00000     0.00000     0.00000     0.00000     0.00000
  -------------------------------------------------------------------------------------
  Total      -4.33911    -4.38482     1.01965     0.30539    -0.28343     0.07271
  in kB      -5.33936    -5.39560     1.25470     0.37579    -0.34876     0.08947
  external pressure =       -3.16 kB  Pullay stress =        0.00 kB


 VOLUME and BASIS-vectors are now :
 -----------------------------------------------------------------------------
  energy-cutoff  :      500.00
  volume of cell :     1302.03
      direct lattice vectors                 reciprocal lattice vectors
     7.696786404  0.000000000  0.000000000     0.129924354 -0.075011849  0.000000000
     3.848392758  6.665612809  0.000000000     0.000000000  0.150023716  0.000000000
     0.000000000  0.000000000 25.378895643     0.000000000  0.000000000  0.039402818

  length of vectors
     7.696786404  7.696786404 25.378895643     0.150023716  0.150023716  0.039402818


 FORCES acting on ions
    electron-ion (+dipol)            ewald-force                    non-local-force                 convergence-correction
 -----------------------------------------------------------------------------------------------
   0.790E-01 -.948E-02 0.391E+04   -.739E-01 -.406E-01 -.391E+04   0.793E-02 0.413E-01 -.288E+01   -.174E-01 0.336E-03 -.481E+00
   -.952E-01 0.214E+00 0.391E+04   -.218E-01 -.194E+00 -.391E+04   0.452E-01 0.321E-01 -.199E+01   0.776E-01 -.295E-01 -.509E+00
   -.304E-03 0.211E-01 0.391E+04   0.956E-01 -.143E+00 -.391E+04   -.474E-01 0.635E-01 -.182E+01   -.506E-01 0.736E-01 -.527E+00
   0.153E+00 -.203E+00 0.391E+04   -.180E+00 0.113E+00 -.391E+04   0.324E-01 0.471E-01 -.186E+01   0.132E-01 0.422E-01 -.489E+00
   -.207E+00 -.987E-01 0.391E+04   0.808E-01 0.809E-01 -.391E+04   0.653E-01 0.437E-01 -.172E+01   0.715E-01 -.179E-01 -.399E+00
   0.244E-01 -.143E+00 0.391E+04   0.994E-01 0.735E-01 -.391E+04   -.763E-01 -.909E-02 -.177E+01   -.717E-01 0.749E-01 -.511E+00
   0.122E+00 0.383E-01 0.391E+04   -.779E-01 0.119E+00 -.391E+04   -.251E-01 -.121E+00 -.171E+01   -.340E-02 -.487E-01 -.478E+00
   -.169E+00 0.123E+00 0.391E+04   0.838E-01 0.302E-01 -.391E+04   -.297E-01 -.941E-01 -.171E+01   0.884E-01 -.782E-01 -.466E+00
   0.163E+00 0.750E-01 0.391E+04   -.588E-02 -.396E-01 -.391E+04   -.339E-01 -.189E-01 -.237E+01   -.121E+00 -.192E-01 -.505E+00
   0.407E+01 0.223E+01 0.139E+04   -.370E+01 -.194E+01 -.139E+04   -.430E+00 -.296E+00 -.114E+01   0.687E-01 -.262E-02 -.437E+00
   -.524E+00 0.298E+00 0.139E+04   0.634E+00 -.729E+00 -.139E+04   -.712E-01 0.269E+00 -.484E+00   -.328E-01 0.109E+00 -.475E+00
   -.364E+01 0.204E+01 0.139E+04   0.307E+01 -.177E+01 -.139E+04   0.596E+00 -.311E+00 -.115E+01   -.275E-01 0.522E-01 -.476E+00
   0.134E+00 -.813E+00 0.139E+04   -.487E+00 0.110E+01 -.139E+04   0.193E+00 -.165E+00 -.279E+00   0.105E+00 -.891E-01 -.430E+00
   -.529E+00 -.471E+00 0.139E+04   0.927E+00 0.623E+00 -.138E+04   -.317E+00 -.138E+00 -.298E+00   -.433E-01 0.790E-02 -.468E+00
   0.569E+00 -.313E+00 0.139E+04   -.440E+00 0.898E-01 -.139E+04   -.558E-01 0.139E+00 -.781E+00   -.790E-01 0.564E-01 -.497E+00
   0.125E-01 -.395E+01 0.139E+04   -.171E+00 0.336E+01 -.139E+04   0.842E-01 0.646E+00 -.113E+01   0.896E-01 -.464E-01 -.456E+00
   0.373E-02 0.808E+00 0.139E+04   -.218E+00 -.671E+00 -.139E+04   0.163E+00 -.698E-01 -.857E+00   0.298E-01 -.603E-01 -.530E+00
   -.124E+00 0.105E+00 0.139E+04   0.388E+00 -.580E-01 -.139E+04   -.169E+00 -.253E-01 -.758E+00   -.754E-01 -.707E-02 -.520E+00
   0.438E+01 0.316E+00 -.116E+04   -.449E+01 -.397E+00 0.116E+04   0.135E+00 0.341E-01 0.829E+00   -.572E-02 0.170E-01 -.575E-01
   -.194E+02 -.133E+02 -.114E+04   0.203E+02 0.140E+02 0.114E+04   -.951E+00 -.685E+00 -.317E+00   0.710E-01 0.608E-01 -.710E-01
   0.148E+02 -.126E+02 -.115E+04   -.161E+02 0.134E+02 0.115E+04   0.128E+01 -.864E+00 -.823E+00   -.485E-01 0.917E-01 -.409E-01
   -.126E+02 0.512E+01 -.116E+04   0.118E+02 -.454E+01 0.116E+04   0.723E+00 -.477E+00 0.966E+00   0.156E+00 -.125E+00 -.116E+00
   -.188E+01 0.189E+02 -.115E+04   0.180E+01 -.206E+02 0.115E+04   0.368E-01 0.164E+01 -.753E+00   0.354E-01 -.672E-01 -.646E-01
   0.145E+02 0.907E+01 -.117E+04   -.137E+02 -.861E+01 0.116E+04   -.679E+00 -.373E+00 0.968E+00   -.150E+00 -.107E+00 -.187E+00
   -.166E+01 0.251E+00 -.116E+04   0.164E+01 -.210E+00 0.116E+04   0.223E-02 -.249E-01 0.838E+00   0.415E-01 -.161E-02 -.272E-01
   0.431E+01 0.398E+01 -.116E+04   -.435E+01 -.400E+01 0.116E+04   0.684E-01 0.661E-01 0.765E+00   -.305E-01 -.800E-02 -.103E+00
   -.265E+01 -.115E+02 -.116E+04   0.273E+01 0.106E+02 0.116E+04   -.637E-01 0.770E+00 0.100E+01   -.299E-01 0.159E+00 -.137E+00
   0.209E+02 0.108E+02 -.368E+04   -.211E+02 -.109E+02 0.368E+04   0.188E+00 0.495E-01 0.219E+01   -.196E-01 0.413E-01 0.379E+00
   0.535E+01 0.457E+02 -.361E+04   -.538E+01 -.467E+02 0.361E+04   -.101E+00 0.663E+00 0.325E+01   0.365E-01 0.129E+00 0.341E+00
   -.253E+02 0.117E+02 -.367E+04   0.255E+02 -.129E+02 0.367E+04   -.961E-01 0.764E+00 0.220E+01   -.147E-01 0.171E+00 0.332E+00
   0.349E+02 -.299E+02 -.364E+04   -.359E+02 0.302E+02 0.364E+04   0.628E+00 -.309E+00 0.271E+01   0.121E+00 -.413E-02 0.333E+00
   0.162E+01 -.876E+01 -.369E+04   -.955E+00 0.927E+01 0.369E+04   -.335E+00 -.366E+00 0.208E+01   -.109E+00 -.851E-01 0.299E+00
   -.181E+01 -.123E+02 -.369E+04   0.112E+01 0.132E+02 0.369E+04   0.501E+00 -.575E+00 0.212E+01   0.728E-01 -.138E+00 0.292E+00
   0.115E+01 0.118E+02 -.369E+04   -.647E+00 -.117E+02 0.369E+04   -.292E+00 0.633E-01 0.205E+01   -.861E-01 -.825E-01 0.279E+00
   0.691E+00 0.103E+02 -.369E+04   -.636E+00 -.102E+02 0.369E+04   -.609E-01 -.307E-01 0.238E+01   0.104E-01 -.237E-01 0.483E+00
   -.296E+02 -.310E+02 -.277E+04   0.297E+02 0.310E+02 0.277E+04   -.496E-01 0.101E+00 0.792E+00   -.149E-02 -.517E-02 0.204E+00
   -.139E+03 -.127E+03 -.237E+04   0.161E+03 0.147E+03 0.238E+04   -.212E+02 -.196E+02 -.126E+02   -.312E-01 -.366E-01 0.795E-01
   0.151E+03 0.912E+02 -.235E+04   -.189E+03 -.908E+02 0.233E+04   0.376E+02 -.339E+00 0.201E+02   0.373E-01 0.162E-01 0.477E-01
   -.331E+02 0.439E+02 -.427E+03   0.370E+02 -.470E+02 0.433E+03   -.390E+01 0.312E+01 -.643E+01   -.261E-02 0.562E-02 0.116E-02
 -----------------------------------------------------------------------------------------------
   -.134E+02 0.164E+02 0.674E+01   0.711E-13 0.284E-13 0.796E-12   0.134E+02 -.163E+02 -.378E+00   0.754E-01 0.242E-01 -.639E+01
 
 
 POSITION                                       TOTAL-FORCE (eV/Angst)
 -----------------------------------------------------------------------------------
      0.00000      0.00000      5.37156        -0.004787     -0.010775      0.008354
      2.56560      0.00000      5.37156         0.005409      0.020312      0.073225
      5.13119      0.00000      5.37156        -0.003057      0.012662      0.071099
      1.28280      2.22187      5.37156         0.018061     -0.002866      0.082900
      3.84839      2.22187      5.37156         0.010094      0.005627      0.034388
      6.41399      2.22187      5.37156        -0.024582     -0.005789      0.074231
      2.56560      4.44374      5.37156         0.014933     -0.014545      0.083223
      5.13119      4.44374      5.37156        -0.027346     -0.021894      0.069763
      7.69679      4.44374      5.37156         0.001021     -0.005106      0.028253
      1.28280      0.74062      7.46636         0.000275     -0.003538     -0.075625
      3.84839      0.74062      7.46636         0.005703     -0.055092     -0.102345
      6.41399      0.74062      7.46636         0.001415      0.005522     -0.039357
      2.56560      2.96249      7.46636        -0.055130      0.027017     -0.085240
      5.13119      2.96249      7.46636         0.037544      0.019760     -0.073013
      7.69679      2.96249      7.46636        -0.005911     -0.029557     -0.015243
      3.84839      5.18437      7.46636         0.015178      0.007616     -0.060701
      6.41399      5.18437      7.46636        -0.021138      0.004830     -0.021482
      8.97958      5.18437      7.46636         0.018663      0.012133     -0.002817
      7.69679      1.48769      9.56171         0.019244     -0.032402     -0.006370
      2.55203      1.47342      9.53141         0.043369      0.026648     -0.152211
      5.14476      1.47342      9.53141        -0.075717      0.032616     -0.083928
      8.97489      3.70583      9.56026         0.037528     -0.026298     -0.015000
      3.84839      3.71878      9.53141        -0.009364     -0.038900     -0.137123
      6.41868      3.70583      9.56026        -0.034970     -0.024504     -0.017731
     10.25680      5.92177      9.56171         0.018668      0.012686     -0.038324
      5.13677      5.92177      9.56171        -0.005447      0.037586      0.005119
      7.69679      5.91957      9.56026        -0.012756      0.025741      0.003373
      0.00000      0.00000     11.63002        -0.039685     -0.017280     -0.018998
      6.40663      6.66047     11.66109        -0.091367     -0.187766      0.079945
      8.98694      6.66047     11.66109         0.129713     -0.232546     -0.153458
      8.97145      2.21807     11.66109        -0.278004      0.033680     -0.136987
      6.42212      2.21807     11.66109         0.222211      0.048385     -0.093815
     10.26160      4.45269     11.66109        -0.114436      0.215514     -0.120371
      5.13197      4.45269     11.66109         0.125856      0.136373     -0.081549
      7.69679      4.44374     11.62915         0.003992     -0.009239      0.011385
      3.84839      2.22187     11.60012         0.068575      0.021488      0.910817
      3.82949      2.17236     13.57388        -0.009670      0.011383      0.013931
      2.76042      1.25027     14.10848         0.006057      0.013167     -0.010976
      3.23946      0.87733     14.88108         0.009855     -0.012651     -0.007346
 -----------------------------------------------------------------------------------
    total drift:                                0.016396      0.090951     -0.025591


--------------------------------------------------------------------------------------------------------



  FREE ENERGIE OF THE ION-ELECTRON SYSTEM (eV)
  ---------------------------------------------------
  free  energy   TOTEN  =      -145.27583184 eV

  energy  without entropy=     -145.27583184  energy(sigma->0) =     -145.27583184
 


--------------------------------------------------------------------------------------------------------


    POTLOK:  cpu time    0.0339: real time    0.0339


--------------------------------------------------------------------------------------------------------


 stress matrix after NEB project (eV)
     -4.33911      0.30539      0.07271
      0.30539     -4.38482     -0.28343
      0.07271     -0.28343      1.01965
  FORCES: max atom, RMS     0.020425    0.005211
  FORCE total and by dimension    0.032540    0.013931
  Stress total and by dimension    6.281081    4.384815
     LOOP+:  cpu time  242.8386: real time  242.8535
 -----------------------------------------------------------------------------
|                                                                             |
|           W    W    AA    RRRRR   N    N  II  N    N   GGGG   !!!           |
|           W    W   A  A   R    R  NN   N  II  NN   N  G    G  !!!           |
|           W    W  A    A  R    R  N N  N  II  N N  N  G       !!!           |
|           W WW W  AAAAAA  RRRRR   N  N N  II  N  N N  G  GGG   !            |
|           WW  WW  A    A  R   R   N   NN  II  N   NN  G    G                |
|           W    W  A    A  R    R  N    N  II  N    N   GGGG   !!!           |
|                                                                             |
|     Tetrahedron method does not include variations of the Fermi             |
|     occupations, so forces and stress will be inaccurate. We suggest        |
|     using a different smearing scheme ISMEAR = 1 or 2 for metals in         |
|     relaxations.                                                            |
|                                                                             |
 -----------------------------------------------------------------------------

    4ORBIT:  cpu time    0.0000: real time    0.0000



 total charge

# of ion       s       p       d       tot
------------------------------------------
    1        0.449   0.284   9.189   9.921
    2        0.448   0.285   9.186   9.919
    3        0.449   0.284   9.187   9.920
    4        0.449   0.285   9.186   9.920
    5        0.448   0.287   9.181   9.915
    6        0.450   0.284   9.186   9.920
    7        0.449   0.286   9.186   9.920
    8        0.450   0.285   9.185   9.920
    9        0.447   0.283   9.189   9.919
   10        0.441   0.372   9.176   9.989
   11        0.443   0.367   9.184   9.993
   12        0.442   0.374   9.174   9.989
   13        0.442   0.367   9.183   9.993
   14        0.443   0.367   9.184   9.993
   15        0.438   0.368   9.180   9.987
   16        0.443   0.372   9.174   9.989
   17        0.438   0.368   9.181   9.987
   18        0.437   0.370   9.179   9.986
   19        0.441   0.371   9.181   9.993
   20        0.449   0.393   9.173  10.015
   21        0.454   0.397   9.165  10.016
   22        0.434   0.369   9.186   9.989
   23        0.456   0.393   9.168  10.017
   24        0.433   0.370   9.184   9.988
   25        0.442   0.370   9.183   9.994
   26        0.440   0.372   9.180   9.992
   27        0.433   0.371   9.184   9.988
   28        0.453   0.288   9.195   9.935
   29        0.443   0.303   9.185   9.931
   30        0.448   0.302   9.189   9.939
   31        0.448   0.299   9.190   9.937
   32        0.448   0.302   9.187   9.938
   33        0.447   0.302   9.187   9.936
   34        0.451   0.302   9.186   9.940
   35        0.444   0.293   9.192   9.930
   36        0.694   0.589   7.049   8.331
   37        1.601   3.231   0.000   4.831
   38        1.594   3.376   0.000   4.970
   39        0.617   0.112   0.000   0.729
--------------------------------------------------
tot         20.075  18.993 328.454 367.522
 
 BZINTS: Fermi energy:   -0.500260;  407.000000 electrons
         Band energy:-0.143081E+04;  BLOECHL correction:   -0.052631

 total amount of memory used by VASP MPI-rank0   231909. kBytes
=======================================================================

   base      :      30000. kBytes
   nonlr-proj:      17429. kBytes
   fftplans  :       3394. kBytes
   grid      :      15015. kBytes
   one-center:        606. kBytes
   wavefun   :     165465. kBytes
 
  
  
 General timing and accounting informations for this job:
 ========================================================
  
                  Total CPU time used (sec):      262.412
                            User time (sec):      253.529
                          System time (sec):        8.883
                         Elapsed time (sec):      262.932
  
                   Maximum memory used (kb):      514156.
                   Average memory used (kb):          N/A
  
                          Minor page faults:       117128
                          Major page faults:            0
                 Voluntary context switches:         6699
