 vasp.6.2.0 18Jan21 (build Jun 12 2021 23:27:24) complex                        
  
 executed on             LinuxIFC date 2022.05.28  02:54:29
 running on   28 total cores
 distrk:  each k-point on   28 cores,    1 groups
 distr:  one band on NCORE=   1 cores,   28 groups


--------------------------------------------------------------------------------------------------------


 INCAR:
   ISMEAR = -5
   SIGMA = 0.1
   ISPIN = 1
   EDIFF = 1.d-5
   EDIFFG = -0.01
   NSW = 0
   NELM = 150
   ENCUT = 500
   ISIF = 2
   IBRION = 2
   LREAL = Auto
   ALGO = Fast
   ICHARG = 11
   LORBIT = 10
   LCHARG = .F.
   LWAVE = .F.

 POTCAR:    PAW_PBE Cu 22Jun2005                  
 POTCAR:    PAW_PBE Pt 04Feb2005                  
 POTCAR:    PAW_PBE H 15Jun2001                   
 POTCAR:    PAW_PBE O 08Apr2002                   
 -----------------------------------------------------------------------------
|                                                                             |
|           W    W    AA    RRRRR   N    N  II  N    N   GGGG   !!!           |
|           W    W   A  A   R    R  NN   N  II  NN   N  G    G  !!!           |
|           W    W  A    A  R    R  N N  N  II  N N  N  G       !!!           |
|           W WW W  AAAAAA  RRRRR   N  N N  II  N  N N  G  GGG   !            |
|           WW  WW  A    A  R   R   N   NN  II  N   NN  G    G                |
|           W    W  A    A  R    R  N    N  II  N    N   GGGG   !!!           |
|                                                                             |
|     For optimal performance we recommend to set                             |
|       NCORE = 2 up to number-of-cores-per-socket                            |
|     NCORE specifies how many cores store one orbital (NPAR=cpu/NCORE).      |
|     This setting can greatly improve the performance of VASP for DFT.       |
|     The default, NCORE=1 might be grossly inefficient on modern             |
|     multi-core architectures or massively parallel machines. Do your        |
|     own testing! More info at https://www.vasp.at/wiki/index.php/NCORE      |
|     Unfortunately you need to use the default for GW and RPA                |
|     calculations (for HF NCORE is supported but not extensively tested      |
|     yet).                                                                   |
|                                                                             |
 -----------------------------------------------------------------------------

 POTCAR:    PAW_PBE Cu 22Jun2005                  
   VRHFIN =Cu: d10 p1                                                                               
   LEXCH  = PE                                                                                      
   EATOM  =  1390.9808 eV,  102.2342 Ry                                                             
                                                                                                    
   TITEL  = PAW_PBE Cu 22Jun2005                                                                    
   LULTRA =        F    use ultrasoft PP ?                                                          
   IUNSCR =        1    unscreen: 0-lin 1-nonlin 2-no                                               
   RPACOR =    2.000    partial core radius                                                         
   POMASS =   63.546; ZVAL   =   11.000    mass and valenz                                          
   RCORE  =    2.300    outmost cutoff radius                                                       
   RWIGS  =    2.200; RWIGS  =    1.164    wigner-seitz radius (au A)                               
   ENMAX  =  295.446; ENMIN  =  221.585 eV                                                          
   ICORE  =        3    local potential                                                             
   LCOR   =        T    correct aug charges                                                         
   LPAW   =        T    paw PP                                                                      
   EAUG   =  586.980                                                                                
   DEXC   =    0.000                                                                                
   RMAX   =    2.344    core radius for proj-oper                                                   
   RAUG   =    1.300    factor for augmentation sphere                                              
   RDEP   =    2.302    radius for radial grids                                                     
   RDEPT  =    1.771    core radius for aug-charge                                                  
                                                                                                    
   Atomic configuration                                                                             
    9 entries                                                                                       
     n  l   j            E        occ.                                                              
     1  0  0.50     -8850.2468   2.0000                                                             
     2  0  0.50     -1062.3498   2.0000                                                             
     2  1  1.50      -916.8226   6.0000                                                             
     3  0  0.50      -114.6929   2.0000                                                             
     3  1  1.50       -72.1325   6.0000                                                             
     3  2  2.50        -5.0394  10.0000                                                             
     4  0  0.50        -4.6097   1.0000                                                             
     4  1  0.50        -4.0817   0.0000                                                             
     4  3  2.50        -1.3606   0.0000                                                             
   Description                                                                                      
     l       E           TYP  RCUT    TYP  RCUT                                                     
     2     -5.0393973     23  2.200                                                                 
     2     10.8846608     23  2.200                                                                 
     0     -4.6097109     23  2.200                                                                 
     0      8.2520465     23  2.200                                                                 
     1     -2.7211652     23  2.200                                                                 
     1     21.7055443     23  2.200                                                                 
     3      2.7211652     23  2.300                                                                 
  local pseudopotential read in
  partial core-charges read in
  partial kinetic energy density read in
  atomic valenz-charges read in
  non local Contribution for L=           2  read in
    real space projection operators read in
  non local Contribution for L=           2  read in
    real space projection operators read in
  non local Contribution for L=           0  read in
    real space projection operators read in
  non local Contribution for L=           0  read in
    real space projection operators read in
  non local Contribution for L=           1  read in
    real space projection operators read in
  non local Contribution for L=           1  read in
    real space projection operators read in
    PAW grid and wavefunctions read in
 
   number of l-projection  operators is LMAX  =           6
   number of lm-projection operators is LMMAX =          18
 
 POTCAR:    PAW_PBE Pt 04Feb2005                  
   VRHFIN =Pt: s1d9                                                                                 
   LEXCH  = PE                                                                                      
   EATOM  =   729.1176 eV,   53.5886 Ry                                                             
                                                                                                    
   TITEL  = PAW_PBE Pt 04Feb2005                                                                    
   LULTRA =        F    use ultrasoft PP ?                                                          
   IUNSCR =        1    unscreen: 0-lin 1-nonlin 2-no                                               
   RPACOR =    2.330    partial core radius                                                         
   POMASS =  195.080; ZVAL   =   10.000    mass and valenz                                          
   RCORE  =    2.600    outmost cutoff radius                                                       
   RWIGS  =    2.750; RWIGS  =    1.455    wigner-seitz radius (au A)                               
   ENMAX  =  230.283; ENMIN  =  172.712 eV                                                          
   ICORE  =        3    local potential                                                             
   LCOR   =        T    correct aug charges                                                         
   LPAW   =        T    paw PP                                                                      
   EAUG   =  358.966                                                                                
   DEXC   =    0.000                                                                                
   RMAX   =    2.658    core radius for proj-oper                                                   
   RAUG   =    1.300    factor for augmentation sphere                                              
   RDEP   =    2.761    radius for radial grids                                                     
   RDEPT  =    2.203    core radius for aug-charge                                                  
                                                                                                    
   Atomic configuration                                                                             
   16 entries                                                                                       
     n  l   j            E        occ.                                                              
     1  0  0.50    -78401.1885   2.0000                                                             
     2  0  0.50    -13770.7750   2.0000                                                             
     2  1  1.50    -11931.0468   6.0000                                                             
     3  0  0.50     -3234.7234   2.0000                                                             
     3  1  1.50     -2699.2216   6.0000                                                             
     3  2  2.50     -2119.5714  10.0000                                                             
     4  0  0.50      -695.1528   2.0000                                                             
     4  1  1.50      -519.6034   6.0000                                                             
     4  2  2.50      -306.6786  10.0000                                                             
     4  3  3.50       -70.1041  14.0000                                                             
     5  0  0.50      -101.7747   2.0000                                                             
     5  1  1.50       -55.9873   6.0000                                                             
     5  2  2.50        -6.1423   9.0000                                                             
     6  0  0.50        -5.6573   1.0000                                                             
     6  1  1.50        -6.8029   0.0000                                                             
     5  3  2.50        -1.3606   0.0000                                                             
   Description                                                                                      
     l       E           TYP  RCUT    TYP  RCUT                                                     
     2     -6.1423404     23  2.500                                                                 
     2     -7.5029230     23  2.500                                                                 
     0     -5.6573207     23  2.500                                                                 
     0      0.7416693     23  2.500                                                                 
     1     -2.7211652     23  2.600                                                                 
     1     20.4087390     23  2.600                                                                 
     3     -1.3605826     23  2.500                                                                 
  local pseudopotential read in
  partial core-charges read in
  partial kinetic energy density read in
  atomic valenz-charges read in
  non local Contribution for L=           2  read in
    real space projection operators read in
  non local Contribution for L=           2  read in
    real space projection operators read in
  non local Contribution for L=           0  read in
    real space projection operators read in
  non local Contribution for L=           0  read in
    real space projection operators read in
  non local Contribution for L=           1  read in
    real space projection operators read in
  non local Contribution for L=           1  read in
    real space projection operators read in
    PAW grid and wavefunctions read in
 
   number of l-projection  operators is LMAX  =           6
   number of lm-projection operators is LMMAX =          18
 
 POTCAR:    PAW_PBE H 15Jun2001                   
   VRHFIN =H: ultrasoft test                                                                        
   LEXCH  = PE                                                                                      
   EATOM  =    12.4884 eV,    0.9179 Ry                                                             
                                                                                                    
   TITEL  = PAW_PBE H 15Jun2001                                                                     
   LULTRA =        F    use ultrasoft PP ?                                                          
   IUNSCR =        0    unscreen: 0-lin 1-nonlin 2-no                                               
   RPACOR =    0.000    partial core radius                                                         
   POMASS =    1.000; ZVAL   =    1.000    mass and valenz                                          
   RCORE  =    1.100    outmost cutoff radius                                                       
   RWIGS  =    0.700; RWIGS  =    0.370    wigner-seitz radius (au A)                               
   ENMAX  =  250.000; ENMIN  =  200.000 eV                                                          
   RCLOC  =    0.701    cutoff for local pot                                                        
   LCOR   =        T    correct aug charges                                                         
   LPAW   =        T    paw PP                                                                      
   EAUG   =  400.000                                                                                
   RMAX   =    1.123    core radius for proj-oper                                                   
   RAUG   =    1.200    factor for augmentation sphere                                              
   RDEP   =    1.112    radius for radial grids                                                     
   RDEPT  =    0.926    core radius for aug-charge                                                  
                                                                                                    
   Atomic configuration                                                                             
    2 entries                                                                                       
     n  l   j            E        occ.                                                              
     1  0  0.50        -6.4927   1.0000                                                             
     2  1  0.50        -3.4015   0.0000                                                             
   Description                                                                                      
     l       E           TYP  RCUT    TYP  RCUT                                                     
     0     -6.4927494     23  1.100                                                                 
     0      6.8029130     23  1.100                                                                 
     1     -4.0817478     23  1.100                                                                 
  local pseudopotential read in
  atomic valenz-charges read in
  non local Contribution for L=           0  read in
    real space projection operators read in
  non local Contribution for L=           0  read in
    real space projection operators read in
  non local Contribution for L=           1  read in
    real space projection operators read in
    PAW grid and wavefunctions read in
 
   number of l-projection  operators is LMAX  =           3
   number of lm-projection operators is LMMAX =           5
 
 POTCAR:    PAW_PBE O 08Apr2002                   
   VRHFIN =O: s2p4                                                                                  
   LEXCH  = PE                                                                                      
   EATOM  =   432.3788 eV,   31.7789 Ry                                                             
                                                                                                    
   TITEL  = PAW_PBE O 08Apr2002                                                                     
   LULTRA =        F    use ultrasoft PP ?                                                          
   IUNSCR =        1    unscreen: 0-lin 1-nonlin 2-no                                               
   RPACOR =    1.200    partial core radius                                                         
   POMASS =   16.000; ZVAL   =    6.000    mass and valenz                                          
   RCORE  =    1.520    outmost cutoff radius                                                       
   RWIGS  =    1.550; RWIGS  =    0.820    wigner-seitz radius (au A)                               
   ENMAX  =  400.000; ENMIN  =  300.000 eV                                                          
   ICORE  =        2    local potential                                                             
   LCOR   =        T    correct aug charges                                                         
   LPAW   =        T    paw PP                                                                      
   EAUG   =  605.392                                                                                
   DEXC   =    0.000                                                                                
   RMAX   =    1.553    core radius for proj-oper                                                   
   RAUG   =    1.300    factor for augmentation sphere                                              
   RDEP   =    1.550    radius for radial grids                                                     
   RDEPT  =    1.329    core radius for aug-charge                                                  
                                                                                                    
   Atomic configuration                                                                             
    4 entries                                                                                       
     n  l   j            E        occ.                                                              
     1  0  0.50      -514.6923   2.0000                                                             
     2  0  0.50       -23.9615   2.0000                                                             
     2  1  0.50        -9.0305   4.0000                                                             
     3  2  1.50        -9.5241   0.0000                                                             
   Description                                                                                      
     l       E           TYP  RCUT    TYP  RCUT                                                     
     0    -23.9615318     23  1.200                                                                 
     0     -9.5240782     23  1.200                                                                 
     1     -9.0304911     23  1.520                                                                 
     1      8.1634956     23  1.520                                                                 
     2     -9.5240782      7  1.500                                                                 
  local pseudopotential read in
  partial core-charges read in
  partial kinetic energy density read in
  kinetic energy density of atom read in
  atomic valenz-charges read in
  non local Contribution for L=           0  read in
    real space projection operators read in
  non local Contribution for L=           0  read in
    real space projection operators read in
  non local Contribution for L=           1  read in
    real space projection operators read in
  non local Contribution for L=           1  read in
    real space projection operators read in
    PAW grid and wavefunctions read in
 
   number of l-projection  operators is LMAX  =           4
   number of lm-projection operators is LMMAX =           8
 
 Optimization of the real space projectors (new method)

 maximal supplied QI-value         = 16.25
 optimisation between [QCUT,QGAM] = [ 11.38, 22.75] = [ 36.24,144.96] Ry 
 Optimized for a Real-space Cutoff    1.52 Angstroem

   l    n(q)    QCUT    max X(q) W(low)/X(q) W(high)/X(q)  e(spline) 
   2      9    11.376     4.610    0.21E-03    0.10E-03    0.26E-06
   2      9    11.376     8.522    0.33E-03    0.16E-03    0.37E-06
   0     10    11.376    51.609    0.62E-04    0.20E-04    0.13E-06
   0     10    11.376    27.747    0.54E-04    0.20E-04    0.13E-06
   1     10    11.376    20.408    0.13E-04    0.99E-04    0.19E-06
   1     10    11.376    13.425    0.12E-04    0.87E-04    0.17E-06
 Optimization of the real space projectors (new method)

 maximal supplied QI-value         = 14.36
 optimisation between [QCUT,QGAM] = [ 11.35, 22.84] = [ 36.05,146.02] Ry 
 Optimized for a Real-space Cutoff    1.47 Angstroem

   l    n(q)    QCUT    max X(q) W(low)/X(q) W(high)/X(q)  e(spline) 
   2      9    11.346    66.195    0.31E-03    0.12E-04    0.29E-06
   2      9    11.346    64.643    0.32E-03    0.12E-04    0.29E-06
   0     10    11.346    95.520    0.90E-04    0.16E-04    0.19E-06
   0     10    11.346    63.403    0.87E-04    0.15E-04    0.19E-06
   1     10    11.346    19.961    0.17E-03    0.21E-03    0.11E-06
   1     10    11.346    13.289    0.14E-03    0.18E-03    0.89E-07
 Optimization of the real space projectors (new method)

 maximal supplied QI-value         = 34.20
 optimisation between [QCUT,QGAM] = [ 11.29, 22.57] = [ 35.68,142.71] Ry 
 Optimized for a Real-space Cutoff    1.16 Angstroem

   l    n(q)    QCUT    max X(q) W(low)/X(q) W(high)/X(q)  e(spline) 
   0      8    11.287    19.460    0.40E-03    0.73E-03    0.16E-06
   0      8    11.287    12.209    0.38E-03    0.70E-03    0.15E-06
   1      7    11.287     4.655    0.22E-03    0.25E-04    0.22E-06
 Optimization of the real space projectors (new method)

 maximal supplied QI-value         = 24.76
 optimisation between [QCUT,QGAM] = [ 11.39, 22.77] = [ 36.31,145.25] Ry 
 Optimized for a Real-space Cutoff    1.00 Angstroem

   l    n(q)    QCUT    max X(q) W(low)/X(q) W(high)/X(q)  e(spline) 
   0      7    11.387    20.381    0.39E-03    0.13E-02    0.15E-06
   0      7    11.387    15.268    0.42E-03    0.14E-02    0.17E-06
   1      6    11.387     5.964    0.41E-03    0.11E-02    0.17E-06
   1      6    11.387     5.382    0.39E-03    0.87E-03    0.15E-06
  PAW_PBE Cu 22Jun2005                  :
 energy of atom  1       EATOM=-1390.9808
 kinetic energy error for atom=    0.0043 (will be added to EATOM!!)
  PAW_PBE Pt 04Feb2005                  :
 energy of atom  2       EATOM= -729.1176
 kinetic energy error for atom=    0.0039 (will be added to EATOM!!)
  PAW_PBE H 15Jun2001                   :
 energy of atom  3       EATOM=  -12.4884
 kinetic energy error for atom=    0.0020 (will be added to EATOM!!)
  PAW_PBE O 08Apr2002                   :
 energy of atom  4       EATOM= -432.3788
 kinetic energy error for atom=    0.0224 (will be added to EATOM!!)
 
 
 POSCAR: Cu-Pt-H2O
  positions in direct lattice
  velocities in cartesian coordinates
 exchange correlation table for  LEXCH =        8
   RHO(1)=    0.500       N(1)  =     2000
   RHO(2)=  100.500       N(2)  =     4000

 VTST: version 3.2, (02/03/18)

 CHAIN: initializing optimizer
 
 OPT: Using VASP Conjugate-Gradient optimizer
 CHAIN: Read ICHAIN            0
 
 POSCAR: Cu-Pt-H2O
  positions in direct lattice
  velocities in cartesian coordinates
 


--------------------------------------------------------------------------------------------------------


 ion  position               nearest neighbor table
   1  0.000  0.000  0.221-   7 2.57   3 2.57   4 2.57   2 2.57   6 2.57   8 2.57  12 2.57  10 2.57
                            16 2.57
   2  0.333  0.000  0.221-   8 2.57   9 2.57   5 2.57   1 2.57   3 2.57  11 2.57   4 2.57  10 2.57
                            17 2.57
   3  0.667  0.000  0.221-   1 2.57   7 2.57   6 2.57   9 2.57   2 2.57  12 2.57   5 2.57  18 2.57
                            11 2.57
   4  0.000  0.333  0.221-   5 2.57   6 2.57   1 2.57   7 2.57   2 2.57  13 2.57   9 2.57  10 2.57
                            15 2.57
   5  0.333  0.333  0.221-   4 2.57   2 2.57   7 2.57  13 2.57   8 2.57   6 2.57   3 2.57  11 2.57
                            14 2.57
   6  0.667  0.333  0.221-   4 2.57   9 2.57  15 2.57   3 2.57   1 2.57   8 2.57  14 2.57   5 2.57
                            12 2.57
   7  0.000  0.667  0.221-   1 2.57   3 2.57  16 2.57  18 2.57   4 2.57   5 2.57   8 2.57   9 2.57
                            13 2.57
   8  0.333  0.667  0.221-   9 2.57   2 2.57  17 2.57   6 2.57   1 2.57   7 2.57   5 2.57  14 2.57
                            16 2.57
   9  0.667  0.667  0.221-   8 2.57   6 2.57   2 2.57  17 2.57   3 2.57   7 2.57   4 2.57  15 2.57
                            18 2.57
  10  0.111  0.111  0.308-  20 2.53  26 2.56  19 2.56  11 2.57  12 2.57  13 2.57   1 2.57   2 2.57
                             4 2.57  15 2.57  16 2.57  17 2.57
  11  0.444  0.111  0.308-  20 2.55  21 2.55  27 2.56  10 2.57  13 2.57   2 2.57  17 2.57  14 2.57
                            12 2.57   5 2.57   3 2.57  18 2.57
  12  0.778  0.111  0.308-  21 2.53  19 2.56  25 2.56  15 2.57  10 2.57  14 2.57  18 2.57   3 2.57
                             1 2.57  16 2.57  11 2.57   6 2.57
  13  0.111  0.444  0.308-  23 2.55  20 2.55  22 2.56  16 2.57  18 2.57  10 2.57  11 2.57  14 2.57
                             5 2.57   4 2.57   7 2.57  15 2.57
  14  0.444  0.444  0.308-  21 2.55  23 2.55  24 2.56  15 2.57  17 2.57  12 2.57  16 2.57  13 2.57
                            11 2.57   6 2.57   8 2.57   5 2.57
  15  0.778  0.444  0.308-  19 2.56  24 2.56  22 2.56  14 2.57  17 2.57  12 2.57   6 2.57  18 2.57
                            10 2.57   9 2.57  13 2.57   4 2.57
  16  0.111  0.778  0.308-  23 2.53  25 2.56  26 2.56  18 2.57  13 2.57   7 2.57  14 2.57  17 2.57
                            12 2.57  10 2.57   8 2.57   1 2.57
  17  0.444  0.778  0.308-  26 2.56  27 2.56  24 2.56  14 2.57  15 2.57   8 2.57   9 2.57  11 2.57
                            16 2.57  18 2.57  10 2.57   2 2.57
  18  0.778  0.778  0.308-  25 2.56  22 2.56  27 2.56  16 2.57  13 2.57   7 2.57  15 2.57  12 2.57
                            17 2.57   9 2.57   3 2.57  11 2.57
  19  0.888  0.223  0.394-  28 2.54  32 2.55  31 2.55  21 2.55  20 2.55  15 2.56  12 2.56  10 2.56
                            22 2.56  24 2.56  25 2.58  26 2.58
  20  0.221  0.221  0.393-  10 2.53  11 2.55  13 2.55  26 2.55  19 2.55  27 2.57  22 2.57  29 2.59
                            31 2.59  36 2.60  23 2.60  21 2.60
  21  0.558  0.221  0.393-  12 2.53  14 2.55  11 2.55  19 2.55  25 2.55  24 2.57  27 2.57  32 2.59
                            30 2.59  36 2.60  20 2.60  23 2.60
  22  0.889  0.556  0.393-  35 2.54  18 2.56  15 2.56  13 2.56  19 2.56  25 2.56  24 2.56  27 2.56
                            31 2.57  33 2.57  23 2.57  20 2.57
  23  0.221  0.558  0.393-  16 2.53  13 2.55  14 2.55  25 2.55  26 2.55  22 2.57  24 2.57  33 2.59
                            34 2.59  36 2.60  20 2.60  21 2.60
  24  0.556  0.556  0.393-  35 2.54  15 2.56  17 2.56  14 2.56  19 2.56  26 2.56  22 2.56  27 2.56
                            32 2.57  34 2.57  21 2.57  23 2.57
  25  0.888  0.888  0.394-  28 2.54  33 2.55  30 2.55  21 2.55  23 2.55  18 2.56  16 2.56  12 2.56
                            22 2.56  27 2.56  19 2.58  26 2.58
  26  0.223  0.888  0.394-  28 2.54  29 2.55  34 2.55  20 2.55  23 2.55  17 2.56  10 2.56  16 2.56
                            27 2.56  24 2.56  25 2.58  19 2.58
  27  0.556  0.889  0.393-  35 2.54  17 2.56  18 2.56  11 2.56  26 2.56  25 2.56  24 2.56  22 2.56
                            29 2.57  30 2.57  20 2.57  21 2.57
  28  0.000  0.000  0.479-  25 2.54  19 2.54  26 2.54  33 2.55  30 2.55  31 2.55  29 2.55  32 2.55
                            34 2.55
  29  0.333  0.997  0.480-  34 2.52  26 2.55  28 2.55  35 2.56  27 2.57  31 2.59  20 2.59  36 2.59
                            30 2.59
  30  0.670  0.997  0.480-  33 2.52  25 2.55  28 2.55  35 2.56  27 2.57  32 2.59  21 2.59  36 2.59
                            29 2.59
  31  0.997  0.333  0.480-  32 2.52  19 2.55  28 2.55  35 2.56  22 2.57  29 2.59  20 2.59  36 2.59
                            33 2.59
  32  0.670  0.333  0.480-  31 2.52  19 2.55  28 2.55  35 2.56  24 2.57  30 2.59  21 2.59  36 2.59
                            34 2.59
  33  0.997  0.670  0.480-  30 2.52  25 2.55  28 2.55  35 2.56  22 2.57  34 2.59  23 2.59  36 2.59
                            31 2.59
  34  0.333  0.670  0.480-  29 2.52  26 2.55  28 2.55  35 2.56  24 2.57  33 2.59  23 2.59  36 2.59
                            32 2.59
  35  0.667  0.667  0.479-  24 2.54  27 2.54  22 2.54  34 2.56  32 2.56  29 2.56  30 2.56  33 2.56
                            31 2.56
  36  0.333  0.333  0.480-  31 2.59  29 2.59  33 2.59  34 2.59  32 2.59  30 2.59  23 2.60  20 2.60
                            21 2.60
  37  0.259  0.280  0.597-  39 0.98
  38  0.456  0.285  0.597-  39 0.98
  39  0.311  0.372  0.596-  37 0.98  38 0.98
 
  LATTYP: Found a hexagonal cell.
 ALAT       =     7.6967864036
 C/A-ratio  =     3.1535378041
  
  Lattice vectors:
  
 A1 = (  -3.8483927580,  -6.6656128093,   0.0000000000)
 A2 = (   7.6967864037,   0.0000000000,   0.0000000000)
 A3 = (   0.0000000000,   0.0000000000,  24.2721068937)


Analysis of symmetry for initial positions (statically):
=====================================================================
 Subroutine PRICEL returns:
 Original cell was already a primitive cell.
 

 Routine SETGRP: Setting up the symmetry group for a 
 hexagonal supercell.


 Subroutine GETGRP returns: Found  1 space group operations
 (whereof  1 operations were pure point group operations)
 out of a pool of 24 trial point group operations.


The static configuration has the point symmetry C_1 .


Analysis of symmetry for dynamics (positions and initial velocities):
=====================================================================
 Subroutine PRICEL returns:
 Original cell was already a primitive cell.
 

 Routine SETGRP: Setting up the symmetry group for a 
 hexagonal supercell.


 Subroutine GETGRP returns: Found  1 space group operations
 (whereof  1 operations were pure point group operations)
 out of a pool of 24 trial point group operations.


The dynamic configuration has the point symmetry C_1 .


Analysis of constrained symmetry for selective dynamics:
=====================================================================
 Subroutine PRICEL returns:
 Original cell was already a primitive cell.
 

 Routine SETGRP: Setting up the symmetry group for a 
 hexagonal supercell.


 Subroutine GETGRP returns: Found  1 space group operations
 (whereof  1 operations were pure point group operations)
 out of a pool of 24 trial point group operations.


The constrained configuration has the point symmetry C_1 .


 Subroutine INISYM returns: Found  1 space group operations
 (whereof  1 operations are pure point group operations),
 and found     1 'primitive' translations


----------------------------------------------------------------------------------------

                                     Primitive cell                                     

  volume of cell :    1245.2513

  direct lattice vectors                    reciprocal lattice vectors
     7.696786404  0.000000000  0.000000000     0.129924354 -0.075011849  0.000000000
     3.848392758  6.665612809  0.000000000     0.000000000  0.150023716  0.000000000
     0.000000000  0.000000000 24.272106894     0.000000000  0.000000000  0.041199555

  length of vectors
     7.696786404  7.696786404 24.272106894     0.150023716  0.150023716  0.041199555

  position of ions in fractional coordinates (direct lattice)
     0.000000000  0.000000000  0.221305866
     0.333333343  0.000000000  0.221305866
     0.666666687  0.000000000  0.221305866
     1.000000000  0.333333343  0.221305866
     0.333333313  0.333333343  0.221305866
     0.666666687  0.333333343  0.221305866
     1.000000000  0.666666687  0.221305866
     0.333333373  0.666666687  0.221305866
     0.666666627  0.666666687  0.221305866
     0.111111119  0.111111112  0.307610705
     0.444444418  0.111111112  0.307610705
     0.777777791  0.111111112  0.307610705
     0.111111119  0.444444448  0.307610705
     0.444444478  0.444444448  0.307610705
     0.777777731  0.444444448  0.307610705
     0.111111112  0.777777731  0.307610705
     0.444444478  0.777777731  0.307610705
     0.777777851  0.777777731  0.307610705
     0.888472040  0.223055935  0.393574021
     0.220847656  0.220847641  0.392629752
     0.558304748  0.220847641  0.392629752
     0.888517119  0.555741411  0.393490498
     0.220847626  0.558304688  0.392629752
     0.555741471  0.555741411  0.393490498
     0.888472040  0.888472040  0.393574021
     0.223055950  0.888472040  0.393574021
     0.555741411  0.888517119  0.393490498
     0.000000000  0.000000000  0.478571981
     0.333061897  0.997189968  0.479757582
     0.669748166  0.997189968  0.479757582
     0.997189968  0.333061897  0.479757582
     0.669748166  0.333061897  0.479757582
     0.997189968  0.669748166  0.479757582
     0.333061927  0.669748166  0.479757582
     0.666666627  0.666666687  0.478532812
     0.333333313  0.333333343  0.479979135
     0.258517674  0.279989064  0.596820671
     0.456333481  0.284557894  0.597027953
     0.310994466  0.372037855  0.596281448

  ion indices of the primitive-cell ions
   primitive index   ion index
                 1           1
                 2           2
                 3           3
                 4           4
                 5           5
                 6           6
                 7           7
                 8           8
                 9           9
                10          10
                11          11
                12          12
                13          13
                14          14
                15          15
                16          16
                17          17
                18          18
                19          19
                20          20
                21          21
                22          22
                23          23
                24          24
                25          25
                26          26
                27          27
                28          28
                29          29
                30          30
                31          31
                32          32
                33          33
                34          34
                35          35
                36          36
                37          37
                38          38
                39          39

----------------------------------------------------------------------------------------

 
 
 KPOINTS: Automatic mesh                          

Automatic generation of k-mesh.
 Grid dimensions read from file:
 generate k-points for:    8    8    1

 Generating k-lattice:

  Cartesian coordinates                     Fractional coordinates (reciprocal lattice)
     0.016240544 -0.009376481  0.000000000     0.125000000 -0.000000000  0.000000000
     0.000000000  0.018752964  0.000000000     0.000000000  0.125000000  0.000000000
     0.000000000  0.000000000  0.041199555     0.000000000  0.000000000  1.000000000

  Length of vectors
     0.018752964  0.018752964  0.041199555

  Shift w.r.t. Gamma in fractional coordinates (k-lattice)
     0.000000000  0.000000000  0.000000000

 TETIRR: Found    192 inequivalent tetrahedra from      384
 
 Subroutine IBZKPT returns following result:
 ===========================================
 
 Found     34 irreducible k-points:
 
 Following reciprocal coordinates:
            Coordinates               Weight
  0.000000  0.000000  0.000000      1.000000
  0.125000 -0.000000  0.000000      2.000000
  0.125000  0.125000  0.000000      2.000000
  0.000000  0.125000  0.000000      2.000000
  0.250000 -0.000000  0.000000      2.000000
  0.250000  0.250000  0.000000      2.000000
  0.000000  0.250000  0.000000      2.000000
  0.375000 -0.000000  0.000000      2.000000
  0.375000  0.375000  0.000000      2.000000
  0.000000  0.375000  0.000000      2.000000
  0.500000 -0.000000  0.000000      1.000000
  0.500000  0.500000  0.000000      1.000000
  0.000000  0.500000  0.000000      1.000000
  0.250000  0.125000  0.000000      2.000000
  0.125000  0.250000  0.000000      2.000000
 -0.125000  0.125000  0.000000      2.000000
  0.375000  0.125000  0.000000      2.000000
  0.250000  0.375000  0.000000      2.000000
 -0.125000  0.250000  0.000000      2.000000
  0.250000 -0.125000  0.000000      2.000000
 -0.125000 -0.375000  0.000000      2.000000
 -0.375000 -0.250000  0.000000      2.000000
  0.500000  0.125000  0.000000      2.000000
  0.375000  0.500000  0.000000      2.000000
 -0.125000  0.375000  0.000000      2.000000
  0.375000 -0.125000  0.000000      2.000000
 -0.125000  0.500000  0.000000      2.000000
  0.500000 -0.375000  0.000000      2.000000
  0.500000  0.250000  0.000000      2.000000
  0.250000  0.500000  0.000000      2.000000
 -0.250000  0.250000  0.000000      2.000000
 -0.375000  0.250000  0.000000      2.000000
  0.375000 -0.375000  0.000000      2.000000
 -0.250000  0.375000  0.000000      2.000000
 
 Following cartesian coordinates:
            Coordinates               Weight
  0.000000  0.000000  0.000000      1.000000
  0.016241 -0.009376  0.000000      2.000000
  0.016241  0.009376  0.000000      2.000000
  0.000000  0.018753  0.000000      2.000000
  0.032481 -0.018753  0.000000      2.000000
  0.032481  0.018753  0.000000      2.000000
  0.000000  0.037506  0.000000      2.000000
  0.048722 -0.028129  0.000000      2.000000
  0.048722  0.028129  0.000000      2.000000
  0.000000  0.056259  0.000000      2.000000
  0.064962 -0.037506  0.000000      1.000000
  0.064962  0.037506  0.000000      1.000000
  0.000000  0.075012  0.000000      1.000000
  0.032481  0.000000  0.000000      2.000000
  0.016241  0.028129  0.000000      2.000000
 -0.016241  0.028129  0.000000      2.000000
  0.048722 -0.009376  0.000000      2.000000
  0.032481  0.037506  0.000000      2.000000
 -0.016241  0.046882  0.000000      2.000000
  0.032481 -0.037506  0.000000      2.000000
 -0.016241 -0.046882  0.000000      2.000000
 -0.048722 -0.009376  0.000000      2.000000
  0.064962 -0.018753  0.000000      2.000000
  0.048722  0.046882  0.000000      2.000000
 -0.016241  0.065635  0.000000      2.000000
  0.048722 -0.046882  0.000000      2.000000
 -0.016241  0.084388  0.000000      2.000000
  0.064962 -0.093765  0.000000      2.000000
  0.064962  0.000000  0.000000      2.000000
  0.032481  0.056259  0.000000      2.000000
 -0.032481  0.056259  0.000000      2.000000
 -0.048722  0.065635  0.000000      2.000000
  0.048722 -0.084388  0.000000      2.000000
 -0.032481  0.075012  0.000000      2.000000
 


--------------------------------------------------------------------------------------------------------




 Dimension of arrays:
   k-points           NKPTS =     34   k-points in BZ     NKDIM =     34   number of bands    NBANDS=    252
   number of dos      NEDOS =    301   number of ions     NIONS =     39
   non local maximal  LDIM  =      6   non local SUM 2l+1 LMDIM =     18
   total plane-waves  NPLWV = 246960
   max r-space proj   IRMAX =   2959   max aug-charges    IRDMAX=  12210
   dimension x,y,z NGX =    42 NGY =   42 NGZ =  140
   dimension x,y,z NGXF=    84 NGYF=   84 NGZF=  280
   support grid    NGXF=    84 NGYF=   84 NGZF=  280
   ions per type =              35   1   2   1
   NGX,Y,Z   is equivalent  to a cutoff of   9.07,  9.07,  9.59 a.u.
   NGXF,Y,Z  is equivalent  to a cutoff of  18.14, 18.14, 19.18 a.u.

 SYSTEM =  unknown system                          
 POSCAR =  Cu-Pt-H2O                               

 Startparameter for this run:
   NWRITE =      2    write-flag & timer
   PREC   = normal    normal or accurate (medium, high low for compatibility)
   ISTART =      0    job   : 0-new  1-cont  2-samecut
   ICHARG =     11    charge: 1-file 2-atom 10-const
   ISPIN  =      1    spin polarized calculation?
   LNONCOLLINEAR =      F non collinear calculations
   LSORBIT =      F    spin-orbit coupling
   INIWAV =      1    electr: 0-lowe 1-rand  2-diag
   LASPH  =      F    aspherical Exc in radial PAW
   METAGGA=      F    non-selfconsistent MetaGGA calc.

 Electronic Relaxation 1
   ENCUT  =  500.0 eV  36.75 Ry    6.06 a.u.  14.03 14.03 44.25*2*pi/ulx,y,z
   ENINI  =  500.0     initial cutoff
   ENAUG  =  605.4 eV  augmentation charge cutoff
   NELM   =    150;   NELMIN=  2; NELMDL= -5     # of ELM steps 
   EDIFF  = 0.1E-04   stopping-criterion for ELM
   LREAL  =      T    real-space projection
   NLSPLINE    = F    spline interpolate recip. space projectors
   LCOMPAT=      F    compatible to vasp.4.4
   GGA_COMPAT  = T    GGA compatible to vasp.4.4-vasp.4.6
   LMAXPAW     = -100 max onsite density
   LMAXMIX     =    2 max onsite mixed and CHGCAR
   VOSKOWN=      0    Vosko Wilk Nusair interpolation
   ROPT   =   -0.00050  -0.00050  -0.00050  -0.00050
 Ionic relaxation
   EDIFFG = -.1E-01   stopping-criterion for IOM
   NSW    =      0    number of steps for IOM
   NBLOCK =      1;   KBLOCK =      1    inner block; outer block 
   IBRION =     -1    ionic relax: 0-MD 1-quasi-New 2-CG
   NFREE  =      1    steps in history (QN), initial steepest desc. (CG)
   ISIF   =      2    stress and relaxation
   IWAVPR =     10    prediction:  0-non 1-charg 2-wave 3-comb
   ISYM   =      2    0-nonsym 1-usesym 2-fastsym
   LCORR  =      T    Harris-Foulkes like correction to forces

   POTIM  = 0.5000    time-step for ionic-motion
   TEIN   =    0.0    initial temperature
   TEBEG  =    0.0;   TEEND  =   0.0 temperature during run
   SMASS  =  -3.00    Nose mass-parameter (am)
   estimated Nose-frequenzy (Omega)   =  0.10E-29 period in steps = 0.13E+47 mass=  -0.135E-26a.u.
   SCALEE = 1.0000    scale energy and forces
   NPACO  =    256;   APACO  = 16.0  distance and # of slots for P.C.
   PSTRESS=    0.0 pullay stress

  Mass of Ions in am
   POMASS =  63.55195.08  1.00 16.00
  Ionic Valenz
   ZVAL   =  11.00 10.00  1.00  6.00
  Atomic Wigner-Seitz radii
   RWIGS  =  -1.00 -1.00 -1.00 -1.00
  virtual crystal weights 
   VCA    =   1.00  1.00  1.00  1.00
   NELECT =     403.0000    total number of electrons
   NUPDOWN=      -1.0000    fix difference up-down

 DOS related values:
   EMIN   =  10.00;   EMAX   =-10.00  energy-range for DOS
   EFERMI =   0.00
   ISMEAR =    -5;   SIGMA  =   0.10  broadening in eV -4-tet -1-fermi 0-gaus

 Electronic relaxation 2 (details)
   IALGO  =     68    algorithm
   LDIAG  =      T    sub-space diagonalisation (order eigenvalues)
   LSUBROT=      F    optimize rotation matrix (better conditioning)
   TURBO    =      0    0=normal 1=particle mesh
   IRESTART =      0    0=no restart 2=restart with 2 vectors
   NREBOOT  =      0    no. of reboots
   NMIN     =      0    reboot dimension
   EREF     =   0.00    reference energy to select bands
   IMIX   =      4    mixing-type and parameters
     AMIX     =   0.40;   BMIX     =  1.00
     AMIX_MAG =   1.60;   BMIX_MAG =  1.00
     AMIN     =   0.10
     WC   =   100.;   INIMIX=   1;  MIXPRE=   1;  MAXMIX= -45

 Intra band minimization:
   WEIMIN = 0.0000     energy-eigenvalue tresh-hold
   EBREAK =  0.99E-08  absolut break condition
   DEPER  =   0.30     relativ break condition  

   TIME   =   0.40     timestep for ELM

  volume/ion in A,a.u.               =      31.93       215.47
  Fermi-wavevector in a.u.,A,eV,Ry     =   1.123977  2.124009 17.188578  1.263325
  Thomas-Fermi vector in A             =   2.260646
 
 Write flags
   LWAVE        =      F    write WAVECAR
   LDOWNSAMPLE  =      F    k-point downsampling of WAVECAR
   LCHARG       =      F    write CHGCAR
   LVTOT        =      F    write LOCPOT, total local potential
   LVHAR        =      F    write LOCPOT, Hartree potential only
   LELF         =      F    write electronic localiz. function (ELF)
   LORBIT       =     10    0 simple, 1 ext, 2 COOP (PROOUT), +10 PAW based schemes


 Dipole corrections
   LMONO  =      F    monopole corrections only (constant potential shift)
   LDIPOL =      F    correct potential (dipole corrections)
   IDIPOL =      0    1-x, 2-y, 3-z, 4-all directions 
   EPSILON=  1.0000000 bulk dielectric constant

 Exchange correlation treatment:
   GGA     =    --    GGA type
   LEXCH   =     8    internal setting for exchange type
   VOSKOWN=      0    Vosko Wilk Nusair interpolation
   LHFCALC =     F    Hartree Fock is set to
   LHFONE  =     F    Hartree Fock one center treatment
   AEXX    =    0.0000 exact exchange contribution

 Linear response parameters
   LEPSILON=     F    determine dielectric tensor
   LRPA    =     F    only Hartree local field effects (RPA)
   LNABLA  =     F    use nabla operator in PAW spheres
   LVEL    =     F    velocity operator in full k-point grid
   LINTERFAST=   F  fast interpolation
   KINTER  =     0    interpolate to denser k-point grid
   CSHIFT  =0.1000    complex shift for real part using Kramers Kronig
   OMEGAMAX=  -1.0    maximum frequency
   DEG_THRESHOLD= 0.2000000E-02 threshold for treating states as degnerate
   RTIME   =   -0.100 relaxation time in fs
  (WPLASMAI=    0.000 imaginary part of plasma frequency in eV, 0.658/RTIME)
   DFIELD  = 0.0000000 0.0000000 0.0000000 field for delta impulse in time
 
 Orbital magnetization related:
   ORBITALMAG=     F  switch on orbital magnetization
   LCHIMAG   =     F  perturbation theory with respect to B field
   DQ        =  0.001000  dq finite difference perturbation B field
   LLRAUG    =     F  two centre corrections for induced B field



--------------------------------------------------------------------------------------------------------


 Static calculation
 charge density and potential remain constant during run
 non-spin polarized calculation
 RMM-DIIS sequential band-by-band and
  variant of blocked Davidson during initial phase
 perform sub-space diagonalisation
    before iterative eigenvector-optimisation
 no mixing
 using additional bands           50
 real space projection scheme for non local part
 use partial core corrections
 calculate Harris-corrections to forces 
   (improved forces if not selfconsistent)
 use gradient corrections 
 WARNING: stress and forces are not correct
  (second derivative of E(xc) not defined)
 use of overlap-Matrix (Vanderbilt PP)
 Fermi weights with tetrahedron method with Bloechl corrections


--------------------------------------------------------------------------------------------------------


  energy-cutoff  :      500.00
  volume of cell :     1245.25
      direct lattice vectors                 reciprocal lattice vectors
     7.696786404  0.000000000  0.000000000     0.129924354 -0.075011849  0.000000000
     3.848392758  6.665612809  0.000000000     0.000000000  0.150023716  0.000000000
     0.000000000  0.000000000 24.272106894     0.000000000  0.000000000  0.041199555

  length of vectors
     7.696786404  7.696786404 24.272106894     0.150023716  0.150023716  0.041199555


 
 k-points in units of 2pi/SCALE and weight: Automatic mesh                          
   0.00000000  0.00000000  0.00000000       0.016
   0.01624054 -0.00937648  0.00000000       0.031
   0.01624054  0.00937648  0.00000000       0.031
   0.00000000  0.01875296  0.00000000       0.031
   0.03248109 -0.01875296  0.00000000       0.031
   0.03248109  0.01875297  0.00000000       0.031
   0.00000000  0.03750593  0.00000000       0.031
   0.04872163 -0.02812944  0.00000000       0.031
   0.04872163  0.02812945  0.00000000       0.031
   0.00000000  0.05625889  0.00000000       0.031
   0.06496218 -0.03750592  0.00000000       0.016
   0.06496218  0.03750593  0.00000000       0.016
   0.00000000  0.07501186  0.00000000       0.016
   0.03248109  0.00000000  0.00000000       0.031
   0.01624054  0.02812945  0.00000000       0.031
  -0.01624054  0.02812945  0.00000000       0.031
   0.04872163 -0.00937648  0.00000000       0.031
   0.03248109  0.03750593  0.00000000       0.031
  -0.01624054  0.04688241  0.00000000       0.031
   0.03248109 -0.03750593  0.00000000       0.031
  -0.01624054 -0.04688241  0.00000000       0.031
  -0.04872163 -0.00937649  0.00000000       0.031
   0.06496218 -0.01875296  0.00000000       0.031
   0.04872163  0.04688241  0.00000000       0.031
  -0.01624054  0.06563537  0.00000000       0.031
   0.04872163 -0.04688241  0.00000000       0.031
  -0.01624054  0.08438834  0.00000000       0.031
   0.06496218 -0.09376482  0.00000000       0.031
   0.06496218  0.00000000  0.00000000       0.031
   0.03248109  0.05625890  0.00000000       0.031
  -0.03248109  0.05625889  0.00000000       0.031
  -0.04872163  0.06563537  0.00000000       0.031
   0.04872163 -0.08438834  0.00000000       0.031
  -0.03248109  0.07501186  0.00000000       0.031
 
 k-points in reciprocal lattice and weights: Automatic mesh                          
   0.00000000  0.00000000  0.00000000       0.016
   0.12500000 -0.00000000  0.00000000       0.031
   0.12500000  0.12500000  0.00000000       0.031
   0.00000000  0.12500000  0.00000000       0.031
   0.25000000 -0.00000000  0.00000000       0.031
   0.25000000  0.25000000  0.00000000       0.031
   0.00000000  0.25000000  0.00000000       0.031
   0.37500000 -0.00000000  0.00000000       0.031
   0.37500000  0.37500000  0.00000000       0.031
   0.00000000  0.37500000  0.00000000       0.031
   0.50000000 -0.00000000  0.00000000       0.016
   0.50000000  0.50000000  0.00000000       0.016
   0.00000000  0.50000000  0.00000000       0.016
   0.25000000  0.12500000  0.00000000       0.031
   0.12500000  0.25000000  0.00000000       0.031
  -0.12500000  0.12500000  0.00000000       0.031
   0.37500000  0.12500000  0.00000000       0.031
   0.25000000  0.37500000  0.00000000       0.031
  -0.12500000  0.25000000  0.00000000       0.031
   0.25000000 -0.12500000  0.00000000       0.031
  -0.12500000 -0.37500000  0.00000000       0.031
  -0.37500000 -0.25000000  0.00000000       0.031
   0.50000000  0.12500000  0.00000000       0.031
   0.37500000  0.50000000  0.00000000       0.031
  -0.12500000  0.37500000  0.00000000       0.031
   0.37500000 -0.12500000  0.00000000       0.031
  -0.12500000  0.50000000  0.00000000       0.031
   0.50000000 -0.37500000  0.00000000       0.031
   0.50000000  0.25000000  0.00000000       0.031
   0.25000000  0.50000000  0.00000000       0.031
  -0.25000000  0.25000000  0.00000000       0.031
  -0.37500000  0.25000000  0.00000000       0.031
   0.37500000 -0.37500000  0.00000000       0.031
  -0.25000000  0.37500000  0.00000000       0.031
 
 position of ions in fractional coordinates (direct lattice) 
   0.00000000  0.00000000  0.22130587
   0.33333334  0.00000000  0.22130587
   0.66666669  0.00000000  0.22130587
   0.00000000  0.33333334  0.22130587
   0.33333331  0.33333334  0.22130587
   0.66666669  0.33333334  0.22130587
   0.00000000  0.66666669  0.22130587
   0.33333337  0.66666669  0.22130587
   0.66666663  0.66666669  0.22130587
   0.11111112  0.11111111  0.30761070
   0.44444442  0.11111111  0.30761070
   0.77777779  0.11111111  0.30761070
   0.11111112  0.44444445  0.30761070
   0.44444448  0.44444445  0.30761070
   0.77777773  0.44444445  0.30761070
   0.11111111  0.77777773  0.30761070
   0.44444448  0.77777773  0.30761070
   0.77777785  0.77777773  0.30761070
   0.88847204  0.22305594  0.39357402
   0.22084766  0.22084764  0.39262975
   0.55830475  0.22084764  0.39262975
   0.88851712  0.55574141  0.39349050
   0.22084763  0.55830469  0.39262975
   0.55574147  0.55574141  0.39349050
   0.88847204  0.88847204  0.39357402
   0.22305595  0.88847204  0.39357402
   0.55574141  0.88851712  0.39349050
   0.00000000  0.00000000  0.47857198
   0.33306190  0.99718997  0.47975758
   0.66974817  0.99718997  0.47975758
   0.99718997  0.33306190  0.47975758
   0.66974817  0.33306190  0.47975758
   0.99718997  0.66974817  0.47975758
   0.33306193  0.66974817  0.47975758
   0.66666663  0.66666669  0.47853281
   0.33333331  0.33333334  0.47997914
   0.25851767  0.27998906  0.59682067
   0.45633348  0.28455789  0.59702795
   0.31099447  0.37203785  0.59628145
 
 position of ions in cartesian coordinates  (Angst):
   0.00000000  0.00000000  5.37155964
   2.56559554  0.00000000  5.37155964
   5.13119109  0.00000000  5.37155964
   1.28279762  2.22187100  5.37155964
   3.84839293  2.22187100  5.37155964
   6.41398872  2.22187100  5.37155964
   2.56559525  4.44374201  5.37155964
   5.13119102  4.44374201  5.37155964
   7.69678588  4.44374201  5.37155964
   1.28279775  0.74062365  7.46635991
   3.84839295  0.74062365  7.46635991
   6.41398873  0.74062365  7.46635991
   2.56559535  2.96249461  7.46635991
   5.13119101  2.96249461  7.46635991
   7.69678586  2.96249461  7.46635991
   3.84839268  5.18436521  7.46635991
   6.41398840  5.18436521  7.46635991
   8.97958418  5.18436521  7.46635991
   7.69678637  1.48680450  9.55287071
   2.54972570  1.47208486  9.52995130
   5.14706086  1.47208486  9.52995130
   8.97743770  3.70435706  9.55084343
   3.84839272  3.72144288  9.52995130
   6.41613461  3.70435706  9.55084343
  10.25756889  5.92221061  9.55287071
   5.13600337  5.92221061  9.55287071
   7.69678578  5.92251109  9.55084343
   0.00000000  0.00000000 11.61595027
   6.40108493  6.64688222 11.64472731
   8.99248722  6.64688222 11.64472731
   8.95691118  2.22006164 11.64472731
   6.43666157  2.22006164 11.64472731
  10.25261218  4.46428195 11.64472731
   5.14096050  4.46428195 11.64472731
   7.69678588  4.44374201 11.61499956
   3.84839293  2.22187100 11.65010488
   3.06726320  1.86629869 14.48609512
   4.60739187  1.89675275 14.49112630
   3.82540576  2.47986029 14.47300704
 


--------------------------------------------------------------------------------------------------------


 k-point   1 :   0.0000 0.0000 0.0000  plane waves:   31487
 k-point   2 :   0.1250-0.0000 0.0000  plane waves:   31553
 k-point   3 :   0.1250 0.1250 0.0000  plane waves:   31553
 k-point   4 :   0.0000 0.1250 0.0000  plane waves:   31553
 k-point   5 :   0.2500-0.0000 0.0000  plane waves:   31574
 k-point   6 :   0.2500 0.2500 0.0000  plane waves:   31574
 k-point   7 :   0.0000 0.2500 0.0000  plane waves:   31574
 k-point   8 :   0.3750-0.0000 0.0000  plane waves:   31600
 k-point   9 :   0.3750 0.3750 0.0000  plane waves:   31600
 k-point  10 :   0.0000 0.3750 0.0000  plane waves:   31600
 k-point  11 :   0.5000-0.0000 0.0000  plane waves:   31646
 k-point  12 :   0.5000 0.5000 0.0000  plane waves:   31646
 k-point  13 :   0.0000 0.5000 0.0000  plane waves:   31646
 k-point  14 :   0.2500 0.1250 0.0000  plane waves:   31618
 k-point  15 :   0.1250 0.2500 0.0000  plane waves:   31618
 k-point  16 :  -0.1250 0.1250 0.0000  plane waves:   31618
 k-point  17 :   0.3750 0.1250 0.0000  plane waves:   31612
 k-point  18 :   0.2500 0.3750 0.0000  plane waves:   31612
 k-point  19 :  -0.1250 0.2500 0.0000  plane waves:   31612
 k-point  20 :   0.2500-0.1250 0.0000  plane waves:   31612
 k-point  21 :  -0.1250-0.3750 0.0000  plane waves:   31612
 k-point  22 :  -0.3750-0.2500 0.0000  plane waves:   31612
 k-point  23 :   0.5000 0.1250 0.0000  plane waves:   31639
 k-point  24 :   0.3750 0.5000 0.0000  plane waves:   31639
 k-point  25 :  -0.1250 0.3750 0.0000  plane waves:   31639
 k-point  26 :   0.3750-0.1250 0.0000  plane waves:   31639
 k-point  27 :  -0.1250 0.5000 0.0000  plane waves:   31639
 k-point  28 :   0.5000-0.3750 0.0000  plane waves:   31639
 k-point  29 :   0.5000 0.2500 0.0000  plane waves:   31648
 k-point  30 :   0.2500 0.5000 0.0000  plane waves:   31648
 k-point  31 :  -0.2500 0.2500 0.0000  plane waves:   31648
 k-point  32 :  -0.3750 0.2500 0.0000  plane waves:   31656
 k-point  33 :   0.3750-0.3750 0.0000  plane waves:   31656
 k-point  34 :  -0.2500 0.3750 0.0000  plane waves:   31656

 maximum and minimum number of plane-waves per node :     31656    31487

 maximum number of plane-waves:     31656
 maximum index in each direction: 
   IXMAX=   14   IYMAX=   14   IZMAX=   44
   IXMIN=  -14   IYMIN=  -14   IZMIN=  -44


 serial   3D FFT for wavefunctions
 parallel 3D FFT for charge:
    minimum data exchange during FFTs selected (reduces bandwidth)


 total amount of memory used by VASP MPI-rank0   225581. kBytes
=======================================================================

   base      :      30000. kBytes
   nonlr-proj:      18230. kBytes
   fftplans  :       3394. kBytes
   grid      :      15015. kBytes
   one-center:        606. kBytes
   wavefun   :     158336. kBytes
 
     INWAV:  cpu time    0.0000: real time    0.0001
 initial charge density was supplied:
 number of electron     402.9999485 magnetization 
 keeping initial charge density in first step


--------------------------------------------------------------------------------------------------------


 Maximum index for non-local projection operator         2838
 Maximum index for augmentation-charges          578 (set IRDMAX)


--------------------------------------------------------------------------------------------------------


 First call to EWALD:  gamma=   0.165
 Maximum number of real-space cells 4x 4x 1
 Maximum number of reciprocal cells 2x 2x 6

    FEWALD:  cpu time    0.0013: real time    0.0013


--------------------------------------- Iteration      1(   1)  ---------------------------------------


    POTLOK:  cpu time    0.0320: real time    0.0323
    SETDIJ:  cpu time    0.0044: real time    0.0046
     EDDAV:  cpu time   22.0357: real time   22.0376
 BZINTS: Fermi energy:   13.149943;  403.000000 electrons
         Band energy: 0.244212E+04;  BLOECHL correction:   -0.037658
       DOS:  cpu time    0.0586: real time    0.0587
    --------------------------------------------
      LOOP:  cpu time   22.1307: real time   22.1331

 eigenvalue-minimisations  : 17136
 total energy-change (2. order) : 0.3592166E+04  (-0.1718406E+05)
 number of electron     402.9999485 magnetization 
 augmentation part      402.9999485 magnetization 

 Free energy of the ion-electron system (eV)
  ---------------------------------------------------
  alpha Z        PSCENC =       792.90594632
  Ewald energy   TEWEN  =    206941.71361248
  -Hartree energ DENC   =   -254306.06218607
  -exchange      EXHF   =         0.00000000
  -V(xc)+E(xc)   XCENC  =      1595.51919283
  PAW double counting   =     47046.36945238   -50791.02081050
  entropy T*S    EENTRO =         0.00000000
  eigenvalues    EBANDS =      2442.11855560
  atomic energy  EATOM  =     49870.62204487
  Solvation  Ediel_sol  =         0.00000000
  ---------------------------------------------------
  free energy    TOTEN  =      3592.16580792 eV

  energy without entropy =     3592.16580792  energy(sigma->0) =     3592.16580792


--------------------------------------------------------------------------------------------------------




--------------------------------------- Iteration      1(   2)  ---------------------------------------


     EDDAV:  cpu time   22.0298: real time   22.0302
 BZINTS: Fermi energy:    2.952714;  403.000000 electrons
         Band energy:-0.808099E+03;  BLOECHL correction:   -0.014606
       DOS:  cpu time    0.0604: real time    0.0604
    --------------------------------------------
      LOOP:  cpu time   22.0902: real time   22.0907

 eigenvalue-minimisations  : 17136
 total energy-change (2. order) :-0.3250218E+04  (-0.3125296E+04)
 number of electron     402.9999485 magnetization 
 augmentation part      402.9999485 magnetization 

 Free energy of the ion-electron system (eV)
  ---------------------------------------------------
  alpha Z        PSCENC =       792.90594632
  Ewald energy   TEWEN  =    206941.71361248
  -Hartree energ DENC   =   -254306.06218607
  -exchange      EXHF   =         0.00000000
  -V(xc)+E(xc)   XCENC  =      1595.51919283
  PAW double counting   =     47046.36945238   -50791.02081050
  entropy T*S    EENTRO =         0.00000000
  eigenvalues    EBANDS =      -808.09900736
  atomic energy  EATOM  =     49870.62204487
  Solvation  Ediel_sol  =         0.00000000
  ---------------------------------------------------
  free energy    TOTEN  =       341.94824496 eV

  energy without entropy =      341.94824496  energy(sigma->0) =      341.94824496


--------------------------------------------------------------------------------------------------------




--------------------------------------- Iteration      1(   3)  ---------------------------------------


     EDDAV:  cpu time   26.1901: real time   26.1905
 BZINTS: Fermi energy:   -0.076144;  403.000000 electrons
         Band energy:-0.125757E+04;  BLOECHL correction:   -0.065530
       DOS:  cpu time    0.0578: real time    0.0578
    --------------------------------------------
      LOOP:  cpu time   26.2478: real time   26.2483

 eigenvalue-minimisations  : 21140
 total energy-change (2. order) :-0.4494665E+03  (-0.4230232E+03)
 number of electron     402.9999485 magnetization 
 augmentation part      402.9999485 magnetization 

 Free energy of the ion-electron system (eV)
  ---------------------------------------------------
  alpha Z        PSCENC =       792.90594632
  Ewald energy   TEWEN  =    206941.71361248
  -Hartree energ DENC   =   -254306.06218607
  -exchange      EXHF   =         0.00000000
  -V(xc)+E(xc)   XCENC  =      1595.51919283
  PAW double counting   =     47046.36945238   -50791.02081050
  entropy T*S    EENTRO =         0.00000000
  eigenvalues    EBANDS =     -1257.56549562
  atomic energy  EATOM  =     49870.62204487
  Solvation  Ediel_sol  =         0.00000000
  ---------------------------------------------------
  free energy    TOTEN  =      -107.51824330 eV

  energy without entropy =     -107.51824330  energy(sigma->0) =     -107.51824330


--------------------------------------------------------------------------------------------------------




--------------------------------------- Iteration      1(   4)  ---------------------------------------


     EDDAV:  cpu time   31.4059: real time   31.4065
 BZINTS: Fermi energy:   -0.290049;  403.000000 electrons
         Band energy:-0.129271E+04;  BLOECHL correction:   -0.074219
       DOS:  cpu time    0.0618: real time    0.0618
    --------------------------------------------
      LOOP:  cpu time   31.4677: real time   31.4683

 eigenvalue-minimisations  : 26264
 total energy-change (2. order) :-0.3514051E+02  (-0.3445499E+02)
 number of electron     402.9999485 magnetization 
 augmentation part      402.9999485 magnetization 

 Free energy of the ion-electron system (eV)
  ---------------------------------------------------
  alpha Z        PSCENC =       792.90594632
  Ewald energy   TEWEN  =    206941.71361248
  -Hartree energ DENC   =   -254306.06218607
  -exchange      EXHF   =         0.00000000
  -V(xc)+E(xc)   XCENC  =      1595.51919283
  PAW double counting   =     47046.36945238   -50791.02081050
  entropy T*S    EENTRO =         0.00000000
  eigenvalues    EBANDS =     -1292.70600411
  atomic energy  EATOM  =     49870.62204487
  Solvation  Ediel_sol  =         0.00000000
  ---------------------------------------------------
  free energy    TOTEN  =      -142.65875180 eV

  energy without entropy =     -142.65875180  energy(sigma->0) =     -142.65875180


--------------------------------------------------------------------------------------------------------




--------------------------------------- Iteration      1(   5)  ---------------------------------------


     EDDAV:  cpu time   25.7898: real time   25.7933
 BZINTS: Fermi energy:   -0.292193;  403.000000 electrons
         Band energy:-0.129323E+04;  BLOECHL correction:   -0.075852
       DOS:  cpu time    0.0570: real time    0.0570
    --------------------------------------------
      LOOP:  cpu time   25.8469: real time   25.8503

 eigenvalue-minimisations  : 20776
 total energy-change (2. order) :-0.5259068E+00  (-0.5238503E+00)
 number of electron     402.9999485 magnetization 
 augmentation part      402.9999485 magnetization 

 Free energy of the ion-electron system (eV)
  ---------------------------------------------------
  alpha Z        PSCENC =       792.90594632
  Ewald energy   TEWEN  =    206941.71361248
  -Hartree energ DENC   =   -254306.06218607
  -exchange      EXHF   =         0.00000000
  -V(xc)+E(xc)   XCENC  =      1595.51919283
  PAW double counting   =     47046.36945238   -50791.02081050
  entropy T*S    EENTRO =         0.00000000
  eigenvalues    EBANDS =     -1293.23191095
  atomic energy  EATOM  =     49870.62204487
  Solvation  Ediel_sol  =         0.00000000
  ---------------------------------------------------
  free energy    TOTEN  =      -143.18465863 eV

  energy without entropy =     -143.18465863  energy(sigma->0) =     -143.18465863


--------------------------------------------------------------------------------------------------------




--------------------------------------- Iteration      1(   6)  ---------------------------------------


    EDDIAG:  cpu time    4.1347: real time    4.1352
  RMM-DIIS:  cpu time   12.4401: real time   12.4403
    ORTHCH:  cpu time    0.7753: real time    0.7753
 BZINTS: Fermi energy:   -0.292207;  403.000000 electrons
         Band energy:-0.129324E+04;  BLOECHL correction:   -0.075862
       DOS:  cpu time    0.0611: real time    0.0611
    --------------------------------------------
      LOOP:  cpu time   17.4112: real time   17.4119

 eigenvalue-minimisations  : 18647
 total energy-change (2. order) :-0.8256145E-02  (-0.8246102E-02)
 number of electron     402.9999485 magnetization 
 augmentation part      402.9999485 magnetization 

 Free energy of the ion-electron system (eV)
  ---------------------------------------------------
  alpha Z        PSCENC =       792.90594632
  Ewald energy   TEWEN  =    206941.71361248
  -Hartree energ DENC   =   -254306.06218607
  -exchange      EXHF   =         0.00000000
  -V(xc)+E(xc)   XCENC  =      1595.51919283
  PAW double counting   =     47046.36945238   -50791.02081050
  entropy T*S    EENTRO =         0.00000000
  eigenvalues    EBANDS =     -1293.24016710
  atomic energy  EATOM  =     49870.62204487
  Solvation  Ediel_sol  =         0.00000000
  ---------------------------------------------------
  free energy    TOTEN  =      -143.19291478 eV

  energy without entropy =     -143.19291478  energy(sigma->0) =     -143.19291478


--------------------------------------------------------------------------------------------------------




--------------------------------------- Iteration      1(   7)  ---------------------------------------


    EDDIAG:  cpu time    4.1366: real time    4.1367
  RMM-DIIS:  cpu time   17.5933: real time   17.5934
    ORTHCH:  cpu time    0.7756: real time    0.7756
 BZINTS: Fermi energy:   -0.292213;  403.000000 electrons
         Band energy:-0.129324E+04;  BLOECHL correction:   -0.075867
       DOS:  cpu time    0.0584: real time    0.0584
    --------------------------------------------
      LOOP:  cpu time   22.5638: real time   22.5641

 eigenvalue-minimisations  : 26442
 total energy-change (2. order) :-0.4058261E-02  (-0.3976714E-02)
 number of electron     402.9999485 magnetization 
 augmentation part      402.9999485 magnetization 

 Free energy of the ion-electron system (eV)
  ---------------------------------------------------
  alpha Z        PSCENC =       792.90594632
  Ewald energy   TEWEN  =    206941.71361248
  -Hartree energ DENC   =   -254306.06218607
  -exchange      EXHF   =         0.00000000
  -V(xc)+E(xc)   XCENC  =      1595.51919283
  PAW double counting   =     47046.36945238   -50791.02081050
  entropy T*S    EENTRO =         0.00000000
  eigenvalues    EBANDS =     -1293.24422536
  atomic energy  EATOM  =     49870.62204487
  Solvation  Ediel_sol  =         0.00000000
  ---------------------------------------------------
  free energy    TOTEN  =      -143.19697304 eV

  energy without entropy =     -143.19697304  energy(sigma->0) =     -143.19697304


--------------------------------------------------------------------------------------------------------




--------------------------------------- Iteration      1(   8)  ---------------------------------------


    EDDIAG:  cpu time    4.1357: real time    4.1359
  RMM-DIIS:  cpu time   16.2023: real time   16.2025
    ORTHCH:  cpu time    0.7753: real time    0.7753
 BZINTS: Fermi energy:   -0.292214;  403.000000 electrons
         Band energy:-0.129324E+04;  BLOECHL correction:   -0.075867
       DOS:  cpu time    0.0597: real time    0.0597
    --------------------------------------------
      LOOP:  cpu time   21.1729: real time   21.1734

 eigenvalue-minimisations  : 24610
 total energy-change (2. order) :-0.3091554E-03  (-0.3028865E-03)
 number of electron     402.9999485 magnetization 
 augmentation part      402.9999485 magnetization 

 Free energy of the ion-electron system (eV)
  ---------------------------------------------------
  alpha Z        PSCENC =       792.90594632
  Ewald energy   TEWEN  =    206941.71361248
  -Hartree energ DENC   =   -254306.06218607
  -exchange      EXHF   =         0.00000000
  -V(xc)+E(xc)   XCENC  =      1595.51919283
  PAW double counting   =     47046.36945238   -50791.02081050
  entropy T*S    EENTRO =         0.00000000
  eigenvalues    EBANDS =     -1293.24453451
  atomic energy  EATOM  =     49870.62204487
  Solvation  Ediel_sol  =         0.00000000
  ---------------------------------------------------
  free energy    TOTEN  =      -143.19728220 eV

  energy without entropy =     -143.19728220  energy(sigma->0) =     -143.19728220


--------------------------------------------------------------------------------------------------------




--------------------------------------- Iteration      1(   9)  ---------------------------------------


    EDDIAG:  cpu time    4.1358: real time    4.1359
  RMM-DIIS:  cpu time   17.2553: real time   17.2555
    ORTHCH:  cpu time    0.7764: real time    0.7764
 BZINTS: Fermi energy:   -0.292214;  403.000000 electrons
         Band energy:-0.129324E+04;  BLOECHL correction:   -0.075867
       DOS:  cpu time    0.0584: real time    0.0584
    --------------------------------------------
      LOOP:  cpu time   22.2258: real time   22.2261

 eigenvalue-minimisations  : 25679
 total energy-change (2. order) :-0.6094784E-04  (-0.5907207E-04)
 number of electron     402.9999485 magnetization 
 augmentation part      402.9999485 magnetization 

 Free energy of the ion-electron system (eV)
  ---------------------------------------------------
  alpha Z        PSCENC =       792.90594632
  Ewald energy   TEWEN  =    206941.71361248
  -Hartree energ DENC   =   -254306.06218607
  -exchange      EXHF   =         0.00000000
  -V(xc)+E(xc)   XCENC  =      1595.51919283
  PAW double counting   =     47046.36945238   -50791.02081050
  entropy T*S    EENTRO =         0.00000000
  eigenvalues    EBANDS =     -1293.24459546
  atomic energy  EATOM  =     49870.62204487
  Solvation  Ediel_sol  =         0.00000000
  ---------------------------------------------------
  free energy    TOTEN  =      -143.19734314 eV

  energy without entropy =     -143.19734314  energy(sigma->0) =     -143.19734314


--------------------------------------------------------------------------------------------------------




--------------------------------------- Iteration      1(  10)  ---------------------------------------


    EDDIAG:  cpu time    4.1338: real time    4.1340
  RMM-DIIS:  cpu time   10.7339: real time   10.7341
    ORTHCH:  cpu time    0.7761: real time    0.7762
 BZINTS: Fermi energy:   -0.292214;  403.000000 electrons
         Band energy:-0.129324E+04;  BLOECHL correction:   -0.075867
       DOS:  cpu time    0.0609: real time    0.0609
    --------------------------------------------
      LOOP:  cpu time   15.7048: real time   15.7052

 eigenvalue-minimisations  : 14292
 total energy-change (2. order) :-0.5922775E-05  (-0.5555616E-05)
 number of electron     402.9999485 magnetization 
 augmentation part      402.9999485 magnetization 

 Free energy of the ion-electron system (eV)
  ---------------------------------------------------
  alpha Z        PSCENC =       792.90594632
  Ewald energy   TEWEN  =    206941.71361248
  -Hartree energ DENC   =   -254306.06218607
  -exchange      EXHF   =         0.00000000
  -V(xc)+E(xc)   XCENC  =      1595.51919283
  PAW double counting   =     47046.36945238   -50791.02081050
  entropy T*S    EENTRO =         0.00000000
  eigenvalues    EBANDS =     -1293.24460138
  atomic energy  EATOM  =     49870.62204487
  Solvation  Ediel_sol  =         0.00000000
  ---------------------------------------------------
  free energy    TOTEN  =      -143.19734907 eV

  energy without entropy =     -143.19734907  energy(sigma->0) =     -143.19734907


--------------------------------------------------------------------------------------------------------




 average (electrostatic) potential at core
  the test charge radii are     0.9430  1.2059  0.5201  0.7215
  (the norm of the test charge is              1.0000)
       1 -71.2364       2 -71.2220       3 -71.2220       4 -71.2220       5 -71.2362
       6 -71.2217       7 -71.2219       8 -71.2216       9 -71.2366      10 -71.5102
      11 -71.4863      12 -71.5100      13 -71.4863      14 -71.4861      15 -71.4994
      16 -71.5096      17 -71.4993      18 -71.4994      19 -71.4809      20 -71.4639
      21 -71.4642      22 -71.4946      23 -71.4594      24 -71.4946      25 -71.4835
      26 -71.4836      27 -71.4928      28 -71.2273      29 -71.2219      30 -71.2212
      31 -71.2209      32 -71.2208      33 -71.2092      34 -71.2097      35 -71.2264
      36 -73.8253      37 -40.8145      38 -40.8120      39 -76.9389
 
 
 
 E-fermi :  -0.2922     XC(G=0):  -5.3537     alpha+bet : -4.7618

 Fermi energy:        -0.2922137647

 k-point     1 :       0.0000    0.0000    0.0000
  band No.  band energies     occupation 
      1     -21.5732      2.00000
      2      -9.3034      2.00000
      3      -9.0961      2.00000
      4      -7.8401      2.00000
      5      -6.2508      2.00000
      6      -6.1145      2.00000
      7      -6.1141      2.00000
      8      -6.1041      2.00000
      9      -6.0904      2.00000
     10      -6.0894      2.00000
     11      -6.0679      2.00000
     12      -5.6081      2.00000
     13      -5.4037      2.00000
     14      -5.4034      2.00000
     15      -5.3853      2.00000
     16      -5.3398      2.00000
     17      -5.3189      2.00000
     18      -5.3182      2.00000
     19      -5.3004      2.00000
     20      -4.7909      2.00000
     21      -4.7900      2.00000
     22      -4.6553      2.00000
     23      -4.6073      2.00000
     24      -4.5963      2.00000
     25      -4.5947      2.00000
     26      -4.4024      2.00000
     27      -4.3359      2.00000
     28      -4.3349      2.00000
     29      -4.3097      2.00000
     30      -4.3015      2.00000
     31      -4.3005      2.00000
     32      -4.2549      2.00000
     33      -4.2533      2.00000
     34      -4.1779      2.00000
     35      -4.1631      2.00000
     36      -4.1594      2.00000
     37      -4.1282      2.00000
     38      -4.1238      2.00000
     39      -4.1235      2.00000
     40      -4.1142      2.00000
     41      -4.0943      2.00000
     42      -4.0921      2.00000
     43      -4.0675      2.00000
     44      -4.0515      2.00000
     45      -4.0489      2.00000
     46      -4.0463      2.00000
     47      -3.9831      2.00000
     48      -3.9829      2.00000
     49      -3.8744      2.00000
     50      -3.8714      2.00000
     51      -3.8647      2.00000
     52      -3.8506      2.00000
     53      -3.8119      2.00000
     54      -3.8106      2.00000
     55      -3.8016      2.00000
     56      -3.7699      2.00000
     57      -3.7336      2.00000
     58      -3.6991      2.00000
     59      -3.5113      2.00000
     60      -3.5067      2.00000
     61      -3.4516      2.00000
     62      -3.4516      2.00000
[...]
  0.000   0.000   0.000   0.000   0.000   0.000   0.000   0.000   0.000   0.000   1.000   0.000   0.000   0.000   0.000   0.000
  0.000   0.000   0.000   0.000   0.000   0.000   0.000   0.000   0.000   0.000   0.000   0.000   0.000   0.000   0.000   0.000
  0.000   0.000   0.000   0.000   0.000   0.000   0.000   0.000   0.000   0.000   0.000   0.000   0.000   0.000   0.000   0.000
  0.000   0.000   0.000   0.000   0.000   0.000   0.000   0.000   0.000   0.000   0.000   0.000   0.000   0.000   0.000   0.000
  0.000   0.000   0.000   0.000   0.000   0.000   0.000   0.000   0.000   0.000   0.000   0.000   0.000   0.000   0.000   0.000
  0.000   0.000   0.000   0.000   0.000   0.000   0.000   0.000   0.000   0.000   0.000   0.000   0.000   0.000   0.000   0.000
  0.000   0.000   0.000   0.000   0.000   0.000   0.000   0.000   0.000   0.000   0.000   0.000   0.000   0.000   0.000   0.000
  0.000   0.000   0.000   0.000   0.000   0.000   0.000   0.000   0.000   0.000   0.000   0.000   0.000   0.000   0.000   0.000


------------------------ aborting loop because EDIFF is reached ----------------------------------------





 total charge

# of ion       s       p       d       tot
------------------------------------------
    1        0.445   0.287   9.187   9.919
    2        0.450   0.284   9.188   9.921
    3        0.450   0.284   9.188   9.921
    4        0.450   0.284   9.187   9.921
    5        0.445   0.287   9.185   9.917
    6        0.450   0.284   9.187   9.921
    7        0.450   0.284   9.188   9.921
    8        0.450   0.284   9.188   9.921
    9        0.448   0.284   9.187   9.918
   10        0.441   0.375   9.176   9.991
   11        0.444   0.369   9.182   9.994
   12        0.441   0.375   9.176   9.991
   13        0.444   0.369   9.182   9.994
   14        0.444   0.369   9.182   9.994
   15        0.439   0.370   9.181   9.989
   16        0.441   0.375   9.176   9.991
   17        0.439   0.370   9.180   9.989
   18        0.439   0.370   9.180   9.989
   19        0.444   0.374   9.183  10.001
   20        0.437   0.380   9.182   9.999
   21        0.437   0.380   9.182   9.999
   22        0.439   0.373   9.181   9.992
   23        0.437   0.380   9.183  10.000
   24        0.439   0.373   9.181   9.993
   25        0.444   0.374   9.183  10.001
   26        0.444   0.374   9.183  10.001
   27        0.439   0.372   9.182   9.993
   28        0.453   0.294   9.192   9.939
   29        0.450   0.303   9.188   9.941
   30        0.450   0.303   9.188   9.940
   31        0.451   0.303   9.188   9.941
   32        0.450   0.303   9.188   9.941
   33        0.448   0.299   9.190   9.937
   34        0.449   0.299   9.190   9.938
   35        0.450   0.296   9.192   9.938
   36        0.699   0.444   8.128   9.271
   37        0.618   0.119   0.000   0.736
   38        0.617   0.119   0.000   0.736
   39        1.573   3.582   0.000   5.155
--------------------------------------------------
tot         19.073  15.946 329.579 364.597
 
    CHARGE:  cpu time    0.8206: real time    0.8208
    FORLOC:  cpu time    0.0095: real time    0.0095
    FORNL :  cpu time    4.4840: real time    4.4842
    STRESS:  cpu time   13.4106: real time   13.4109
    FORCOR:  cpu time    0.0327: real time    0.0328
    FORHAR:  cpu time    0.0145: real time    0.0146
    OFIELD:  cpu time    0.0002: real time    0.0002

  FORCE on cell =-STRESS in cart. coord.  units (eV):
  Direction    XX          YY          ZZ          XY          YZ          ZX
  --------------------------------------------------------------------------------------
  Alpha Z   792.90595   792.90595   792.90595
  Ewald  233140.92484233088.33818************     1.04994    -1.90053     0.54648
  Hartree246007.76251245998.76396************     0.18696    -0.99266     0.35340
  E(xc)   -2327.67943 -2327.88354 -2332.65689     0.00376     0.01649     0.00009
  Local  ************************492434.04594    -0.90857     2.10539    -0.78352
  n-local  -778.45675  -779.18802  -795.80612     0.02057    -0.18375     0.01536
  augment  3365.47205  3366.54179  3385.64779    -0.03926     0.05805    -0.00753
  Kinetic  3409.49374  3424.66276  3468.21954    -0.29417     0.74937    -0.10689
  Fock        0.00000     0.00000     0.00000     0.00000     0.00000     0.00000
  -------------------------------------------------------------------------------------
  Total      -1.86098    -1.82472     3.93429     0.01923    -0.14764     0.01740
  in kB      -2.39439    -2.34774     5.06198     0.02475    -0.18995     0.02238
  external pressure =        0.11 kB  Pullay stress =        0.00 kB


 VOLUME and BASIS-vectors are now :
 -----------------------------------------------------------------------------
  energy-cutoff  :      500.00
  volume of cell :     1245.25
      direct lattice vectors                 reciprocal lattice vectors
     7.696786404  0.000000000  0.000000000     0.129924354 -0.075011849  0.000000000
     3.848392758  6.665612809  0.000000000     0.000000000  0.150023716  0.000000000
     0.000000000  0.000000000 24.272106894     0.000000000  0.000000000  0.041199555

  length of vectors
     7.696786404  7.696786404 24.272106894     0.150023716  0.150023716  0.041199555


 FORCES acting on ions
    electron-ion (+dipol)            ewald-force                    non-local-force                 convergence-correction
 -----------------------------------------------------------------------------------------------
   0.365E-02 -.444E-01 0.380E+04   -.715E-03 0.366E-02 -.379E+04   -.687E-04 0.216E-01 -.252E+01   -.292E-02 0.238E-01 -.966E+00
   -.198E+00 0.164E+00 0.379E+04   0.140E+00 0.101E+00 -.379E+04   -.121E-01 -.104E+00 -.197E+01   0.672E-01 -.156E+00 -.719E+00
   0.195E+00 0.152E+00 0.379E+04   -.139E+00 0.103E+00 -.379E+04   0.116E-01 -.106E+00 -.197E+01   -.639E-01 -.144E+00 -.715E+00
   0.575E-01 -.262E+00 0.379E+04   0.154E+00 0.625E-01 -.379E+04   -.103E+00 0.544E-01 -.195E+01   -.106E+00 0.140E+00 -.702E+00
   -.156E-01 -.354E-02 0.379E+04   0.174E-02 -.953E-02 -.379E+04   -.948E-02 0.130E-02 -.211E+01   0.239E-01 0.920E-02 -.649E+00
   -.472E-01 -.264E+00 0.379E+04   -.156E+00 0.624E-01 -.379E+04   0.104E+00 0.530E-01 -.195E+01   0.961E-01 0.144E+00 -.699E+00
   0.224E+00 0.108E+00 0.379E+04   0.155E-01 -.164E+00 -.379E+04   -.801E-01 0.476E-01 -.201E+01   -.154E+00 0.884E-02 -.703E+00
   -.232E+00 0.115E+00 0.379E+04   -.149E-01 -.165E+00 -.379E+04   0.773E-01 0.489E-01 -.201E+01   0.165E+00 0.196E-02 -.705E+00
   0.147E-01 0.156E-01 0.380E+04   -.569E-03 0.578E-02 -.379E+04   0.931E-02 0.136E-02 -.224E+01   -.240E-01 -.221E-01 -.687E+00
   0.152E+01 0.873E+00 0.132E+04   -.142E+01 -.839E+00 -.132E+04   -.129E+00 -.687E-01 -.822E+00   0.492E-01 0.482E-01 -.504E+00
   -.213E-01 -.180E+01 0.131E+04   0.899E-02 0.186E+01 -.131E+04   -.865E-02 -.869E-01 -.857E+00   0.215E-01 0.118E-01 -.381E+00
   -.151E+01 0.863E+00 0.132E+04   0.141E+01 -.831E+00 -.132E+04   0.131E+00 -.694E-01 -.820E+00   -.566E-01 0.508E-01 -.506E+00
   -.156E+01 0.960E+00 0.131E+04   0.163E+01 -.983E+00 -.131E+04   -.103E+00 0.372E-01 -.874E+00   0.120E-01 -.350E-02 -.398E+00
   0.153E+01 0.971E+00 0.131E+04   -.162E+01 -.987E+00 -.131E+04   0.839E-01 0.372E-01 -.873E+00   0.228E-01 -.109E-01 -.412E+00
   0.192E-01 -.219E+00 0.132E+04   -.106E-01 0.304E-01 -.132E+04   0.930E-03 0.552E-01 -.616E+00   -.948E-02 0.133E+00 -.578E+00
   0.111E-03 -.173E+01 0.132E+04   0.249E-02 0.170E+01 -.132E+04   0.769E-03 0.106E+00 -.894E+00   -.335E-02 -.104E+00 -.516E+00
   -.250E+00 0.469E-01 0.132E+04   0.648E-01 0.230E-01 -.132E+04   0.550E-01 -.959E-02 -.648E+00   0.122E+00 -.545E-01 -.588E+00
   0.249E+00 0.259E-01 0.132E+04   -.673E-01 0.341E-01 -.132E+04   -.555E-01 -.940E-02 -.651E+00   -.119E+00 -.448E-01 -.577E+00
   0.702E-01 0.591E+00 -.118E+04   -.739E-01 -.604E+00 0.118E+04   0.151E-02 -.120E+00 0.474E+00   0.242E-02 0.118E+00 -.137E+00
   -.275E+02 -.154E+02 -.119E+04   0.270E+02 0.151E+02 0.119E+04   0.322E+00 0.157E+00 0.454E+00   0.214E+00 0.109E+00 -.104E+00
   0.274E+02 -.154E+02 -.119E+04   -.269E+02 0.152E+02 0.119E+04   -.304E+00 0.159E+00 0.455E+00   -.244E+00 0.989E-01 -.107E+00
   -.147E+02 0.852E+01 -.119E+04   0.141E+02 -.819E+01 0.119E+04   0.410E+00 -.232E+00 0.864E+00   0.946E-01 -.954E-01 -.145E+00
   -.523E-01 0.317E+02 -.119E+04   0.657E-01 -.311E+02 0.119E+04   0.118E-01 -.324E+00 0.421E+00   -.253E-01 -.278E+00 -.136E+00
   0.147E+02 0.859E+01 -.119E+04   -.142E+02 -.824E+01 0.119E+04   -.430E+00 -.234E+00 0.863E+00   -.565E-01 -.991E-01 -.144E+00
   -.184E+00 -.542E+00 -.118E+04   0.185E+00 0.563E+00 0.118E+04   0.119E+00 0.440E-02 0.526E+00   -.109E+00 -.274E-01 -.148E+00
   0.205E+00 -.473E+00 -.118E+04   -.199E+00 0.485E+00 0.118E+04   -.119E+00 0.564E-02 0.525E+00   0.102E+00 -.196E-01 -.145E+00
   -.271E-01 -.176E+02 -.119E+04   0.139E-01 0.168E+02 0.119E+04   -.718E-02 0.517E+00 0.846E+00   0.206E-01 0.189E+00 -.144E+00
   0.198E+00 -.869E+00 -.366E+04   -.196E+00 0.816E+00 0.365E+04   -.923E-03 0.262E-01 0.202E+01   -.644E-03 0.363E-01 0.709E+00
   -.136E+02 -.178E+02 -.366E+04   0.136E+02 0.175E+02 0.366E+04   -.455E-01 0.201E+00 0.167E+01   0.477E-01 0.375E-01 0.502E+00
   0.135E+02 -.184E+02 -.366E+04   -.134E+02 0.181E+02 0.366E+04   0.459E-01 0.201E+00 0.168E+01   -.470E-01 0.414E-01 0.497E+00
   -.201E+02 -.228E+00 -.366E+04   0.198E+02 0.362E+00 0.365E+04   0.172E+00 -.145E+00 0.175E+01   0.978E-03 0.474E-02 0.494E+00
   0.208E+02 -.241E+00 -.366E+04   -.206E+02 0.376E+00 0.365E+04   -.162E+00 -.148E+00 0.173E+01   -.232E-02 0.649E-02 0.499E+00
   -.753E+01 0.168E+02 -.365E+04   0.720E+01 -.166E+02 0.365E+04   0.291E+00 -.160E+00 0.218E+01   -.474E-02 -.412E-01 0.497E+00
   0.733E+01 0.174E+02 -.365E+04   -.701E+01 -.171E+02 0.365E+04   -.289E+00 -.150E+00 0.216E+01   0.102E-01 -.420E-01 0.507E+00
   0.219E+00 -.142E+01 -.366E+04   -.210E+00 0.145E+01 0.366E+04   0.828E-02 0.159E-02 0.226E+01   -.181E-01 -.293E-01 0.543E+00
   -.765E+00 0.469E+01 -.324E+04   0.777E+00 -.494E+01 0.324E+04   -.188E-01 0.290E+00 0.342E+01   0.447E-02 -.207E-01 0.385E+00
   0.687E+02 0.515E+02 -.353E+03   -.753E+02 -.565E+02 0.353E+03   0.660E+01 0.500E+01 -.860E-01   0.138E-01 0.849E-02 0.140E-01
   -.707E+02 0.487E+02 -.353E+03   0.775E+02 -.534E+02 0.353E+03   -.679E+01 0.473E+01 -.129E+00   -.140E-01 0.824E-02 0.137E-01
   0.118E+01 -.618E+02 -.211E+04   -.212E+01 0.110E+03 0.211E+04   0.939E+00 -.480E+02 0.536E-01   0.522E-02 -.287E-01 0.514E-01
 -----------------------------------------------------------------------------------------------
   -.783E+00 0.383E+02 0.920E+01   -.853E-13 -.142E-12 -.728E-11   0.732E+00 -.382E+02 -.163E+01   0.368E-01 0.753E-02 -.750E+01
 
 
 POSITION                                       TOTAL-FORCE (eV/Angst)
 -----------------------------------------------------------------------------------
      0.00000      0.00000      5.37156         0.000319      0.003622      0.119915
      2.56560      0.00000      5.37156        -0.002847      0.004199      0.066025
      5.13119      0.00000      5.37156         0.003563      0.004101      0.065992
      1.28280      2.22187      5.37156         0.002826     -0.006165      0.067819
      3.84839      2.22187      5.37156         0.000857     -0.003643      0.057213
      6.41399      2.22187      5.37156        -0.002048     -0.006097      0.067756
      2.56560      4.44374      5.37156         0.005089     -0.000486      0.067129
      5.13119      4.44374      5.37156        -0.004342     -0.000545      0.067104
      7.69679      4.44374      5.37156        -0.000214     -0.000481      0.065640
      1.28280      0.74062      7.46636         0.028870      0.012263     -0.071110
      3.84839      0.74062      7.46636         0.000876     -0.020085     -0.131677
      6.41399      0.74062      7.46636        -0.028068      0.012248     -0.070492
      2.56560      2.96249      7.46636        -0.020648      0.009301     -0.130880
      5.13119      2.96249      7.46636         0.022190      0.009194     -0.130989
      7.69679      2.96249      7.46636         0.000411     -0.002279     -0.043048
      3.84839      5.18437      7.46636         0.000388     -0.035910     -0.083445
      6.41399      5.18437      7.46636        -0.007137      0.004692     -0.044540
      8.97958      5.18437      7.46636         0.007928      0.004694     -0.044812
      7.69679      1.48680      9.55287         0.000618     -0.017017     -0.020015
      2.54973      1.47208      9.52995         0.037010      0.025238      0.018246
      5.14706      1.47208      9.52995        -0.038783      0.026529      0.020882
      8.97744      3.70436      9.55084        -0.010564      0.010694      0.009227
      3.84839      3.72144      9.52995         0.000242     -0.022142     -0.007336
      6.41613      3.70436      9.55084         0.012613      0.011196      0.008386
     10.25757      5.92221      9.55287         0.012014     -0.003056     -0.010406
      5.13600      5.92221      9.55287        -0.010834     -0.003023     -0.010912
      7.69679      5.92251      9.55084         0.000605     -0.030434     -0.003340
      0.00000      0.00000     11.61595         0.000618      0.009172      0.018211
      6.40108      6.64688     11.64473        -0.024377     -0.045644     -0.004522
      8.99249      6.64688     11.64473         0.024839     -0.044495     -0.002646
      8.95691      2.22006     11.64473        -0.055315     -0.007398     -0.028249
      6.43666      2.22006     11.64473         0.054680     -0.006815     -0.024876
     10.25261      4.46428     11.64473        -0.042321      0.043720     -0.024154
      5.14096      4.46428     11.64473         0.043992      0.043446     -0.024394
      7.69679      4.44374     11.61500        -0.000417      0.000601      0.010841
      3.84839      2.22187     11.65010        -0.001514      0.020963      0.187001
      3.06726      1.86630     14.48610        -0.010457     -0.006353      0.002551
      4.60739      1.89675     14.49113         0.002912      0.000637      0.004613
      3.82541      2.47986     14.47301        -0.003571      0.005560     -0.012708
 -----------------------------------------------------------------------------------
    total drift:                               -0.014429      0.041941      0.069118


--------------------------------------------------------------------------------------------------------



  FREE ENERGIE OF THE ION-ELECTRON SYSTEM (eV)
  ---------------------------------------------------
  free  energy   TOTEN  =      -143.19734907 eV

  energy  without entropy=     -143.19734907  energy(sigma->0) =     -143.19734907
 


--------------------------------------------------------------------------------------------------------


    POTLOK:  cpu time    0.0339: real time    0.0339


--------------------------------------------------------------------------------------------------------


 stress matrix after NEB project (eV)
     -1.86098      0.01923      0.01740
      0.01923     -1.82472     -0.14764
      0.01740     -0.14764      3.93429
  FORCES: max atom, RMS     0.014324    0.003169
  FORCE total and by dimension    0.019787    0.012708
  Stress total and by dimension    4.724026    3.934292
     LOOP+:  cpu time  245.7878: real time  245.8024
 -----------------------------------------------------------------------------
|                                                                             |
|           W    W    AA    RRRRR   N    N  II  N    N   GGGG   !!!           |
|           W    W   A  A   R    R  NN   N  II  NN   N  G    G  !!!           |
|           W    W  A    A  R    R  N N  N  II  N N  N  G       !!!           |
|           W WW W  AAAAAA  RRRRR   N  N N  II  N  N N  G  GGG   !            |
|           WW  WW  A    A  R   R   N   NN  II  N   NN  G    G                |
|           W    W  A    A  R    R  N    N  II  N    N   GGGG   !!!           |
|                                                                             |
|     Tetrahedron method does not include variations of the Fermi             |
|     occupations, so forces and stress will be inaccurate. We suggest        |
|     using a different smearing scheme ISMEAR = 1 or 2 for metals in         |
|     relaxations.                                                            |
|                                                                             |
 -----------------------------------------------------------------------------

    4ORBIT:  cpu time    0.0000: real time    0.0000



 total charge

# of ion       s       p       d       tot
------------------------------------------
    1        0.445   0.287   9.187   9.919
    2        0.450   0.284   9.188   9.921
    3        0.450   0.284   9.188   9.921
    4        0.450   0.284   9.187   9.921
    5        0.445   0.287   9.185   9.917
    6        0.450   0.284   9.187   9.921
    7        0.450   0.284   9.188   9.921
    8        0.450   0.284   9.188   9.921
    9        0.448   0.284   9.187   9.918
   10        0.441   0.375   9.176   9.991
   11        0.444   0.369   9.182   9.994
   12        0.441   0.375   9.176   9.991
   13        0.444   0.369   9.182   9.994
   14        0.444   0.369   9.182   9.994
   15        0.439   0.370   9.181   9.989
   16        0.441   0.375   9.176   9.991
   17        0.439   0.370   9.180   9.989
   18        0.439   0.370   9.180   9.989
   19        0.444   0.374   9.183  10.001
   20        0.437   0.380   9.182   9.999
   21        0.437   0.380   9.182   9.999
   22        0.439   0.373   9.181   9.992
   23        0.437   0.380   9.183  10.000
   24        0.439   0.373   9.181   9.993
   25        0.444   0.374   9.183  10.001
   26        0.444   0.374   9.183  10.001
   27        0.439   0.372   9.182   9.993
   28        0.453   0.294   9.192   9.939
   29        0.450   0.303   9.188   9.941
   30        0.450   0.303   9.188   9.940
   31        0.451   0.303   9.188   9.941
   32        0.450   0.303   9.188   9.941
   33        0.448   0.299   9.190   9.937
   34        0.449   0.299   9.190   9.938
   35        0.450   0.296   9.192   9.938
   36        0.699   0.444   8.128   9.271
   37        0.618   0.119   0.000   0.736
   38        0.617   0.119   0.000   0.736
   39        1.573   3.582   0.000   5.155
--------------------------------------------------
tot         19.073  15.946 329.579 364.597
 
 BZINTS: Fermi energy:   -0.292214;  403.000000 electrons
         Band energy:-0.129324E+04;  BLOECHL correction:   -0.075867

 total amount of memory used by VASP MPI-rank0   225581. kBytes
=======================================================================

   base      :      30000. kBytes
   nonlr-proj:      18230. kBytes
   fftplans  :       3394. kBytes
   grid      :      15015. kBytes
   one-center:        606. kBytes
   wavefun   :     158336. kBytes
 
  
  
 General timing and accounting informations for this job:
 ========================================================
  
                  Total CPU time used (sec):      264.933
                            User time (sec):      255.550
                          System time (sec):        9.383
                         Elapsed time (sec):      265.371
  
                   Maximum memory used (kb):      499032.
                   Average memory used (kb):          N/A
  
                          Minor page faults:       116351
                          Major page faults:            0
                 Voluntary context switches:         9160
