PROCAR new format
# of k-points:   10         # of bands:  252         # of ions:   39

 k-point     1 :    0.00000000 0.00000000 0.00000000     weight = 0.01562500

band     1 # energy  -23.72180206 # occ.  2.00000000
 
ion      s      p      d    tot
    1  0.000  0.000  0.000  0.000
    2  0.000  0.000  0.000  0.000
    3  0.000  0.000  0.000  0.000
    4  0.000  0.000  0.000  0.000
    5  0.000  0.000  0.000  0.000
    6  0.000  0.000  0.000  0.000
    7  0.000  0.000  0.000  0.000
    8  0.000  0.000  0.000  0.000
    9  0.000  0.000  0.000  0.000
   10  0.000  0.000  0.000  0.000
   11  0.000  0.000  0.000  0.000
   12  0.000  0.000  0.000  0.000
   13  0.000  0.000  0.000  0.000
   14  0.000  0.000  0.000  0.000
   15  0.000  0.000  0.000  0.000
   16  0.000  0.000  0.000  0.000
   17  0.000  0.000  0.000  0.000
   18  0.000  0.000  0.000  0.000
   19  0.000  0.000  0.000  0.000
   20  0.000  0.000  0.000  0.000
   21  0.000  0.000  0.000  0.000
   22  0.000  0.000  0.000  0.000
   23  0.000  0.000  0.000  0.000
   24  0.000  0.000  0.000  0.000
   25  0.000  0.000  0.000  0.000
   26  0.000  0.000  0.000  0.000
   27  0.000  0.000  0.000  0.000
   28  0.000  0.000  0.000  0.000
   29  0.000  0.000  0.000  0.000
   30  0.000  0.000  0.000  0.000
   31  0.000  0.000  0.000  0.000
   32  0.000  0.000  0.000  0.000
   33  0.000  0.000  0.000  0.000
   34  0.000  0.000  0.000  0.000
   35  0.000  0.000  0.000  0.000
   36  0.000  0.000  0.000  0.000
   37  0.076  0.055  0.000  0.131
   38  0.725  0.006  0.000  0.731
   39  0.064  0.014  0.000  0.077
tot    0.864  0.075  0.000  0.939
 
band     2 # energy  -14.47413164 # occ.  2.00000000
 
ion      s      p      d    tot
    1  0.000  0.000  0.000  0.000
    2  0.000  0.000  0.000  0.000
    3  0.000  0.000  0.000  0.000
    4  0.000  0.000  0.000  0.000
    5  0.000  0.000  0.000  0.000
    6  0.000  0.000  0.000  0.000
    7  0.000  0.000  0.000  0.000
    8  0.000  0.000  0.000  0.000
    9  0.000  0.000  0.000  0.000
   10  0.000  0.000  0.000  0.000
   11  0.000  0.000  0.000  0.000
   12  0.000  0.000  0.000  0.000
   13  0.000  0.000  0.000  0.000
   14  0.000  0.000  0.000  0.000
   15  0.000  0.000  0.000  0.000
   16  0.000  0.000  0.000  0.000
   17  0.000  0.000  0.000  0.000
   18  0.000  0.000  0.000  0.000
   19  0.000  0.000  0.000  0.000
   20  0.000  0.000  0.000  0.000
   21  0.000  0.000  0.000  0.000
   22  0.000  0.000  0.000  0.000
   23  0.000  0.000  0.000  0.000
   24  0.000  0.000  0.000  0.000
   25  0.000  0.000  0.000  0.000
   26  0.000  0.000  0.000  0.000
   27  0.000  0.000  0.000  0.000
   28  0.000  0.000  0.000  0.000
   29  0.000  0.000  0.000  0.000
   30  0.000  0.000  0.000  0.000
   31  0.000  0.000  0.000  0.000
   32  0.000  0.000  0.000  0.000
   33  0.000  0.000  0.000  0.000
   34  0.000  0.000  0.000  0.000
   35  0.000  0.000  0.000  0.000
   36  0.003  0.002  0.004  0.009
   37  0.162  0.048  0.000  0.210
   38  0.016  0.518  0.000  0.534
   39  0.201  0.032  0.000  0.233
tot    0.383  0.600  0.004  0.987
 
band     3 # energy   -7.87307796 # occ.  2.00000000
 
ion      s      p      d    tot
    1  0.000  0.000  0.000  0.000
    2  0.000  0.000  0.000  0.000
    3  0.000  0.000  0.000  0.000
    4  0.000  0.000  0.000  0.000
    5  0.000  0.000  0.000  0.000
    6  0.000  0.000  0.000  0.000
    7  0.000  0.000  0.000  0.000
    8  0.000  0.000  0.000  0.000
    9  0.000  0.000  0.000  0.000
   10  0.000  0.000  0.000  0.000
   11  0.000  0.000  0.000  0.000
   12  0.000  0.000  0.000  0.000
   13  0.000  0.000  0.000  0.000
   14  0.000  0.000  0.000  0.000
   15  0.000  0.000  0.000  0.000
   16  0.000  0.000  0.000  0.000
   17  0.000  0.000  0.000  0.000
   18  0.000  0.000  0.000  0.000
   19  0.001  0.000  0.000  0.001
   20  0.006  0.002  0.008  0.016
   21  0.006  0.002  0.008  0.016
   22  0.001  0.000  0.000  0.001
   23  0.006  0.002  0.008  0.016
   24  0.001  0.000  0.000  0.001
   25  0.001  0.000  0.000  0.001
   26  0.001  0.000  0.000  0.001
   27  0.001  0.000  0.000  0.001
   28  0.000  0.000  0.000  0.000
   29  0.002  0.000  0.001  0.004
   30  0.002  0.000  0.001  0.004
   31  0.002  0.000  0.001  0.004
   32  0.002  0.000  0.001  0.004
   33  0.002  0.000  0.001  0.004
   34  0.002  0.000  0.001  0.004
   35  0.000  0.000  0.000  0.000
   36  0.160  0.038  0.197  0.395
   37  0.165  0.163  0.000  0.328
   38  0.011  0.049  0.000  0.060
   39  0.014  0.001  0.000  0.015
tot    0.390  0.260  0.230  0.881
 
band     4 # energy   -6.61080666 # occ.  2.00000000
 
ion      s      p      d    tot
    1  0.007  0.001  0.000  0.007
    2  0.007  0.001  0.000  0.007
    3  0.007  0.001  0.000  0.007
    4  0.007  0.001  0.000  0.007
    5  0.007  0.001  0.000  0.007
    6  0.007  0.001  0.000  0.007
    7  0.007  0.001  0.000  0.007
    8  0.007  0.001  0.000  0.007
    9  0.007  0.001  0.000  0.007
   10  0.024  0.000  0.001  0.025
   11  0.025  0.000  0.000  0.026
   12  0.024  0.000  0.001  0.025
   13  0.025  0.000  0.000  0.026
   14  0.025  0.000  0.000  0.026
   15  0.024  0.000  0.000  0.025
   16  0.024  0.000  0.001  0.025
   17  0.024  0.000  0.000  0.025
   18  0.024  0.000  0.000  0.025
   19  0.020  0.000  0.000  0.021
   20  0.019  0.000  0.001  0.021
   21  0.019  0.000  0.001  0.021
   22  0.021  0.000  0.000  0.022
   23  0.019  0.000  0.001  0.021
   24  0.021  0.000  0.000  0.022
   25  0.020  0.000  0.000  0.021
   26  0.020  0.000  0.000  0.021
   27  0.021  0.000  0.000  0.022
   28  0.005  0.001  0.000  0.005
   29  0.004  0.001  0.000  0.004
   30  0.004  0.001  0.000  0.004
   31  0.004  0.001  0.000  0.004
   32  0.004  0.001  0.000  0.004
   33  0.004  0.001  0.000  0.004
   34  0.004  0.001  0.000  0.004
   35  0.004  0.001  0.000  0.005
   36  0.000  0.007  0.015  0.022
   37  0.010  0.008  0.000  0.019
   38  0.001  0.002  0.000  0.003
   39  0.001  0.000  0.000  0.001
tot    0.507  0.031  0.025  0.563
 
band     5 # energy   -6.56764421 # occ.  2.00000000
 
ion      s      p      d    tot
    1  0.000  0.000  0.000  0.000
    2  0.000  0.000  0.000  0.000
    3  0.000  0.000  0.000  0.000
    4  0.000  0.000  0.000  0.000
    5  0.000  0.000  0.000  0.000
    6  0.000  0.000  0.000  0.000
    7  0.000  0.000  0.000  0.000
    8  0.000  0.000  0.000  0.000
    9  0.000  0.000  0.000  0.000
   10  0.000  0.000  0.000  0.000
   11  0.000  0.000  0.000  0.000
   12  0.000  0.000  0.000  0.000
   13  0.000  0.000  0.000  0.000
   14  0.000  0.000  0.000  0.000
   15  0.000  0.000  0.000  0.000
   16  0.000  0.000  0.000  0.000
   17  0.000  0.000  0.000  0.000
   18  0.000  0.000  0.000  0.000
   19  0.000  0.000  0.000  0.000
   20  0.000  0.000  0.001  0.001
   21  0.000  0.000  0.000  0.000
   22  0.000  0.000  0.000  0.000
   23  0.000  0.000  0.000  0.000
   24  0.000  0.000  0.000  0.000
   25  0.000  0.000  0.000  0.000
   26  0.000  0.000  0.000  0.000
   27  0.000  0.000  0.000  0.000
   28  0.000  0.000  0.000  0.000
   29  0.000  0.000  0.002  0.002
   30  0.000  0.000  0.000  0.000
   31  0.000  0.000  0.002  0.002
   32  0.000  0.000  0.002  0.002
   33  0.000  0.000  0.000  0.000
   34  0.000  0.000  0.002  0.002
   35  0.000  0.000  0.000  0.000
   36  0.000  0.002  0.022  0.024
   37  0.000  0.117  0.000  0.117
   38  0.000  0.515  0.000  0.515
   39  0.000  0.007  0.000  0.007
tot    0.002  0.642  0.031  0.675
 
band     6 # energy   -6.56747046 # occ.  2.00000000
 
ion      s      p      d    tot
    1  0.000  0.000  0.000  0.000
    2  0.000  0.000  0.000  0.000
    3  0.000  0.000  0.000  0.000
    4  0.000  0.000  0.000  0.000
    5  0.000  0.000  0.000  0.000
    6  0.000  0.000  0.000  0.000
    7  0.000  0.000  0.000  0.000
    8  0.000  0.000  0.000  0.000
    9  0.000  0.000  0.000  0.000
   10  0.000  0.000  0.000  0.000
   11  0.000  0.000  0.000  0.000
   12  0.000  0.000  0.000  0.000
   13  0.000  0.000  0.000  0.000
   14  0.000  0.000  0.000  0.000
   15  0.000  0.000  0.000  0.000
   16  0.000  0.000  0.000  0.000
   17  0.000  0.000  0.000  0.000
   18  0.000  0.000  0.000  0.000
   19  0.000  0.000  0.000  0.000
   20  0.000  0.000  0.000  0.000
   21  0.000  0.000  0.001  0.001
   22  0.000  0.000  0.000  0.000
   23  0.000  0.000  0.001  0.001
   24  0.000  0.000  0.000  0.000
   25  0.000  0.000  0.000  0.000
   26  0.000  0.000  0.000  0.000
   27  0.000  0.000  0.000  0.000
   28  0.000  0.000  0.000  0.000
   29  0.000  0.000  0.001  0.001
   30  0.001  0.000  0.002  0.003
   31  0.000  0.000  0.001  0.001
   32  0.000  0.000  0.001  0.001
   33  0.001  0.000  0.002  0.003
   34  0.000  0.000  0.001  0.001
   35  0.000  0.000  0.000  0.000
   36  0.000  0.002  0.022  0.024
   37  0.000  0.117  0.000  0.117
   38  0.000  0.515  0.000  0.515
   39  0.000  0.007  0.000  0.007
tot    0.002  0.642  0.031  0.675
 
band     7 # energy   -5.76425809 # occ.  2.00000000
 
ion      s      p      d    tot
    1  0.008  0.000  0.000  0.009
    2  0.007  0.000  0.000  0.008
    3  0.007  0.000  0.000  0.008
    4  0.007  0.000  0.000  0.008
    5  0.006  0.000  0.000  0.007
    6  0.007  0.000  0.000  0.008
    7  0.007  0.000  0.000  0.008
    8  0.007  0.000  0.000  0.008
    9  0.007  0.000  0.000  0.007
   10  0.011  0.001  0.015  0.027
   11  0.009  0.001  0.017  0.027
   12  0.011  0.001  0.015  0.027
   13  0.009  0.001  0.017  0.027
   14  0.009  0.001  0.017  0.027
   15  0.009  0.001  0.015  0.024
   16  0.011  0.001  0.015  0.027
   17  0.009  0.001  0.015  0.024
   18  0.009  0.001  0.015  0.024
   19  0.013  0.001  0.018  0.032
   20  0.012  0.001  0.023  0.035
   21  0.012  0.001  0.023  0.035
   22  0.015  0.001  0.018  0.033
   23  0.012  0.001  0.023  0.035
   24  0.015  0.001  0.018  0.033
   25  0.013  0.001  0.018  0.032
   26  0.013  0.001  0.018  0.032
   27  0.015  0.001  0.018  0.033
   28  0.007  0.000  0.000  0.007
   29  0.005  0.001  0.000  0.006
   30  0.005  0.001  0.000  0.006
   31  0.005  0.001  0.000  0.006
   32  0.005  0.001  0.000  0.006
   33  0.005  0.001  0.000  0.006
   34  0.005  0.001  0.000  0.006
   35  0.006  0.000  0.000  0.007
   36  0.001  0.003  0.008  0.012
   37  0.004  0.003  0.000  0.007
   38  0.000  0.001  0.000  0.001
   39  0.000  0.000  0.000  0.000
tot    0.317  0.030  0.327  0.673
 
band     8 # energy   -5.52807958 # occ.  2.00000000
 
ion      s      p      d    tot
    1  0.012  0.000  0.022  0.034
    2  0.011  0.000  0.016  0.028
    3  0.011  0.000  0.016  0.028
    4  0.011  0.000  0.016  0.028
    5  0.009  0.000  0.013  0.022
    6  0.011  0.000  0.016  0.028
    7  0.011  0.000  0.016  0.028
    8  0.011  0.000  0.016  0.028
    9  0.013  0.000  0.015  0.028
   10  0.000  0.000  0.024  0.025
   11  0.000  0.000  0.012  0.013
   12  0.000  0.000  0.024  0.025
   13  0.000  0.000  0.012  0.013
   14  0.000  0.000  0.012  0.013
   15  0.000  0.000  0.011  0.011
   16  0.000  0.000  0.024  0.025
   17  0.000  0.000  0.011  0.011
   18  0.000  0.000  0.011  0.011
   19  0.001  0.000  0.010  0.011
   20  0.000  0.000  0.038  0.038
   21  0.000  0.000  0.038  0.038
   22  0.000  0.000  0.008  0.009
   23  0.000  0.000  0.038  0.038
   24  0.000  0.000  0.008  0.009
   25  0.001  0.000  0.010  0.011
   26  0.001  0.000  0.010  0.011
   27  0.000  0.000  0.008  0.009
   28  0.006  0.000  0.008  0.014
   29  0.009  0.000  0.012  0.021
   30  0.009  0.000  0.012  0.021
   31  0.009  0.000  0.012  0.021
   32  0.009  0.000  0.012  0.021
   33  0.009  0.000  0.012  0.021
   34  0.009  0.000  0.012  0.021
   35  0.009  0.000  0.007  0.016
   36  0.009  0.000  0.024  0.034
   37  0.002  0.001  0.000  0.003
   38  0.000  0.000  0.000  0.000
   39  0.000  0.000  0.000  0.000
tot    0.190  0.009  0.570  0.769
 
band     9 # energy   -5.39944388 # occ.  2.00000000
 
ion      s      p      d    tot
    1  0.001  0.000  0.008  0.010
    2  0.004  0.000  0.012  0.016
    3  0.004  0.000  0.012  0.016
    4  0.004  0.000  0.012  0.016
    5  0.009  0.000  0.013  0.022
    6  0.004  0.000  0.012  0.016
    7  0.004  0.000  0.012  0.016
    8  0.004  0.000  0.012  0.016
    9  0.004  0.000  0.006  0.011
   10  0.002  0.001  0.002  0.005
   11  0.002  0.001  0.029  0.032
   12  0.002  0.001  0.002  0.005
   13  0.002  0.001  0.029  0.032
   14  0.002  0.001  0.029  0.031
   15  0.000  0.000  0.021  0.022
   16  0.002  0.001  0.002  0.005
   17  0.000  0.000  0.021  0.022
   18  0.000  0.000  0.022  0.022
   19  0.004  0.001  0.021  0.026
   20  0.005  0.000  0.090  0.095
   21  0.005  0.000  0.090  0.095
   22  0.006  0.000  0.017  0.023
   23  0.005  0.000  0.090  0.095
   24  0.006  0.000  0.017  0.023
   25  0.004  0.001  0.022  0.027
   26  0.004  0.001  0.021  0.026
   27  0.006  0.000  0.017  0.023
   28  0.000  0.000  0.000  0.001
   29  0.001  0.000  0.007  0.008
   30  0.001  0.000  0.007  0.008
   31  0.001  0.000  0.007  0.008
   32  0.001  0.000  0.007  0.008
   33  0.001  0.000  0.007  0.008
   34  0.001  0.000  0.007  0.008
   35  0.004  0.000  0.000  0.005
   36  0.003  0.002  0.005  0.010
   37  0.001  0.000  0.000  0.001
   38  0.000  0.000  0.000  0.000
   39  0.000  0.000  0.000  0.000
tot    0.109  0.013  0.690  0.812
 
band    10 # energy   -5.39661448 # occ.  2.00000000
 
ion      s      p      d    tot
    1  0.000  0.000  0.010  0.010
    2  0.001  0.000  0.003  0.004
    3  0.000  0.000  0.003  0.003
    4  0.001  0.000  0.003  0.004
    5  0.000  0.000  0.004  0.004
    6  0.001  0.000  0.003  0.004
    7  0.000  0.000  0.003  0.003
    8  0.001  0.000  0.003  0.004
    9  0.000  0.000  0.002  0.002
   10  0.014  0.001  0.014  0.029
   11  0.001  0.001  0.022  0.024
   12  0.003  0.001  0.022  0.026
   13  0.001  0.001  0.022  0.024
   14  0.003  0.000  0.025  0.028
   15  0.001  0.000  0.019  0.021
   16  0.004  0.001  0.022  0.026
   17  0.001  0.000  0.020  0.021
   18  0.004  0.001  0.009  0.013
   19  0.005  0.001  0.023  0.029
   20  0.031  0.001  0.005  0.036
   21  0.007  0.000  0.112  0.120
   22  0.000  0.001  0.045  0.046
   23  0.008  0.000  0.110  0.118
   24  0.001  0.000  0.027  0.028
   25  0.020  0.000  0.037  0.058
   26  0.005  0.001  0.023  0.029
   27  0.000  0.001  0.045  0.046
   28  0.000  0.000  0.004  0.004
   29  0.001  0.000  0.004  0.005
   30  0.001  0.000  0.006  0.007
   31  0.001  0.000  0.004  0.005
   32  0.000  0.000  0.004  0.004
   33  0.001  0.000  0.006  0.007
   34  0.000  0.000  0.004  0.004
   35  0.000  0.000  0.001  0.001
   36  0.000  0.001  0.006  0.007
   37  0.000  0.000  0.000  0.000
   38  0.000  0.002  0.000  0.002
   39  0.000  0.000  0.000  0.000
tot    0.115  0.018  0.673  0.806
 
band    11 # energy   -5.39659665 # occ.  2.00000000
 
ion      s      p      d    tot
    1  0.000  0.000  0.010  0.010
    2  0.001  0.000  0.003  0.004
    3  0.001  0.000  0.003  0.004
    4  0.001  0.000  0.003  0.004
    5  0.000  0.000  0.004  0.004
    6  0.000  0.000  0.003  0.003
    7  0.001  0.000  0.003  0.004
    8  0.000  0.000  0.003  0.003
    9  0.000  0.000  0.002  0.002
   10  0.000  0.001  0.024  0.025
   11  0.002  0.000  0.024  0.027
   12  0.011  0.001  0.017  0.028
   13  0.002  0.000  0.024  0.027
   14  0.000  0.001  0.021  0.022
   15  0.003  0.000  0.013  0.016
   16  0.010  0.001  0.017  0.028
   17  0.003  0.000  0.012  0.016
   18  0.000  0.000  0.023  0.023
   19  0.015  0.001  0.033  0.048
   20  0.000  0.000  0.146  0.146
   21  0.023  0.000  0.039  0.063
   22  0.000  0.001  0.033  0.034
   23  0.023  0.000  0.042  0.065
   24  0.000  0.001  0.051  0.052
   25  0.000  0.002  0.017  0.019
   26  0.015  0.001  0.033  0.049
   27  0.000  0.001  0.033  0.034
   28  0.000  0.000  0.004  0.004
   29  0.000  0.000  0.006  0.006
   30  0.000  0.000  0.003  0.004
   31  0.000  0.000  0.006  0.006
   32  0.001  0.001  0.005  0.007
   33  0.000  0.000  0.003  0.004
   34  0.001  0.001  0.005  0.007
   35  0.000  0.000  0.001  0.001
   36  0.000  0.001  0.006  0.007
   37  0.000  0.000  0.000  0.000
   38  0.000  0.002  0.000  0.002
   39  0.000  0.000  0.000  0.000
tot    0.115  0.018  0.673  0.806
 
band    12 # energy   -5.38449005 # occ.  2.00000000
 
ion      s      p      d    tot
    1  0.006  0.001  0.002  0.010
    2  0.001  0.000  0.007  0.009
    3  0.001  0.000  0.008  0.009
    4  0.001  0.000  0.007  0.009
    5  0.003  0.000  0.007  0.010
    6  0.001  0.000  0.008  0.009
    7  0.001  0.000  0.008  0.009
    8  0.001  0.000  0.007  0.009
    9  0.002  0.001  0.015  0.018
   10  0.001  0.000  0.081  0.082
   11  0.002  0.001  0.022  0.026
   12  0.001  0.000  0.081  0.082
   13  0.002  0.001  0.022  0.025
   14  0.002  0.001  0.022  0.026
   15  0.018  0.001  0.020  0.039
   16  0.001  0.000  0.081  0.082
   17  0.018  0.001  0.021  0.039
   18  0.018  0.001  0.020  0.039
   19  0.003  0.000  0.020  0.023
   20  0.007  0.000  0.018  0.026
   21  0.007  0.000  0.018  0.026
   22  0.002  0.001  0.008  0.011
   23  0.007  0.000  0.018  0.026
   24  0.002  0.001  0.008  0.011
   25  0.003  0.000  0.020  0.023
   26  0.003  0.000  0.020  0.023
   27  0.002  0.001  0.008  0.011
   28  0.002  0.001  0.003  0.006
   29  0.000  0.000  0.011  0.011
   30  0.000  0.000  0.011  0.011
   31  0.000  0.000  0.011  0.011
   32  0.000  0.000  0.011  0.011
   33  0.000  0.000  0.011  0.011
   34  0.000  0.000  0.011  0.011
   35  0.000  0.000  0.000  0.000
   36  0.007  0.005  0.010  0.022
   37  0.003  0.002  0.000  0.006
   38  0.000  0.001  0.000  0.001
   39  0.000  0.000  0.000  0.000
tot    0.132  0.022  0.659  0.812
 
band    13 # energy   -5.38318442 # occ.  2.00000000
 
ion      s      p      d    tot
    1  0.000  0.000  0.004  0.004
    2  0.000  0.000  0.002  0.002
    3  0.001  0.000  0.006  0.007
    4  0.000  0.000  0.002  0.002
    5  0.000  0.000  0.008  0.008
    6  0.001  0.001  0.005  0.006
    7  0.001  0.000  0.006  0.007
    8  0.001  0.000  0.005  0.006
    9  0.000  0.000  0.002  0.002
   10  0.005  0.000  0.020  0.025
   11  0.008  0.001  0.072  0.080
   12  0.001  0.001  0.077  0.078
   13  0.007  0.001  0.074  0.082
   14  0.029  0.001  0.014  0.044
   15  0.003  0.001  0.014  0.018
   16  0.001  0.001  0.074  0.076
   17  0.002  0.001  0.013  0.017
   18  0.010  0.000  0.039  0.049
   19  0.001  0.000  0.030  0.031
   20  0.005  0.001  0.039  0.045
   21  0.001  0.001  0.035  0.037
   22  0.003  0.001  0.019  0.023
   23  0.001  0.001  0.035  0.037
   24  0.012  0.001  0.013  0.026
   25  0.003  0.000  0.013  0.016
   26  0.001  0.000  0.031  0.032
   27  0.003  0.001  0.019  0.023
   28  0.000  0.000  0.002  0.002
   29  0.001  0.000  0.003  0.004
   30  0.000  0.000  0.002  0.003
   31  0.001  0.000  0.003  0.004
   32  0.000  0.000  0.003  0.003
   33  0.000  0.000  0.002  0.003
   34  0.000  0.000  0.003  0.003
   35  0.000  0.000  0.005  0.005
   36  0.000  0.000  0.003  0.003
   37  0.000  0.000  0.000  0.000
   38  0.000  0.000  0.000  0.000
   39  0.000  0.000  0.000  0.000
tot    0.102  0.014  0.699  0.815
 
band    14 # energy   -5.38317175 # occ.  2.00000000
 
ion      s      p      d    tot
    1  0.000  0.000  0.004  0.004
    2  0.001  0.001  0.007  0.008
    3  0.000  0.000  0.002  0.003
    4  0.001  0.001  0.007  0.008
    5  0.000  0.000  0.008  0.008
    6  0.000  0.000  0.004  0.004
    7  0.000  0.000  0.003  0.003
    8  0.000  0.000  0.004  0.005
    9  0.000  0.000  0.002  0.002
   10  0.000  0.001  0.094  0.094
   11  0.021  0.001  0.035  0.057
   12  0.003  0.001  0.037  0.041
   13  0.022  0.001  0.033  0.055
   14  0.000  0.000  0.092  0.093
   15  0.007  0.001  0.030  0.038
   16  0.003  0.001  0.040  0.044
   17  0.008  0.001  0.031  0.039
   18  0.000  0.002  0.006  0.007
   19  0.002  0.000  0.019  0.022
   20  0.000  0.001  0.034  0.034
   21  0.004  0.001  0.038  0.043
   22  0.009  0.001  0.015  0.025
   23  0.004  0.001  0.038  0.042
   24  0.000  0.000  0.022  0.022
   25  0.000  0.000  0.037  0.037
   26  0.002  0.000  0.019  0.021
   27  0.009  0.001  0.015  0.025
   28  0.000  0.000  0.002  0.002
   29  0.000  0.000  0.002  0.002
   30  0.001  0.000  0.003  0.004
   31  0.000  0.000  0.002  0.002
   32  0.001  0.000  0.003  0.004
   33  0.001  0.000  0.003  0.004
   34  0.001  0.000  0.003  0.004
   35  0.000  0.000  0.005  0.005
   36  0.000  0.000  0.003  0.003
   37  0.000  0.000  0.000  0.000
   38  0.000  0.000  0.000  0.000
   39  0.000  0.000  0.000  0.000
tot    0.102  0.014  0.699  0.815
 
band    15 # energy   -5.36829940 # occ.  2.00000000
 
ion      s      p      d    tot
    1  0.002  0.001  0.004  0.006
    2  0.000  0.000  0.005  0.005
    3  0.000  0.000  0.005  0.005
    4  0.000  0.000  0.005  0.005
    5  0.004  0.001  0.006  0.010
    6  0.000  0.000  0.005  0.005
    7  0.000  0.000  0.005  0.005
    8  0.000  0.000  0.005  0.005
    9  0.000  0.000  0.001  0.001
   10  0.012  0.001  0.008  0.021
   11  0.010  0.000  0.067  0.077
   12  0.012  0.001  0.008  0.021
   13  0.010  0.000  0.067  0.077
   14  0.010  0.000  0.067  0.077
   15  0.000  0.001  0.037  0.038
   16  0.012  0.001  0.008  0.021
   17  0.000  0.001  0.037  0.038
   18  0.000  0.001  0.037  0.038
   19  0.011  0.001  0.022  0.033
   20  0.002  0.001  0.024  0.027
   21  0.002  0.001  0.024  0.027
   22  0.001  0.000  0.047  0.048
   23  0.002  0.001  0.024  0.027
   24  0.001  0.000  0.047  0.048
   25  0.011  0.001  0.022  0.033
   26  0.011  0.001  0.022  0.033
   27  0.001  0.000  0.047  0.048
   28  0.002  0.001  0.004  0.006
   29  0.000  0.000  0.002  0.002
   30  0.000  0.000  0.002  0.002
   31  0.000  0.000  0.002  0.002
   32  0.000  0.000  0.002  0.002
   33  0.000  0.000  0.002  0.002
   34  0.000  0.000  0.002  0.002
   35  0.002  0.000  0.004  0.006
   36  0.000  0.000  0.000  0.001
   37  0.001  0.000  0.000  0.001
   38  0.000  0.000  0.000  0.000
   39  0.000  0.000  0.000  0.000
tot    0.117  0.017  0.674  0.808
 
band    16 # energy   -5.33939573 # occ.  2.00000000
 
ion      s      p      d    tot
    1  0.000  0.001  0.013  0.014
    2  0.002  0.000  0.006  0.008
    3  0.000  0.000  0.011  0.012
    4  0.002  0.000  0.006  0.008
    5  0.000  0.000  0.008  0.009
    6  0.004  0.001  0.008  0.013
    7  0.000  0.000  0.011  0.011
    8  0.004  0.001  0.007  0.012
    9  0.000  0.001  0.009  0.010
   10  0.000  0.001  0.050  0.050
   11  0.000  0.000  0.035  0.036
   12  0.014  0.000  0.033  0.047
   13  0.000  0.000  0.036  0.036
   14  0.000  0.000  0.027  0.028
   15  0.014  0.000  0.036  0.050
   16  0.013  0.000  0.034  0.047
   17  0.015  0.000  0.028  0.044
   18  0.000  0.000  0.116  0.116
   19  0.001  0.000  0.022  0.023
   20  0.000  0.000  0.025  0.025
   21  0.002  0.000  0.016  0.019
   22  0.006  0.000  0.019  0.025
   23  0.002  0.000  0.017  0.020
   24  0.000  0.000  0.030  0.030
   25  0.000  0.000  0.028  0.028
   26  0.001  0.000  0.021  0.022
   27  0.005  0.000  0.020  0.025
   28  0.000  0.000  0.011  0.011
   29  0.001  0.000  0.004  0.005
   30  0.003  0.001  0.004  0.008
   31  0.002  0.000  0.004  0.005
   32  0.000  0.000  0.004  0.005
   33  0.003  0.001  0.004  0.008
   34  0.000  0.000  0.004  0.005
   35  0.000  0.000  0.005  0.005
   36  0.000  0.000  0.002  0.002
   37  0.000  0.000  0.000  0.000
   38  0.000  0.000  0.000  0.000
   39  0.000  0.000  0.000  0.000
tot    0.096  0.012  0.713  0.821
 
band    17 # energy   -5.33938677 # occ.  2.00000000
 
ion      s      p      d    tot
    1  0.000  0.001  0.013  0.014
    2  0.002  0.001  0.010  0.013
    3  0.004  0.001  0.005  0.010
    4  0.002  0.001  0.010  0.013
    5  0.000  0.000  0.008  0.008
    6  0.000  0.000  0.008  0.009
    7  0.004  0.001  0.005  0.010
    8  0.000  0.000  0.009  0.009
    9  0.000  0.001  0.009  0.010
   10  0.018  0.000  0.028  0.046
   11  0.000  0.000  0.030  0.031
   12  0.004  0.001  0.045  0.049
   13  0.000  0.000  0.030  0.030
   14  0.000  0.000  0.038  0.039
   15  0.006  0.000  0.085  0.090
   16  0.005  0.001  0.043  0.049
   17  0.004  0.000  0.092  0.096
   18  0.020  0.000  0.004  0.024
   19  0.000  0.000  0.025  0.026
   20  0.003  0.000  0.014  0.017
   21  0.001  0.000  0.022  0.023
   22  0.002  0.000  0.027  0.028
   23  0.001  0.000  0.022  0.023
   24  0.007  0.000  0.016  0.024
   25  0.001  0.000  0.019  0.020
   26  0.000  0.000  0.026  0.026
   27  0.002  0.000  0.026  0.028
   28  0.000  0.000  0.011  0.011
   29  0.002  0.000  0.004  0.007
   30  0.000  0.000  0.004  0.004
   31  0.002  0.000  0.004  0.006
   32  0.003  0.000  0.004  0.007
   33  0.000  0.000  0.004  0.004
   34  0.003  0.001  0.004  0.007
   35  0.000  0.000  0.005  0.005
   36  0.000  0.000  0.002  0.002
   37  0.000  0.000  0.000  0.000
   38  0.000  0.000  0.000  0.000
   39  0.000  0.000  0.000  0.000
tot    0.097  0.012  0.713  0.821
 
band    18 # energy   -5.33502623 # occ.  2.00000000
 
ion      s      p      d    tot
    1  0.000  0.000  0.008  0.008
    2  0.002  0.000  0.011  0.013
    3  0.002  0.000  0.012  0.014
    4  0.002  0.000  0.011  0.013
    5  0.001  0.000  0.000  0.002
    6  0.002  0.000  0.011  0.014
    7  0.002  0.000  0.012  0.014
    8  0.002  0.000  0.011  0.014
    9  0.008  0.000  0.016  0.024
   10  0.004  0.000  0.011  0.015
   11  0.000  0.000  0.014  0.015
   12  0.004  0.000  0.011  0.015
   13  0.000  0.000  0.014  0.015
   14  0.000  0.000  0.015  0.015
   15  0.000  0.000  0.039  0.039
   16  0.004  0.000  0.011  0.015
   17  0.000  0.000  0.039  0.039
   18  0.000  0.000  0.039  0.039
   19  0.001  0.001  0.013  0.015
   20  0.003  0.000  0.026  0.030
   21  0.003  0.000  0.026  0.030
   22  0.001  0.000  0.055  0.057
   23  0.003  0.000  0.026  0.030
   24  0.001  0.000  0.055  0.057
   25  0.001  0.001  0.013  0.015
   26  0.001  0.001  0.013  0.015
   27  0.001  0.000  0.055  0.057
   28  0.012  0.000  0.001  0.013
   29  0.006  0.000  0.015  0.021
   30  0.006  0.000  0.015  0.021
   31  0.006  0.000  0.015  0.021
   32  0.006  0.000  0.015  0.021
   33  0.006  0.000  0.015  0.021
   34  0.006  0.000  0.015  0.021
   35  0.007  0.000  0.033  0.040
   36  0.000  0.001  0.004  0.006
   37  0.000  0.000  0.000  0.000
   38  0.000  0.000  0.000  0.000
   39  0.000  0.000  0.000  0.000
tot    0.107  0.008  0.699  0.813
 
band    19 # energy   -5.32341647 # occ.  2.00000000
 
ion      s      p      d    tot
    1  0.000  0.000  0.007  0.007
    2  0.000  0.000  0.007  0.008
    3  0.003  0.000  0.006  0.009
    4  0.001  0.000  0.007  0.008
    5  0.000  0.000  0.006  0.006
    6  0.001  0.000  0.008  0.010
    7  0.003  0.000  0.006  0.009
    8  0.001  0.000  0.008  0.009
    9  0.000  0.000  0.020  0.020
   10  0.000  0.000  0.011  0.011
   11  0.002  0.000  0.021  0.023
   12  0.001  0.000  0.028  0.029
   13  0.003  0.000  0.016  0.019
   14  0.000  0.000  0.050  0.050
   15  0.001  0.000  0.035  0.036
   16  0.001  0.000  0.026  0.027
   17  0.001  0.000  0.035  0.036
   18  0.000  0.000  0.038  0.038
   19  0.006  0.000  0.035  0.041
   20  0.000  0.000  0.011  0.012
   21  0.000  0.000  0.045  0.046
   22  0.010  0.000  0.036  0.046
   23  0.000  0.000  0.041  0.041
   24  0.000  0.000  0.067  0.068
   25  0.000  0.000  0.100  0.100
   26  0.007  0.000  0.024  0.031
   27  0.009  0.000  0.040  0.049
   28  0.000  0.000  0.005  0.005
   29  0.001  0.000  0.004  0.006
   30  0.000  0.000  0.009  0.010
   31  0.001  0.000  0.004  0.006
   32  0.001  0.000  0.004  0.005
   33  0.000  0.000  0.009  0.010
   34  0.001  0.000  0.003  0.005
   35  0.000  0.000  0.010  0.010
   36  0.000  0.000  0.002  0.002
   37  0.000  0.000  0.000  0.000
   38  0.000  0.000  0.000  0.000
   39  0.000  0.000  0.000  0.000
tot    0.053  0.007  0.786  0.846
 
band    20 # energy   -5.32340588 # occ.  2.00000000
 
ion      s      p      d    tot
    1  0.000  0.000  0.007  0.007
    2  0.003  0.000  0.007  0.010
    3  0.000  0.000  0.008  0.008
    4  0.002  0.000  0.007  0.010
    5  0.000  0.000  0.006  0.006
    6  0.002  0.000  0.006  0.008
    7  0.000  0.000  0.008  0.009
    8  0.002  0.000  0.006  0.008
    9  0.000  0.000  0.020  0.020
   10  0.001  0.000  0.032  0.033
   11  0.001  0.000  0.037  0.038
   12  0.000  0.000  0.015  0.015
   13  0.001  0.000  0.042  0.042
   14  0.004  0.000  0.008  0.012
   15  0.000  0.000  0.037  0.037
   16  0.000  0.000  0.018  0.018
   17  0.000  0.000  0.037  0.037
   18  0.001  0.000  0.034  0.035
   19  0.003  0.000  0.072  0.074
   20  0.000  0.000  0.054  0.054
   21  0.000  0.000  0.020  0.020
   22  0.003  0.000  0.060  0.062
   23  0.000  0.000  0.024  0.025
   24  0.013  0.000  0.028  0.041
   25  0.009  0.000  0.006  0.015
   26  0.002  0.000  0.082  0.084
   27  0.004  0.000  0.055  0.059
   28  0.000  0.000  0.005  0.005
   29  0.000  0.000  0.008  0.008
   30  0.002  0.000  0.002  0.004
   31  0.000  0.000  0.007  0.008
   32  0.001  0.000  0.007  0.008
   33  0.002  0.000  0.002  0.004
   34  0.000  0.000  0.008  0.009
   35  0.000  0.000  0.010  0.010
   36  0.000  0.000  0.002  0.002
   37  0.000  0.000  0.000  0.000
   38  0.000  0.000  0.000  0.000
   39  0.000  0.000  0.000  0.000