PROCAR new format
# of k-points:   10         # of bands:  252         # of ions:   37

 k-point     1 :    0.00000000 0.00000000 0.00000000     weight = 0.01562500

band     1 # energy  -48.34721673 # occ.  2.00000000
 
ion      s      p      d    tot
    1  0.000  0.000  0.000  0.000
    2  0.000  0.000  0.000  0.000
    3  0.000  0.000  0.000  0.000
    4  0.000  0.000  0.000  0.000
    5  0.000  0.000  0.000  0.000
    6  0.000  0.000  0.000  0.000
    7  0.000  0.000  0.000  0.000
    8  0.000  0.000  0.000  0.000
    9  0.000  0.000  0.000  0.000
   10  0.000  0.000  0.000  0.000
   11  0.000  0.000  0.000  0.000
   12  0.000  0.000  0.000  0.000
   13  0.000  0.000  0.000  0.000
   14  0.000  0.000  0.000  0.000
   15  0.000  0.000  0.000  0.000
   16  0.000  0.000  0.000  0.000
   17  0.000  0.000  0.000  0.000
   18  0.000  0.000  0.000  0.000
   19  0.000  0.000  0.000  0.000
   20  0.000  0.000  0.000  0.000
   21  0.000  0.000  0.000  0.000
   22  0.000  0.000  0.000  0.000
   23  0.000  0.000  0.000  0.000
   24  0.000  0.000  0.000  0.000
   25  0.000  0.000  0.000  0.000
   26  0.000  0.000  0.000  0.000
   27  0.000  0.000  0.000  0.000
   28  0.000  0.000  0.000  0.000
   29  0.000  0.000  0.000  0.000
   30  0.000  0.000  0.000  0.000
   31  0.000  0.000  0.000  0.000
   32  0.000  0.000  0.000  0.000
   33  0.000  0.000  0.000  0.000
   34  0.000  0.000  0.000  0.000
   35  0.000  0.000  0.000  0.000
   36  0.992  0.000  0.000  0.992
   37  0.000  0.000  0.000  0.001
tot    0.992  0.001  0.000  0.993
 
band     2 # energy  -26.62109550 # occ.  2.00000000
 
ion      s      p      d    tot
    1  0.000  0.000  0.000  0.000
    2  0.000  0.000  0.000  0.000
    3  0.000  0.000  0.000  0.000
    4  0.000  0.000  0.000  0.000
    5  0.000  0.000  0.000  0.000
    6  0.000  0.000  0.000  0.000
    7  0.000  0.000  0.000  0.000
    8  0.000  0.000  0.000  0.000
    9  0.000  0.000  0.000  0.000
   10  0.000  0.000  0.000  0.000
   11  0.000  0.000  0.000  0.000
   12  0.000  0.000  0.000  0.000
   13  0.000  0.000  0.000  0.000
   14  0.000  0.000  0.000  0.000
   15  0.000  0.000  0.000  0.000
   16  0.000  0.000  0.000  0.000
   17  0.000  0.000  0.000  0.000
   18  0.000  0.000  0.000  0.000
   19  0.000  0.000  0.000  0.000
   20  0.000  0.000  0.000  0.000
   21  0.000  0.000  0.000  0.000
   22  0.000  0.000  0.000  0.000
   23  0.000  0.000  0.000  0.000
   24  0.000  0.000  0.000  0.000
   25  0.000  0.000  0.000  0.000
   26  0.000  0.000  0.000  0.000
   27  0.000  0.000  0.000  0.000
   28  0.000  0.000  0.000  0.000
   29  0.000  0.000  0.000  0.000
   30  0.000  0.001  0.000  0.001
   31  0.000  0.000  0.000  0.000
   32  0.000  0.000  0.000  0.000
   33  0.000  0.001  0.000  0.001
   34  0.000  0.000  0.000  0.000
   35  0.000  0.000  0.000  0.000
   36  0.000  0.967  0.000  0.967
   37  0.000  0.000  0.000  0.000
tot    0.001  0.969  0.001  0.971
 
band     3 # energy  -26.62108628 # occ.  2.00000000
 
ion      s      p      d    tot
    1  0.000  0.000  0.000  0.000
    2  0.000  0.000  0.000  0.000
    3  0.000  0.000  0.000  0.000
    4  0.000  0.000  0.000  0.000
    5  0.000  0.000  0.000  0.000
    6  0.000  0.000  0.000  0.000
    7  0.000  0.000  0.000  0.000
    8  0.000  0.000  0.000  0.000
    9  0.000  0.000  0.000  0.000
   10  0.000  0.000  0.000  0.000
   11  0.000  0.000  0.000  0.000
   12  0.000  0.000  0.000  0.000
   13  0.000  0.000  0.000  0.000
   14  0.000  0.000  0.000  0.000
   15  0.000  0.000  0.000  0.000
   16  0.000  0.000  0.000  0.000
   17  0.000  0.000  0.000  0.000
   18  0.000  0.000  0.000  0.000
   19  0.000  0.000  0.000  0.000
   20  0.000  0.000  0.000  0.000
   21  0.000  0.000  0.000  0.000
   22  0.000  0.000  0.000  0.000
   23  0.000  0.000  0.000  0.000
   24  0.000  0.000  0.000  0.000
   25  0.000  0.000  0.000  0.000
   26  0.000  0.000  0.000  0.000
   27  0.000  0.000  0.000  0.000
   28  0.000  0.000  0.000  0.000
   29  0.000  0.000  0.000  0.001
   30  0.000  0.000  0.000  0.000
   31  0.000  0.000  0.000  0.001
   32  0.000  0.000  0.000  0.001
   33  0.000  0.000  0.000  0.000
   34  0.000  0.000  0.000  0.001
   35  0.000  0.000  0.000  0.000
   36  0.000  0.967  0.000  0.967
   37  0.000  0.000  0.000  0.000
tot    0.001  0.969  0.001  0.971
 
band     4 # energy  -26.54860959 # occ.  2.00000000
 
ion      s      p      d    tot
    1  0.000  0.000  0.000  0.000
    2  0.000  0.000  0.000  0.000
    3  0.000  0.000  0.000  0.000
    4  0.000  0.000  0.000  0.000
    5  0.000  0.000  0.000  0.000
    6  0.000  0.000  0.000  0.000
    7  0.000  0.000  0.000  0.000
    8  0.000  0.000  0.000  0.000
    9  0.000  0.000  0.000  0.000
   10  0.000  0.000  0.000  0.000
   11  0.000  0.000  0.000  0.000
   12  0.000  0.000  0.000  0.000
   13  0.000  0.000  0.000  0.000
   14  0.000  0.000  0.000  0.000
   15  0.000  0.000  0.000  0.000
   16  0.000  0.000  0.000  0.000
   17  0.000  0.000  0.000  0.000
   18  0.000  0.000  0.000  0.000
   19  0.000  0.000  0.000  0.000
   20  0.000  0.000  0.000  0.000
   21  0.000  0.000  0.000  0.000
   22  0.000  0.000  0.000  0.000
   23  0.000  0.000  0.000  0.000
   24  0.000  0.000  0.000  0.000
   25  0.000  0.000  0.000  0.000
   26  0.000  0.000  0.000  0.000
   27  0.000  0.000  0.000  0.000
   28  0.000  0.000  0.000  0.000
   29  0.000  0.000  0.000  0.000
   30  0.000  0.000  0.000  0.000
   31  0.000  0.000  0.000  0.000
   32  0.000  0.000  0.000  0.000
   33  0.000  0.000  0.000  0.000
   34  0.000  0.000  0.000  0.000
   35  0.000  0.000  0.000  0.000
   36  0.000  0.951  0.001  0.952
   37  0.008  0.007  0.000  0.015
tot    0.009  0.959  0.001  0.969
 
band     5 # energy   -9.39158207 # occ.  2.00000000
 
ion      s      p      d    tot
    1  0.007  0.001  0.000  0.007
    2  0.007  0.001  0.000  0.007
    3  0.007  0.001  0.000  0.007
    4  0.007  0.001  0.000  0.007
    5  0.007  0.001  0.000  0.007
    6  0.007  0.001  0.000  0.007
    7  0.007  0.001  0.000  0.007
    8  0.007  0.001  0.000  0.007
    9  0.007  0.001  0.000  0.007
   10  0.025  0.000  0.000  0.025
   11  0.024  0.000  0.000  0.024
   12  0.025  0.000  0.000  0.025
   13  0.024  0.000  0.000  0.024
   14  0.024  0.000  0.000  0.024
   15  0.025  0.000  0.000  0.025
   16  0.025  0.000  0.000  0.025
   17  0.025  0.000  0.000  0.025
   18  0.025  0.000  0.000  0.025
   19  0.025  0.000  0.000  0.026
   20  0.023  0.000  0.000  0.023
   21  0.023  0.000  0.000  0.023
   22  0.024  0.000  0.000  0.025
   23  0.023  0.000  0.000  0.023
   24  0.024  0.000  0.000  0.025
   25  0.025  0.000  0.000  0.026
   26  0.025  0.000  0.000  0.026
   27  0.024  0.000  0.000  0.025
   28  0.007  0.001  0.000  0.008
   29  0.007  0.001  0.000  0.007
   30  0.007  0.001  0.000  0.007
   31  0.007  0.001  0.000  0.007
   32  0.007  0.001  0.000  0.007
   33  0.007  0.001  0.000  0.007
   34  0.007  0.001  0.000  0.007
   35  0.007  0.001  0.000  0.008
   36  0.004  0.000  0.001  0.004
   37  0.005  0.000  0.000  0.005
tot    0.561  0.016  0.002  0.578
 
band     6 # energy   -8.28007499 # occ.  2.00000000
 
ion      s      p      d    tot
    1  0.008  0.000  0.000  0.008
    2  0.008  0.000  0.000  0.008
    3  0.008  0.000  0.000  0.008
    4  0.008  0.000  0.000  0.008
    5  0.007  0.000  0.000  0.008
    6  0.008  0.000  0.000  0.008
    7  0.008  0.000  0.000  0.008
    8  0.008  0.000  0.000  0.008
    9  0.008  0.000  0.000  0.008
   10  0.006  0.001  0.000  0.007
   11  0.006  0.001  0.000  0.007
   12  0.006  0.001  0.000  0.007
   13  0.006  0.001  0.000  0.007
   14  0.006  0.001  0.000  0.007
   15  0.006  0.001  0.000  0.007
   16  0.006  0.001  0.000  0.007
   17  0.006  0.001  0.000  0.007
   18  0.006  0.001  0.000  0.007
   19  0.002  0.001  0.000  0.003
   20  0.004  0.002  0.000  0.006
   21  0.004  0.002  0.000  0.006
   22  0.002  0.001  0.000  0.003
   23  0.004  0.002  0.000  0.006
   24  0.002  0.001  0.000  0.003
   25  0.002  0.001  0.000  0.003
   26  0.002  0.001  0.000  0.003
   27  0.002  0.001  0.000  0.003
   28  0.006  0.000  0.000  0.006
   29  0.007  0.000  0.000  0.008
   30  0.007  0.000  0.000  0.008
   31  0.007  0.000  0.000  0.008
   32  0.007  0.000  0.000  0.008
   33  0.007  0.000  0.000  0.008
   34  0.007  0.000  0.000  0.008
   35  0.006  0.000  0.000  0.006
   36  0.031  0.011  0.038  0.080
   37  0.279  0.003  0.000  0.282
tot    0.511  0.036  0.044  0.592
 
band     7 # energy   -7.94250780 # occ.  2.00000000
 
ion      s      p      d    tot
    1  0.011  0.000  0.000  0.011
    2  0.011  0.000  0.000  0.012
    3  0.011  0.000  0.000  0.012
    4  0.011  0.000  0.000  0.012
    5  0.011  0.000  0.000  0.012
    6  0.011  0.000  0.000  0.012
    7  0.011  0.000  0.000  0.012
    8  0.011  0.000  0.000  0.012
    9  0.010  0.000  0.000  0.011
   10  0.004  0.002  0.000  0.006
   11  0.005  0.001  0.000  0.007
   12  0.004  0.002  0.000  0.006
   13  0.005  0.001  0.000  0.007
   14  0.005  0.001  0.000  0.007
   15  0.003  0.002  0.000  0.006
   16  0.004  0.002  0.000  0.006
   17  0.003  0.002  0.000  0.006
   18  0.003  0.002  0.000  0.006
   19  0.012  0.001  0.000  0.014
   20  0.004  0.001  0.002  0.006
   21  0.004  0.001  0.002  0.006
   22  0.010  0.001  0.000  0.012
   23  0.004  0.001  0.002  0.006
   24  0.010  0.001  0.000  0.012
   25  0.012  0.001  0.000  0.014
   26  0.012  0.001  0.000  0.014
   27  0.010  0.001  0.000  0.012
   28  0.016  0.001  0.000  0.017
   29  0.011  0.001  0.001  0.012
   30  0.011  0.001  0.001  0.012
   31  0.011  0.001  0.001  0.012
   32  0.011  0.001  0.001  0.012
   33  0.011  0.001  0.001  0.012
   34  0.011  0.001  0.001  0.012
   35  0.015  0.001  0.000  0.017
   36  0.003  0.014  0.036  0.053
   37  0.189  0.001  0.000  0.190
tot    0.500  0.052  0.053  0.605
 
band     8 # energy   -6.48981351 # occ.  2.00000000
 
ion      s      p      d    tot
    1  0.017  0.000  0.006  0.023
    2  0.015  0.000  0.006  0.021
    3  0.015  0.000  0.006  0.021
    4  0.015  0.000  0.006  0.021
    5  0.007  0.000  0.007  0.014
    6  0.015  0.000  0.006  0.021
    7  0.015  0.000  0.006  0.021
    8  0.015  0.000  0.006  0.021
    9  0.023  0.000  0.004  0.027
   10  0.002  0.003  0.003  0.009
   11  0.011  0.005  0.001  0.017
   12  0.002  0.003  0.003  0.009
   13  0.011  0.005  0.001  0.017
   14  0.011  0.005  0.001  0.017
   15  0.000  0.003  0.004  0.007
   16  0.002  0.003  0.003  0.009
   17  0.000  0.003  0.004  0.007
   18  0.000  0.003  0.004  0.007
   19  0.001  0.003  0.005  0.009
   20  0.017  0.004  0.002  0.023
   21  0.017  0.004  0.002  0.023
   22  0.001  0.004  0.004  0.009
   23  0.017  0.004  0.002  0.023
   24  0.001  0.004  0.004  0.009
   25  0.001  0.003  0.005  0.009
   26  0.001  0.003  0.005  0.009
   27  0.001  0.004  0.004  0.009
   28  0.024  0.000  0.006  0.030
   29  0.016  0.001  0.008  0.025
   30  0.016  0.001  0.008  0.025
   31  0.016  0.001  0.008  0.025
   32  0.016  0.001  0.008  0.025
   33  0.016  0.001  0.008  0.025
   34  0.016  0.001  0.008  0.025
   35  0.027  0.000  0.006  0.033
   36  0.002  0.000  0.007  0.009
   37  0.000  0.000  0.000  0.000
tot    0.385  0.069  0.172  0.627
 
band     9 # energy   -6.42884643 # occ.  2.00000000
 
ion      s      p      d    tot
    1  0.000  0.002  0.003  0.006
    2  0.004  0.001  0.002  0.007
    3  0.009  0.002  0.002  0.013
    4  0.003  0.001  0.002  0.006
    5  0.000  0.000  0.002  0.002
    6  0.001  0.001  0.002  0.004
    7  0.009  0.002  0.002  0.013
    8  0.001  0.001  0.002  0.004
    9  0.000  0.002  0.005  0.007
   10  0.028  0.000  0.006  0.035
   11  0.001  0.005  0.007  0.012
   12  0.007  0.009  0.004  0.021
   13  0.001  0.005  0.006  0.012
   14  0.004  0.002  0.003  0.010
   15  0.012  0.002  0.012  0.026
   16  0.006  0.010  0.004  0.020
   17  0.015  0.002  0.012  0.028
   18  0.054  0.004  0.003  0.062
   19  0.015  0.003  0.013  0.031
   20  0.008  0.003  0.003  0.014
   21  0.002  0.004  0.008  0.015
   22  0.007  0.010  0.003  0.020
   23  0.002  0.005  0.008  0.015
   24  0.026  0.000  0.007  0.033
   25  0.064  0.004  0.004  0.073
   26  0.018  0.003  0.013  0.034
   27  0.006  0.011  0.003  0.019
   28  0.000  0.004  0.007  0.011
   29  0.003  0.002  0.003  0.008
   30  0.015  0.003  0.004  0.022
   31  0.003  0.001  0.003  0.007
   32  0.004  0.002  0.003  0.009
   33  0.015  0.003  0.004  0.022
   34  0.005  0.002  0.003  0.010
   35  0.000  0.003  0.004  0.007
   36  0.000  0.000  0.003  0.003
   37  0.000  0.000  0.000  0.000
tot    0.348  0.115  0.177  0.640
 
band    10 # energy   -6.42880060 # occ.  2.00000000
 
ion      s      p      d    tot
    1  0.000  0.002  0.003  0.006
    2  0.005  0.002  0.002  0.009
    3  0.000  0.001  0.002  0.003
    4  0.006  0.002  0.002  0.009
    5  0.000  0.000  0.002  0.002
    6  0.008  0.002  0.002  0.012
    7  0.000  0.001  0.002  0.003
    8  0.007  0.002  0.002  0.012
    9  0.000  0.002  0.005  0.007
   10  0.000  0.012  0.003  0.016
   11  0.003  0.003  0.004  0.011
   12  0.020  0.004  0.006  0.029
   13  0.003  0.003  0.004  0.011
   14  0.000  0.005  0.008  0.013
   15  0.042  0.004  0.006  0.051
   16  0.021  0.003  0.006  0.030
   17  0.039  0.004  0.006  0.049
   18  0.000  0.001  0.015  0.016
   19  0.050  0.004  0.007  0.061
   20  0.000  0.005  0.010  0.015
   21  0.005  0.004  0.005  0.014
   22  0.019  0.004  0.005  0.028
   23  0.006  0.003  0.005  0.014
   24  0.000  0.014  0.002  0.015
   25  0.000  0.002  0.016  0.018
   26  0.047  0.004  0.007  0.058
   27  0.020  0.003  0.006  0.029
   28  0.000  0.004  0.007  0.011
   29  0.011  0.003  0.004  0.018
   30  0.000  0.001  0.003  0.004
   31  0.012  0.003  0.004  0.019
   32  0.011  0.003  0.004  0.017
   33  0.000  0.001  0.003  0.004
   34  0.010  0.002  0.004  0.016
   35  0.000  0.003  0.004  0.007
   36  0.000  0.000  0.003  0.003
   37  0.000  0.000  0.000  0.000
tot    0.348  0.115  0.177  0.640
 
band    11 # energy   -6.41638196 # occ.  2.00000000
 
ion      s      p      d    tot
    1  0.018  0.003  0.001  0.022
    2  0.000  0.002  0.004  0.005
    3  0.000  0.002  0.004  0.005
    4  0.000  0.002  0.004  0.005
    5  0.001  0.000  0.000  0.002
    6  0.000  0.002  0.004  0.005
    7  0.000  0.002  0.004  0.005
    8  0.000  0.002  0.004  0.005
    9  0.010  0.001  0.000  0.011
   10  0.030  0.006  0.006  0.041
   11  0.004  0.000  0.011  0.016
   12  0.030  0.006  0.006  0.042
   13  0.004  0.000  0.011  0.016
   14  0.004  0.000  0.011  0.016
   15  0.011  0.008  0.003  0.023
   16  0.030  0.006  0.006  0.042
   17  0.011  0.008  0.003  0.023
   18  0.011  0.008  0.003  0.022
   19  0.023  0.010  0.002  0.035
   20  0.000  0.002  0.010  0.012
   21  0.000  0.002  0.010  0.012
   22  0.025  0.002  0.009  0.036
   23  0.000  0.002  0.010  0.012
   24  0.025  0.002  0.009  0.036
   25  0.024  0.010  0.002  0.036
   26  0.023  0.010  0.002  0.035
   27  0.025  0.002  0.009  0.036
   28  0.018  0.003  0.001  0.021
   29  0.000  0.002  0.005  0.007
   30  0.000  0.002  0.005  0.007
   31  0.000  0.002  0.005  0.007
   32  0.000  0.002  0.005  0.007
   33  0.000  0.002  0.005  0.007
   34  0.000  0.002  0.005  0.007
   35  0.016  0.002  0.001  0.019
   36  0.000  0.000  0.000  0.000
   37  0.000  0.000  0.000  0.000
tot    0.346  0.115  0.179  0.641
 
band    12 # energy   -6.37138432 # occ.  2.00000000
 
ion      s      p      d    tot
    1  0.000  0.001  0.005  0.005
    2  0.004  0.002  0.003  0.009
    3  0.011  0.003  0.003  0.016
    4  0.003  0.001  0.002  0.007
    5  0.000  0.004  0.006  0.009
    6  0.001  0.001  0.002  0.005
    7  0.010  0.003  0.003  0.016
    8  0.002  0.001  0.002  0.005
    9  0.000  0.001  0.003  0.003
   10  0.000  0.001  0.017  0.017
   11  0.046  0.004  0.006  0.056
   12  0.024  0.003  0.006  0.033
   13  0.041  0.004  0.007  0.052
   14  0.000  0.008  0.010  0.017
   15  0.003  0.003  0.005  0.011
   16  0.027  0.004  0.005  0.035
   17  0.002  0.004  0.005  0.012
   18  0.000  0.013  0.002  0.015
   19  0.001  0.003  0.005  0.010
   20  0.000  0.008  0.009  0.017
   21  0.037  0.004  0.007  0.048
   22  0.027  0.003  0.006  0.036
   23  0.042  0.004  0.006  0.052
   24  0.000  0.000  0.016  0.017
   25  0.000  0.012  0.003  0.015
   26  0.001  0.004  0.005  0.010
   27  0.030  0.004  0.005  0.039
   28  0.000  0.001  0.003  0.003
   29  0.002  0.001  0.002  0.006
   30  0.009  0.002  0.003  0.015
   31  0.002  0.001  0.002  0.005
   32  0.002  0.001  0.003  0.006
   33  0.009  0.003  0.003  0.015
   34  0.003  0.001  0.003  0.007
   35  0.000  0.001  0.005  0.006
   36  0.000  0.001  0.003  0.005
   37  0.000  0.000  0.000  0.000
tot    0.342  0.114  0.181  0.636
 
band    13 # energy   -6.37134578 # occ.  2.00000000
 
ion      s      p      d    tot
    1  0.000  0.001  0.005  0.005
    2  0.006  0.002  0.002  0.011
    3  0.000  0.001  0.002  0.003
    4  0.007  0.002  0.002  0.012
    5  0.000  0.004  0.006  0.009
    6  0.009  0.002  0.003  0.015
    7  0.000  0.001  0.002  0.004
    8  0.009  0.002  0.003  0.014
    9  0.000  0.001  0.003  0.003
   10  0.033  0.005  0.002  0.040
   11  0.012  0.007  0.009  0.028
   12  0.010  0.002  0.012  0.024
   13  0.017  0.006  0.009  0.032
   14  0.058  0.003  0.006  0.066
   15  0.001  0.010  0.003  0.014
   16  0.007  0.001  0.014  0.022
   17  0.001  0.009  0.003  0.014
   18  0.004  0.001  0.006  0.010
   19  0.000  0.009  0.004  0.013
   20  0.053  0.002  0.006  0.061
   21  0.016  0.007  0.008  0.030
   22  0.011  0.002  0.012  0.025
   23  0.011  0.007  0.008  0.026
   24  0.038  0.005  0.002  0.045
   25  0.002  0.001  0.006  0.008
   26  0.001  0.009  0.004  0.013
   27  0.008  0.001  0.014  0.023
   28  0.000  0.001  0.003  0.003
   29  0.007  0.002  0.003  0.012
   30  0.000  0.001  0.002  0.003
   31  0.008  0.002  0.003  0.013
   32  0.007  0.002  0.003  0.012
   33  0.000  0.001  0.002  0.003
   34  0.006  0.002  0.003  0.011
   35  0.000  0.001  0.005  0.006
   36  0.000  0.001  0.003  0.005
   37  0.000  0.000  0.000  0.000
tot    0.342  0.114  0.181  0.636
 
band    14 # energy   -6.26713266 # occ.  2.00000000
 
ion      s      p      d    tot
    1  0.000  0.000  0.001  0.001
    2  0.002  0.002  0.006  0.010
    3  0.002  0.002  0.006  0.010
    4  0.002  0.002  0.006  0.010
    5  0.041  0.004  0.000  0.045
    6  0.002  0.002  0.006  0.010
    7  0.002  0.002  0.006  0.010
    8  0.002  0.002  0.006  0.010
    9  0.005  0.003  0.004  0.012
   10  0.003  0.004  0.009  0.017
   11  0.022  0.010  0.004  0.035
   12  0.003  0.004  0.009  0.017
   13  0.022  0.010  0.004  0.035
   14  0.022  0.010  0.004  0.035
   15  0.029  0.002  0.012  0.043
   16  0.003  0.004  0.009  0.017
   17  0.029  0.002  0.012  0.043
   18  0.029  0.002  0.012  0.043
   19  0.006  0.002  0.009  0.017
   20  0.018  0.004  0.007  0.028
   21  0.018  0.004  0.007  0.028
   22  0.006  0.006  0.005  0.018
   23  0.018  0.004  0.007  0.028
   24  0.006  0.006  0.005  0.018
   25  0.006  0.002  0.009  0.017
   26  0.006  0.002  0.009  0.017
   27  0.006  0.006  0.005  0.018
   28  0.001  0.000  0.003  0.004
   29  0.002  0.000  0.003  0.005
   30  0.002  0.000  0.003  0.005
   31  0.002  0.000  0.003  0.005
   32  0.002  0.000  0.003  0.005
   33  0.002  0.000  0.003  0.005
   34  0.002  0.000  0.003  0.005
   35  0.000  0.000  0.002  0.002
   36  0.003  0.002  0.001  0.005
   37  0.005  0.000  0.000  0.005
tot    0.334  0.107  0.204  0.644
 
band    15 # energy   -5.68987500 # occ.  2.00000000
 
ion      s      p      d    tot
    1  0.000  0.004  0.010  0.015
    2  0.005  0.002  0.005  0.012
    3  0.021  0.004  0.005  0.030
    4  0.005  0.002  0.005  0.012
    5  0.000  0.000  0.011  0.011
    6  0.006  0.002  0.005  0.013
    7  0.021  0.004  0.005  0.030
    8  0.006  0.002  0.005  0.013
    9  0.000  0.005  0.009  0.013
   10  0.012  0.001  0.006  0.020
   11  0.001  0.003  0.013  0.016
   12  0.003  0.003  0.016  0.023
   13  0.001  0.003  0.012  0.016
   14  0.003  0.001  0.008  0.012
   15  0.006  0.001  0.018  0.026
   16  0.003  0.003  0.016  0.023
   17  0.007  0.001  0.018  0.026
   18  0.026  0.005  0.005  0.037
   19  0.003  0.002  0.014  0.019
   20  0.001  0.001  0.009  0.011
   21  0.000  0.002  0.012  0.014
   22  0.002  0.002  0.023  0.027
   23  0.000  0.002  0.012  0.014
   24  0.007  0.002  0.003  0.013
   25  0.014  0.007  0.009  0.030
   26  0.004  0.002  0.014  0.019
   27  0.002  0.002  0.024  0.028
   28  0.000  0.005  0.008  0.013
   29  0.007  0.002  0.007  0.016
   30  0.026  0.004  0.010  0.040
   31  0.007  0.002  0.007  0.016
   32  0.006  0.002  0.007  0.016
   33  0.026  0.004  0.010  0.040
   34  0.007  0.002  0.007  0.016
   35  0.000  0.005  0.012  0.017
   36  0.000  0.000  0.008  0.008
   37  0.000  0.000  0.000  0.000
tot    0.237  0.095  0.368  0.700
 
band    16 # energy   -5.68982617 # occ.  2.00000000
 
ion      s      p      d    tot
    1  0.000  0.004  0.010  0.015
    2  0.016  0.003  0.005  0.025
    3  0.000  0.002  0.005  0.007
    4  0.016  0.003  0.005  0.025
    5  0.000  0.000  0.011  0.011
    6  0.015  0.003  0.005  0.024
    7  0.000  0.002  0.005  0.007
    8  0.015  0.003  0.005  0.024
    9  0.000  0.005  0.009  0.013
   10  0.000  0.004  0.020  0.024
   11  0.002  0.002  0.009  0.013
   12  0.009  0.002  0.010  0.021
   13  0.002  0.002  0.009  0.013
   14  0.000  0.003  0.014  0.017
   15  0.020  0.004  0.009  0.033
   16  0.009  0.002  0.009  0.021
   17  0.020  0.004  0.010  0.033
   18  0.000  0.000  0.022  0.022
   19  0.010  0.005  0.011  0.026
   20  0.000  0.002  0.013  0.015
   21  0.001  0.001  0.010  0.012
   22  0.005  0.002  0.010  0.018
   23  0.001  0.001  0.010  0.012
   24  0.000  0.002  0.030  0.032
   25  0.000  0.000  0.016  0.016
   26  0.010  0.005  0.011  0.026
   27  0.005  0.002  0.010  0.018
   28  0.000  0.005  0.008  0.013
   29  0.019  0.003  0.009  0.031
   30  0.000  0.002  0.006  0.008
   31  0.020  0.003  0.009  0.032
   32  0.020  0.003  0.009  0.032
   33  0.000  0.002  0.006  0.008
   34  0.020  0.003  0.009  0.032
   35  0.000  0.005  0.011  0.017
   36  0.000  0.000  0.008  0.008
   37  0.000  0.000  0.000  0.000
tot    0.237  0.095  0.368  0.700
 
band    17 # energy   -5.65752833 # occ.  2.00000000
 
ion      s      p      d    tot
    1  0.001  0.002  0.008  0.011
    2  0.003  0.002  0.010  0.014
    3  0.003  0.002  0.010  0.014
    4  0.003  0.002  0.010  0.014
    5  0.000  0.001  0.005  0.006
    6  0.003  0.002  0.010  0.014
    7  0.003  0.002  0.010  0.014
    8  0.003  0.002  0.010  0.014
    9  0.034  0.001  0.003  0.038
   10  0.015  0.001  0.019  0.035
   11  0.005  0.000  0.017  0.022
   12  0.015  0.001  0.019  0.035
   13  0.005  0.000  0.017  0.022
   14  0.005  0.000  0.017  0.022
   15  0.000  0.002  0.021  0.023
   16  0.015  0.001  0.019  0.035
   17  0.000  0.002  0.021  0.023
   18  0.000  0.002  0.021  0.023
   19  0.008  0.001  0.019  0.029
   20  0.009  0.000  0.019  0.028
   21  0.009  0.000  0.019  0.028
   22  0.000  0.002  0.018  0.020
   23  0.009  0.000  0.019  0.028
   24  0.000  0.002  0.018  0.020
   25  0.008  0.001  0.019  0.029
   26  0.008  0.001  0.019  0.029
   27  0.000  0.002  0.018  0.020
   28  0.003  0.002  0.005  0.010
   29  0.002  0.002  0.011  0.015
   30  0.002  0.002  0.011  0.015
   31  0.002  0.002  0.011  0.015
   32  0.002  0.002  0.011  0.015
   33  0.002  0.002  0.011  0.015
   34  0.002  0.002  0.011  0.015
   35  0.033  0.001  0.004  0.037
   36  0.000  0.000  0.003  0.003
   37  0.000  0.000  0.000  0.000
tot    0.212  0.045  0.490  0.748
 
band    18 # energy   -5.65491904 # occ.  2.00000000
 
ion      s      p      d    tot
    1  0.037  0.001  0.001  0.040
    2  0.002  0.002  0.010  0.014
    3  0.002  0.002  0.010  0.014
    4  0.002  0.002  0.010  0.014
    5  0.001  0.000  0.005  0.006
    6  0.002  0.002  0.010  0.014
    7  0.002  0.002  0.010  0.014
    8  0.002  0.002  0.010  0.014
    9  0.007  0.003  0.005  0.015
   10  0.001  0.002  0.016  0.019
   11  0.007  0.000  0.018  0.025
   12  0.001  0.002  0.016  0.019
   13  0.007  0.000  0.018  0.025
   14  0.007  0.000  0.018  0.025
   15  0.011  0.002  0.017  0.030
   16  0.001  0.002  0.016  0.019
   17  0.011  0.002  0.017  0.030
   18  0.011  0.002  0.017  0.030
   19  0.000  0.002  0.023  0.025
   20  0.002  0.000  0.015  0.017
   21  0.002  0.000  0.015  0.017
   22  0.014  0.002  0.013  0.029
   23  0.002  0.000  0.015  0.017
   24  0.014  0.002  0.013  0.029
   25  0.000  0.002  0.023  0.025
   26  0.000  0.002  0.023  0.025
   27  0.014  0.002  0.013  0.029
   28  0.039  0.001  0.002  0.042
   29  0.001  0.002  0.012  0.016
   30  0.001  0.002  0.012  0.016
   31  0.001  0.002  0.012  0.016
   32  0.001  0.002  0.012  0.016
   33  0.001  0.002  0.012  0.016
   34  0.001  0.002  0.012  0.016
   35  0.008  0.003  0.004  0.015
   36  0.000  0.000  0.001  0.002
   37  0.000  0.000  0.000  0.000
tot    0.216  0.062  0.455  0.733
 
band    19 # energy   -5.61100483 # occ.  2.00000000
 
ion      s      p      d    tot
    1  0.000  0.002  0.010  0.011
    2  0.005  0.002  0.005  0.012
    3  0.021  0.004  0.005  0.030
    4  0.003  0.002  0.005  0.011
    5  0.000  0.006  0.009  0.015
    6  0.005  0.002  0.005  0.013
    7  0.021  0.004  0.005  0.030
    8  0.007  0.002  0.005  0.015
    9  0.000  0.001  0.012  0.014
   10  0.000  0.001  0.015  0.016
   11  0.015  0.004  0.009  0.028
   12  0.008  0.003  0.011  0.022
   13  0.013  0.004  0.011  0.028
   14  0.000  0.001  0.027  0.028
   15  0.001  0.001  0.010  0.012
   16  0.009  0.003  0.011  0.023
   17  0.001  0.001  0.011  0.013
   18  0.000  0.003  0.020  0.024
   19  0.001  0.001  0.011  0.013
   20  0.000  0.001  0.026  0.028
   21  0.015  0.004  0.012  0.031
   22  0.008  0.003  0.011  0.022
   23  0.017  0.004  0.010  0.031
   24  0.000  0.001  0.016  0.017
   25  0.000  0.004  0.022  0.026
   26  0.001  0.001  0.012  0.015
   27  0.009  0.003  0.011  0.023
   28  0.000  0.002  0.015  0.017
   29  0.006  0.002  0.006  0.014
   30  0.020  0.004  0.008  0.032
   31  0.004  0.002  0.006  0.012
   32  0.004  0.002  0.007  0.013
   33  0.020  0.004  0.008  0.032
   34  0.006  0.002  0.007  0.015
   35  0.000  0.002  0.012  0.013
   36  0.000  0.002  0.005  0.007
   37  0.000  0.000  0.000  0.000
tot    0.222  0.089  0.395  0.705
 
band    20 # energy   -5.61098706 # occ.  2.00000000
 
ion      s      p      d    tot
    1  0.000  0.002  0.010  0.011
    2  0.016  0.003  0.005  0.024
    3  0.000  0.002  0.005  0.007
    4  0.017  0.003  0.005  0.026
    5  0.000  0.006  0.009  0.015
    6  0.016  0.003  0.005  0.024
    7  0.000  0.002  0.005  0.007
    8  0.014  0.003  0.005  0.022
    9  0.000  0.001  0.012  0.014
   10  0.011  0.004  0.009  0.025
   11  0.004  0.002  0.022  0.028
   12  0.003  0.002  0.013  0.018
   13  0.005  0.002  0.021  0.028
   14  0.019  0.005  0.005  0.028
   15  0.000  0.003  0.018  0.021
   16  0.002  0.001  0.014  0.018
   17  0.000  0.002  0.017  0.019
   18  0.001  0.000  0.008  0.009
   19  0.000  0.003  0.019  0.023
   20  0.021  0.005  0.006  0.032
   21  0.006  0.002  0.020  0.029
   22  0.003  0.002  0.014  0.019
   23  0.005  0.002  0.022  0.029
   24  0.011  0.004  0.009  0.024
   25  0.002  0.000  0.008  0.010
   26  0.001  0.003  0.018  0.021
   27  0.002  0.001  0.015  0.018
   28  0.000  0.002  0.015  0.017
   29  0.014  0.003  0.008  0.025
   30  0.000  0.001  0.006  0.008
   31  0.016  0.003  0.008  0.027
   32  0.016  0.003  0.007  0.027
   33  0.000  0.001  0.006  0.008
   34  0.014  0.003  0.007  0.025
   35  0.000  0.002  0.012  0.013
   36  0.000  0.002  0.005  0.007
   37  0.000  0.000  0.000  0.000
tot    0.222  0.089  0.395  0.705
 
band    21 # energy   -5.40327347 # occ.  2.00000000
 
ion      s      p      d    tot
    1  0.020  0.002  0.000  0.022
    2  0.000  0.003  0.013  0.015
    3  0.000  0.003  0.013  0.015
    4  0.000  0.003  0.013  0.015
    5  0.043  0.003  0.000  0.047
    6  0.000  0.003  0.013  0.015
    7  0.000  0.003  0.013  0.015
    8  0.000  0.003  0.013  0.015
    9  0.002  0.000  0.000  0.003
   10  0.001  0.002  0.033  0.036
   11  0.003  0.004  0.023  0.030
   12  0.001  0.002  0.033  0.036
   13  0.003  0.004  0.023  0.030
   14  0.003  0.004  0.023  0.030
   15  0.002  0.001  0.008  0.011
   16  0.001  0.002  0.033  0.036
   17  0.002  0.001  0.008  0.011
   18  0.002  0.001  0.008  0.011
   19  0.011  0.001  0.029  0.041
   20  0.013  0.003  0.002  0.018
   21  0.013  0.003  0.002  0.018
   22  0.002  0.002  0.018  0.021
   23  0.013  0.003  0.002  0.018
   24  0.002  0.002  0.018  0.021
   25  0.011  0.001  0.029  0.041
   26  0.011  0.001  0.029  0.041
   27  0.002  0.002  0.018  0.021
   28  0.001  0.001  0.008  0.010
   29  0.001  0.001  0.009  0.012
   30  0.001  0.001  0.009  0.012
   31  0.001  0.001  0.009  0.012
   32  0.001  0.001  0.009  0.012
   33  0.001  0.001  0.009  0.012
   34  0.001  0.001  0.009  0.012
   35  0.001  0.001  0.002  0.004
   36  0.006  0.003  0.000  0.009