PROCAR new format
# of k-points:   10         # of bands:  252         # of ions:   36

 k-point     1 :    0.00000000 0.00000000 0.00000000     weight = 0.01562500

band     1 # energy   -8.59354526 # occ.  2.00000000
 
ion      s      p      d    tot
    1  0.006  0.001  0.000  0.007
    2  0.006  0.001  0.000  0.007
    3  0.006  0.001  0.000  0.007
    4  0.006  0.001  0.000  0.007
    5  0.006  0.001  0.000  0.007
    6  0.006  0.001  0.000  0.007
    7  0.006  0.001  0.000  0.007
    8  0.006  0.001  0.000  0.007
    9  0.006  0.001  0.000  0.007
   10  0.024  0.000  0.000  0.024
   11  0.023  0.000  0.000  0.023
   12  0.024  0.000  0.000  0.024
   13  0.023  0.000  0.000  0.023
   14  0.023  0.000  0.000  0.023
   15  0.023  0.000  0.000  0.023
   16  0.024  0.000  0.000  0.024
   17  0.023  0.000  0.000  0.023
   18  0.023  0.000  0.000  0.023
   19  0.026  0.000  0.000  0.026
   20  0.025  0.000  0.000  0.025
   21  0.025  0.000  0.000  0.025
   22  0.025  0.000  0.000  0.025
   23  0.025  0.000  0.000  0.025
   24  0.025  0.000  0.000  0.025
   25  0.026  0.000  0.000  0.026
   26  0.026  0.000  0.000  0.026
   27  0.025  0.000  0.000  0.025
   28  0.008  0.001  0.000  0.009
   29  0.008  0.001  0.000  0.009
   30  0.008  0.001  0.000  0.009
   31  0.008  0.001  0.000  0.009
   32  0.008  0.001  0.000  0.009
   33  0.008  0.001  0.000  0.009
   34  0.008  0.001  0.000  0.009
   35  0.007  0.001  0.000  0.008
   36  0.011  0.002  0.000  0.013
tot    0.566  0.016  0.001  0.584
 
band     2 # energy   -7.34494954 # occ.  2.00000000
 
ion      s      p      d    tot
    1  0.017  0.001  0.000  0.019
    2  0.017  0.001  0.000  0.019
    3  0.017  0.001  0.000  0.019
    4  0.017  0.001  0.000  0.019
    5  0.017  0.001  0.000  0.019
    6  0.017  0.001  0.000  0.018
    7  0.017  0.001  0.000  0.019
    8  0.017  0.001  0.000  0.018
    9  0.017  0.001  0.000  0.018
   10  0.011  0.002  0.001  0.014
   11  0.011  0.002  0.001  0.014
   12  0.011  0.002  0.001  0.014
   13  0.011  0.002  0.001  0.014
   14  0.011  0.002  0.001  0.014
   15  0.011  0.002  0.001  0.014
   16  0.011  0.002  0.001  0.014
   17  0.011  0.002  0.001  0.014
   18  0.011  0.002  0.001  0.014
   19  0.008  0.003  0.000  0.011
   20  0.008  0.002  0.000  0.010
   21  0.008  0.002  0.000  0.010
   22  0.008  0.002  0.000  0.011
   23  0.008  0.002  0.000  0.010
   24  0.008  0.002  0.000  0.011
   25  0.008  0.003  0.000  0.011
   26  0.008  0.003  0.000  0.011
   27  0.008  0.002  0.000  0.011
   28  0.019  0.001  0.001  0.021
   29  0.020  0.001  0.001  0.022
   30  0.020  0.001  0.001  0.022
   31  0.020  0.001  0.001  0.022
   32  0.020  0.001  0.001  0.022
   33  0.020  0.001  0.001  0.022
   34  0.020  0.001  0.001  0.022
   35  0.019  0.001  0.001  0.020
   36  0.029  0.002  0.002  0.033
tot    0.518  0.053  0.020  0.591
 
band     3 # energy   -5.75593366 # occ.  2.00000000
 
ion      s      p      d    tot
    1  0.016  0.000  0.005  0.021
    2  0.016  0.000  0.005  0.022
    3  0.016  0.000  0.005  0.022
    4  0.016  0.000  0.005  0.022
    5  0.014  0.000  0.005  0.020
    6  0.016  0.000  0.005  0.022
    7  0.016  0.000  0.005  0.022
    8  0.016  0.000  0.005  0.022
    9  0.020  0.000  0.005  0.024
   10  0.003  0.004  0.001  0.008
   11  0.004  0.004  0.001  0.009
   12  0.003  0.004  0.001  0.008
   13  0.004  0.004  0.001  0.009
   14  0.004  0.004  0.001  0.009
   15  0.001  0.003  0.002  0.006
   16  0.003  0.004  0.001  0.008
   17  0.001  0.003  0.002  0.006
   18  0.001  0.003  0.002  0.006
   19  0.006  0.003  0.004  0.013
   20  0.010  0.003  0.004  0.017
   21  0.010  0.003  0.004  0.017
   22  0.004  0.003  0.004  0.011
   23  0.010  0.003  0.004  0.017
   24  0.004  0.003  0.004  0.011
   25  0.006  0.003  0.004  0.013
   26  0.006  0.003  0.004  0.013
   27  0.004  0.003  0.004  0.011
   28  0.016  0.000  0.007  0.023
   29  0.018  0.000  0.009  0.028
   30  0.018  0.000  0.009  0.028
   31  0.018  0.000  0.009  0.028
   32  0.018  0.000  0.009  0.027
   33  0.018  0.000  0.009  0.028
   34  0.018  0.000  0.009  0.028
   35  0.020  0.000  0.007  0.027
   36  0.025  0.000  0.014  0.039
tot    0.401  0.062  0.179  0.642
 
band     4 # energy   -5.62161682 # occ.  2.00000000
 
ion      s      p      d    tot
    1  0.000  0.003  0.004  0.006
    2  0.005  0.002  0.002  0.009
    3  0.007  0.002  0.002  0.010
    4  0.006  0.002  0.002  0.009
    5  0.000  0.000  0.002  0.002
    6  0.000  0.001  0.002  0.002
    7  0.007  0.002  0.002  0.010
    8  0.000  0.001  0.002  0.002
    9  0.000  0.001  0.004  0.005
   10  0.042  0.001  0.006  0.049
   11  0.000  0.007  0.004  0.011
   12  0.010  0.007  0.006  0.024
   13  0.000  0.007  0.004  0.011
   14  0.000  0.001  0.004  0.005
   15  0.010  0.001  0.011  0.022
   16  0.011  0.007  0.006  0.024
   17  0.009  0.001  0.011  0.022
   18  0.040  0.004  0.002  0.046
   19  0.017  0.005  0.011  0.033
   20  0.024  0.004  0.003  0.031
   21  0.006  0.002  0.012  0.021
   22  0.002  0.011  0.002  0.015
   23  0.006  0.002  0.012  0.021
   24  0.010  0.000  0.006  0.016
   25  0.066  0.003  0.005  0.074
   26  0.016  0.005  0.011  0.032
   27  0.003  0.010  0.002  0.015
   28  0.000  0.005  0.007  0.012
   29  0.007  0.002  0.004  0.013
   30  0.016  0.003  0.005  0.024
   31  0.007  0.002  0.004  0.013
   32  0.002  0.001  0.004  0.007
   33  0.016  0.003  0.005  0.024
   34  0.002  0.001  0.004  0.007
   35  0.000  0.002  0.004  0.006
   36  0.000  0.001  0.009  0.010
tot    0.346  0.113  0.184  0.643
 
band     5 # energy   -5.62150565 # occ.  2.00000000
 
ion      s      p      d    tot
    1  0.000  0.003  0.004  0.006
    2  0.003  0.001  0.002  0.006
    3  0.001  0.001  0.002  0.004
    4  0.003  0.001  0.002  0.005
    5  0.000  0.000  0.002  0.002
    6  0.008  0.002  0.002  0.012
    7  0.001  0.001  0.002  0.004
    8  0.008  0.002  0.002  0.012
    9  0.000  0.001  0.004  0.005
   10  0.000  0.009  0.007  0.016
   11  0.000  0.003  0.004  0.007
   12  0.032  0.003  0.006  0.041
   13  0.000  0.003  0.004  0.007
   14  0.000  0.009  0.004  0.012
   15  0.029  0.003  0.005  0.038
   16  0.031  0.003  0.006  0.040
   17  0.030  0.003  0.005  0.039
   18  0.000  0.000  0.014  0.014
   19  0.049  0.004  0.007  0.060
   20  0.000  0.002  0.016  0.017
   21  0.018  0.004  0.006  0.028
   22  0.007  0.003  0.005  0.016
   23  0.018  0.004  0.006  0.027
   24  0.000  0.014  0.001  0.014
   25  0.000  0.006  0.012  0.018
   26  0.050  0.004  0.007  0.061
   27  0.007  0.004  0.005  0.016
   28  0.000  0.005  0.007  0.012
   29  0.009  0.002  0.005  0.016
   30  0.001  0.001  0.003  0.006
   31  0.009  0.002  0.005  0.016
   32  0.015  0.003  0.004  0.022
   33  0.001  0.001  0.003  0.005
   34  0.015  0.003  0.004  0.022
   35  0.000  0.002  0.004  0.006
   36  0.000  0.001  0.009  0.010
tot    0.346  0.113  0.184  0.643
 
band     6 # energy   -5.59211875 # occ.  2.00000000
 
ion      s      p      d    tot
    1  0.020  0.003  0.001  0.024
    2  0.000  0.002  0.004  0.005
    3  0.000  0.002  0.004  0.005
    4  0.000  0.002  0.004  0.005
    5  0.004  0.001  0.001  0.005
    6  0.000  0.002  0.004  0.005
    7  0.000  0.002  0.004  0.005
    8  0.000  0.002  0.004  0.005
    9  0.005  0.001  0.000  0.006
   10  0.029  0.007  0.004  0.041
   11  0.010  0.000  0.011  0.021
   12  0.030  0.007  0.004  0.041
   13  0.011  0.000  0.011  0.022
   14  0.010  0.000  0.011  0.021
   15  0.006  0.006  0.005  0.017
   16  0.030  0.007  0.004  0.041
   17  0.005  0.006  0.005  0.017
   18  0.006  0.006  0.005  0.017
   19  0.028  0.009  0.003  0.040
   20  0.002  0.004  0.009  0.015
   21  0.002  0.004  0.009  0.014
   22  0.019  0.001  0.010  0.030
   23  0.002  0.004  0.009  0.014
   24  0.018  0.001  0.010  0.030
   25  0.028  0.009  0.003  0.040
   26  0.028  0.009  0.003  0.040
   27  0.019  0.001  0.010  0.030
   28  0.022  0.003  0.001  0.026
   29  0.000  0.002  0.005  0.007
   30  0.000  0.002  0.005  0.007
   31  0.000  0.002  0.005  0.007
   32  0.000  0.002  0.005  0.007
   33  0.000  0.002  0.005  0.007
   34  0.000  0.002  0.005  0.007
   35  0.010  0.002  0.001  0.013
   36  0.002  0.001  0.000  0.003
tot    0.345  0.115  0.183  0.642
 
band     7 # energy   -5.58201365 # occ.  2.00000000
 
ion      s      p      d    tot
    1  0.000  0.000  0.003  0.003
    2  0.004  0.002  0.002  0.008
    3  0.006  0.002  0.002  0.010
    4  0.007  0.002  0.002  0.012
    5  0.000  0.003  0.005  0.008
    6  0.001  0.001  0.002  0.003
    7  0.009  0.002  0.002  0.013
    8  0.000  0.001  0.002  0.003
    9  0.000  0.002  0.003  0.004
   10  0.000  0.003  0.011  0.014
   11  0.034  0.004  0.008  0.046
   12  0.013  0.003  0.004  0.020
   13  0.052  0.004  0.005  0.061
   14  0.002  0.004  0.013  0.018
   15  0.008  0.005  0.004  0.018
   16  0.009  0.003  0.006  0.018
   17  0.013  0.002  0.006  0.020
   18  0.000  0.012  0.002  0.015
   19  0.001  0.005  0.005  0.010
   20  0.001  0.012  0.004  0.018
   21  0.037  0.002  0.007  0.047
   22  0.049  0.004  0.004  0.057
   23  0.024  0.006  0.006  0.036
   24  0.002  0.001  0.017  0.019
   25  0.000  0.008  0.006  0.015
   26  0.001  0.003  0.004  0.008
   27  0.032  0.003  0.009  0.044
   28  0.000  0.000  0.003  0.003
   29  0.004  0.002  0.003  0.009
   30  0.009  0.003  0.004  0.016
   31  0.008  0.002  0.003  0.014
   32  0.002  0.001  0.004  0.007
   33  0.011  0.003  0.004  0.018
   34  0.000  0.001  0.003  0.004
   35  0.000  0.002  0.006  0.008
   36  0.000  0.005  0.008  0.013
tot    0.342  0.117  0.183  0.642
 
band     8 # energy   -5.58190114 # occ.  2.00000000
 
ion      s      p      d    tot
    1  0.000  0.000  0.003  0.003
    2  0.005  0.002  0.002  0.008
    3  0.003  0.001  0.002  0.006
    4  0.002  0.001  0.002  0.005
    5  0.000  0.003  0.005  0.008
    6  0.008  0.002  0.002  0.013
    7  0.000  0.001  0.002  0.003
    8  0.009  0.002  0.002  0.014
    9  0.000  0.002  0.003  0.004
   10  0.015  0.003  0.003  0.021
   11  0.024  0.004  0.009  0.037
   12  0.002  0.003  0.010  0.015
   13  0.007  0.004  0.012  0.022
   14  0.057  0.004  0.004  0.065
   15  0.006  0.008  0.004  0.017
   16  0.006  0.003  0.008  0.017
   17  0.002  0.011  0.002  0.015
   18  0.014  0.001  0.006  0.020
   19  0.000  0.006  0.006  0.012
   20  0.040  0.001  0.008  0.049
   21  0.005  0.011  0.005  0.021
   22  0.006  0.001  0.016  0.023
   23  0.018  0.008  0.006  0.031
   24  0.054  0.005  0.003  0.062
   25  0.001  0.002  0.004  0.007
   26  0.000  0.008  0.006  0.014
   27  0.023  0.002  0.011  0.036
   28  0.000  0.000  0.003  0.003
   29  0.007  0.002  0.004  0.014
   30  0.003  0.001  0.003  0.007
   31  0.003  0.002  0.004  0.009
   32  0.010  0.003  0.003  0.016
   33  0.000  0.001  0.003  0.004
   34  0.012  0.003  0.004  0.018
   35  0.000  0.002  0.006  0.008
   36  0.000  0.005  0.008  0.013
tot    0.342  0.117  0.183  0.642
 
band     9 # energy   -5.54655965 # occ.  2.00000000
 
ion      s      p      d    tot
    1  0.000  0.000  0.000  0.000
    2  0.000  0.002  0.004  0.006
    3  0.000  0.002  0.004  0.006
    4  0.000  0.002  0.004  0.006
    5  0.021  0.003  0.000  0.023
    6  0.000  0.002  0.004  0.006
    7  0.000  0.002  0.004  0.006
    8  0.000  0.002  0.004  0.006
    9  0.011  0.003  0.002  0.016
   10  0.000  0.002  0.010  0.012
   11  0.020  0.009  0.002  0.031
   12  0.000  0.002  0.010  0.012
   13  0.020  0.009  0.002  0.031
   14  0.020  0.009  0.002  0.031
   15  0.028  0.003  0.009  0.040
   16  0.000  0.002  0.010  0.012
   17  0.028  0.003  0.009  0.040
   18  0.028  0.003  0.009  0.039
   19  0.004  0.001  0.012  0.016
   20  0.028  0.005  0.007  0.039
   21  0.028  0.005  0.007  0.039
   22  0.015  0.008  0.003  0.026
   23  0.028  0.005  0.007  0.039
   24  0.015  0.008  0.003  0.026
   25  0.004  0.001  0.012  0.016
   26  0.004  0.001  0.012  0.016
   27  0.015  0.008  0.003  0.026
   28  0.000  0.000  0.001  0.001
   29  0.000  0.002  0.005  0.006
   30  0.000  0.002  0.005  0.006
   31  0.000  0.002  0.005  0.006
   32  0.000  0.002  0.005  0.006
   33  0.000  0.002  0.005  0.006
   34  0.000  0.002  0.005  0.006
   35  0.008  0.002  0.001  0.010
   36  0.024  0.005  0.001  0.030
tot    0.349  0.116  0.187  0.652
 
band    10 # energy   -4.90319820 # occ.  2.00000000
 
ion      s      p      d    tot
    1  0.000  0.004  0.009  0.013
    2  0.003  0.002  0.005  0.009
    3  0.020  0.004  0.005  0.029
    4  0.005  0.002  0.005  0.012
    5  0.000  0.000  0.010  0.010
    6  0.007  0.002  0.005  0.014
    7  0.020  0.004  0.005  0.028
    8  0.005  0.002  0.005  0.011
    9  0.000  0.005  0.008  0.013
   10  0.013  0.001  0.006  0.020
   11  0.001  0.002  0.012  0.015
   12  0.002  0.004  0.013  0.020
   13  0.001  0.003  0.013  0.016
   14  0.004  0.001  0.007  0.012
   15  0.010  0.002  0.016  0.027
   16  0.004  0.004  0.012  0.020
   17  0.005  0.001  0.018  0.024
   18  0.030  0.004  0.004  0.038
   19  0.003  0.002  0.011  0.016
   20  0.000  0.001  0.010  0.011
   21  0.000  0.001  0.014  0.015
   22  0.001  0.002  0.025  0.028
   23  0.000  0.001  0.013  0.014
   24  0.006  0.003  0.002  0.011
   25  0.009  0.007  0.010  0.026
   26  0.002  0.001  0.011  0.014
   27  0.002  0.002  0.021  0.025
   28  0.000  0.005  0.008  0.012
   29  0.005  0.002  0.009  0.016
   30  0.028  0.003  0.012  0.043
   31  0.008  0.002  0.010  0.020
   32  0.010  0.002  0.010  0.022
   33  0.028  0.003  0.012  0.043
   34  0.006  0.002  0.009  0.017
   35  0.000  0.005  0.010  0.015
   36  0.000  0.000  0.022  0.022
tot    0.236  0.092  0.378  0.707
 
band    11 # energy   -4.90312752 # occ.  2.00000000
 
ion      s      p      d    tot
    1  0.000  0.004  0.009  0.013
    2  0.017  0.003  0.005  0.025
    3  0.000  0.001  0.005  0.006
    4  0.015  0.003  0.005  0.022
    5  0.000  0.000  0.010  0.010
    6  0.012  0.003  0.005  0.020
    7  0.000  0.002  0.005  0.006
    8  0.015  0.003  0.005  0.024
    9  0.000  0.005  0.008  0.013
   10  0.000  0.005  0.015  0.020
   11  0.002  0.002  0.009  0.013
   12  0.010  0.002  0.008  0.020
   13  0.003  0.002  0.008  0.013
   14  0.000  0.003  0.014  0.017
   15  0.020  0.003  0.010  0.033
   16  0.009  0.002  0.009  0.020
   17  0.024  0.004  0.007  0.035
   18  0.000  0.000  0.021  0.021
   19  0.006  0.005  0.010  0.021
   20  0.000  0.002  0.014  0.016
   21  0.000  0.001  0.011  0.012
   22  0.005  0.003  0.007  0.015
   23  0.000  0.001  0.011  0.013
   24  0.000  0.001  0.031  0.032
   25  0.000  0.000  0.012  0.012
   26  0.008  0.006  0.010  0.023
   27  0.004  0.002  0.011  0.018
   28  0.000  0.005  0.008  0.012
   29  0.023  0.003  0.011  0.038
   30  0.000  0.002  0.009  0.011
   31  0.020  0.003  0.011  0.033
   32  0.018  0.003  0.011  0.032
   33  0.000  0.002  0.009  0.011
   34  0.022  0.003  0.012  0.037
   35  0.000  0.005  0.010  0.015
   36  0.000  0.000  0.022  0.022
tot    0.236  0.092  0.378  0.707
 
band    12 # energy   -4.87182639 # occ.  2.00000000
 
ion      s      p      d    tot
    1  0.004  0.001  0.011  0.016
    2  0.006  0.001  0.010  0.017
    3  0.006  0.001  0.010  0.017
    4  0.006  0.001  0.010  0.017
    5  0.004  0.001  0.010  0.015
    6  0.006  0.001  0.010  0.017
    7  0.006  0.001  0.010  0.017
    8  0.006  0.001  0.010  0.017
    9  0.013  0.000  0.009  0.022
   10  0.010  0.000  0.025  0.035
   11  0.008  0.000  0.022  0.031
   12  0.010  0.000  0.025  0.035
   13  0.008  0.000  0.022  0.031
   14  0.008  0.000  0.022  0.031
   15  0.005  0.000  0.023  0.028
   16  0.010  0.000  0.025  0.035
   17  0.005  0.000  0.023  0.028
   18  0.005  0.000  0.023  0.028
   19  0.006  0.000  0.020  0.026
   20  0.007  0.000  0.024  0.032
   21  0.007  0.000  0.024  0.032
   22  0.003  0.000  0.018  0.021
   23  0.007  0.000  0.024  0.032
   24  0.003  0.000  0.018  0.021
   25  0.006  0.000  0.020  0.026
   26  0.006  0.000  0.020  0.026
   27  0.003  0.000  0.018  0.021
   28  0.001  0.001  0.006  0.007
   29  0.003  0.001  0.009  0.012
   30  0.003  0.001  0.009  0.012
   31  0.003  0.001  0.009  0.012
   32  0.003  0.001  0.009  0.012
   33  0.003  0.001  0.009  0.012
   34  0.003  0.001  0.009  0.012
   35  0.006  0.000  0.006  0.011
   36  0.005  0.001  0.009  0.015
tot    0.207  0.013  0.562  0.781
 
band    13 # energy   -4.83819153 # occ.  2.00000000
 
ion      s      p      d    tot
    1  0.033  0.003  0.000  0.036
    2  0.000  0.003  0.009  0.012
    3  0.000  0.003  0.009  0.012
    4  0.000  0.003  0.009  0.012
    5  0.000  0.000  0.001  0.001
    6  0.000  0.003  0.009  0.012
    7  0.000  0.003  0.009  0.012
    8  0.000  0.003  0.009  0.012
    9  0.026  0.004  0.001  0.031
   10  0.009  0.003  0.010  0.022
   11  0.001  0.000  0.015  0.016
   12  0.009  0.003  0.010  0.022
   13  0.001  0.000  0.015  0.016
   14  0.001  0.000  0.015  0.016
   15  0.009  0.003  0.014  0.026
   16  0.009  0.003  0.010  0.022
   17  0.009  0.003  0.014  0.026
   18  0.009  0.003  0.014  0.026
   19  0.003  0.003  0.021  0.027
   20  0.000  0.000  0.013  0.013
   21  0.000  0.000  0.013  0.014
   22  0.010  0.004  0.008  0.022
   23  0.000  0.000  0.013  0.014
   24  0.010  0.004  0.008  0.021
   25  0.003  0.003  0.021  0.028
   26  0.003  0.003  0.021  0.027
   27  0.010  0.004  0.008  0.022
   28  0.039  0.003  0.000  0.042
   29  0.000  0.003  0.015  0.018
   30  0.000  0.003  0.015  0.018
   31  0.000  0.003  0.015  0.018
   32  0.000  0.003  0.015  0.018
   33  0.000  0.003  0.015  0.018
   34  0.000  0.003  0.015  0.018
   35  0.028  0.003  0.000  0.032
   36  0.000  0.000  0.000  0.000
tot    0.223  0.090  0.395  0.708
 
band    14 # energy   -4.83415979 # occ.  2.00000000
 
ion      s      p      d    tot
    1  0.000  0.002  0.009  0.011
    2  0.000  0.002  0.005  0.007
    3  0.020  0.004  0.005  0.029
    4  0.009  0.003  0.005  0.017
    5  0.000  0.006  0.009  0.015
    6  0.013  0.003  0.005  0.021
    7  0.018  0.004  0.005  0.026
    8  0.002  0.002  0.005  0.009
    9  0.000  0.001  0.011  0.012
   10  0.001  0.001  0.017  0.019
   11  0.010  0.003  0.015  0.028
   12  0.015  0.004  0.008  0.027
   13  0.021  0.004  0.006  0.030
   14  0.002  0.002  0.022  0.026
   15  0.000  0.002  0.012  0.015
   16  0.007  0.002  0.013  0.023
   17  0.001  0.000  0.008  0.009
   18  0.000  0.004  0.015  0.019
   19  0.001  0.002  0.016  0.019
   20  0.002  0.001  0.030  0.033
   21  0.017  0.005  0.007  0.029
   22  0.007  0.004  0.011  0.022
   23  0.008  0.003  0.020  0.031
   24  0.001  0.001  0.011  0.013
   25  0.000  0.003  0.023  0.026
   26  0.002  0.000  0.008  0.009
   27  0.004  0.002  0.011  0.017
   28  0.000  0.002  0.014  0.016
   29  0.001  0.001  0.007  0.009
   30  0.019  0.004  0.008  0.031
   31  0.011  0.003  0.007  0.020
   32  0.012  0.003  0.007  0.022
   33  0.018  0.004  0.008  0.030
   34  0.001  0.002  0.007  0.010
   35  0.000  0.001  0.011  0.012
   36  0.000  0.009  0.011  0.020
tot    0.222  0.096  0.394  0.712
 
band    15 # energy   -4.83411302 # occ.  2.00000000
 
ion      s      p      d    tot
    1  0.000  0.002  0.009  0.011
    2  0.020  0.004  0.005  0.029
    3  0.001  0.002  0.005  0.007
    4  0.012  0.003  0.005  0.019
    5  0.000  0.006  0.009  0.015
    6  0.007  0.002  0.005  0.015
    7  0.003  0.002  0.005  0.010
    8  0.019  0.004  0.005  0.028
    9  0.000  0.001  0.011  0.012
   10  0.014  0.004  0.009  0.027
   11  0.012  0.003  0.014  0.028
   12  0.001  0.001  0.018  0.019
   13  0.001  0.002  0.023  0.026
   14  0.020  0.004  0.006  0.030
   15  0.000  0.002  0.012  0.014
   16  0.008  0.002  0.013  0.023
   17  0.000  0.004  0.016  0.020
   18  0.001  0.000  0.009  0.009
   19  0.001  0.001  0.015  0.017
   20  0.016  0.005  0.008  0.029
   21  0.001  0.001  0.031  0.033
   22  0.000  0.001  0.011  0.013
   23  0.010  0.003  0.018  0.031
   24  0.007  0.004  0.011  0.021
   25  0.002  0.000  0.008  0.010
   26  0.000  0.003  0.024  0.026
   27  0.004  0.002  0.011  0.018
   28  0.000  0.002  0.014  0.016
   29  0.020  0.004  0.008  0.031
   30  0.002  0.001  0.007  0.010
   31  0.010  0.003  0.007  0.020
   32  0.009  0.002  0.007  0.018
   33  0.002  0.002  0.007  0.011
   34  0.019  0.004  0.008  0.031
   35  0.000  0.001  0.011  0.012
   36  0.000  0.009  0.011  0.020
tot    0.222  0.096  0.394  0.712
 
band    16 # energy   -4.76522178 # occ.  2.00000000
 
ion      s      p      d    tot
    1  0.012  0.001  0.000  0.014
    2  0.000  0.003  0.010  0.013
    3  0.000  0.003  0.010  0.013
    4  0.000  0.003  0.010  0.013
    5  0.043  0.004  0.000  0.048
    6  0.000  0.003  0.010  0.013
    7  0.000  0.003  0.010  0.013
    8  0.000  0.003  0.010  0.013
    9  0.007  0.001  0.001  0.009
   10  0.001  0.001  0.020  0.023
   11  0.009  0.005  0.014  0.027
   12  0.001  0.001  0.020  0.023
   13  0.009  0.005  0.014  0.027
   14  0.009  0.005  0.014  0.027
   15  0.005  0.001  0.010  0.016
   16  0.001  0.001  0.020  0.023
   17  0.005  0.001  0.010  0.016
   18  0.005  0.001  0.010  0.016
   19  0.006  0.001  0.013  0.020
   20  0.010  0.004  0.013  0.028
   21  0.010  0.004  0.013  0.028
   22  0.001  0.001  0.018  0.021
   23  0.010  0.004  0.013  0.028
   24  0.001  0.001  0.018  0.021
   25  0.006  0.001  0.013  0.020
   26  0.006  0.001  0.013  0.020
   27  0.001  0.001  0.018  0.021
   28  0.008  0.001  0.001  0.010
   29  0.000  0.003  0.013  0.016
   30  0.000  0.003  0.013  0.016
   31  0.000  0.003  0.013  0.016
   32  0.000  0.003  0.013  0.016
   33  0.000  0.003  0.013  0.016
   34  0.000  0.003  0.013  0.016
   35  0.010  0.001  0.000  0.011
   36  0.053  0.008  0.001  0.062
tot    0.232  0.094  0.412  0.738
 
band    17 # energy   -4.23720509 # occ.  2.00000000
 
ion      s      p      d    tot
    1  0.000  0.001  0.025  0.026
    2  0.015  0.001  0.007  0.023
    3  0.010  0.001  0.007  0.018
    4  0.013  0.001  0.007  0.022
    5  0.000  0.001  0.014  0.015
    6  0.007  0.001  0.007  0.015
    7  0.001  0.001  0.007  0.009
    8  0.000  0.001  0.007  0.008
    9  0.000  0.003  0.003  0.006
   10  0.000  0.000  0.054  0.054
   11  0.000  0.004  0.018  0.022
   12  0.000  0.000  0.034  0.034
   13  0.000  0.002  0.012  0.014
   14  0.000  0.000  0.008  0.008
   15  0.000  0.007  0.012  0.019
   16  0.000  0.001  0.007  0.007
   17  0.000  0.003  0.019  0.022
   18  0.000  0.001  0.024  0.024
   19  0.006  0.004  0.017  0.026
   20  0.000  0.000  0.048  0.049
   21  0.000  0.000  0.033  0.034
   22  0.002  0.001  0.015  0.018
   23  0.000  0.000  0.013  0.013
   24  0.000  0.000  0.017  0.017
   25  0.001  0.000  0.023  0.024
   26  0.003  0.002  0.020  0.025
   27  0.005  0.002  0.012  0.019
   28  0.000  0.001  0.009  0.010
   29  0.005  0.000  0.025  0.030
   30  0.001  0.001  0.019  0.020
   31  0.012  0.000  0.030  0.043
   32  0.014  0.000  0.028  0.042
   33  0.002  0.001  0.016  0.019
   34  0.008  0.000  0.020  0.028
   35  0.000  0.001  0.012  0.014
   36  0.000  0.000  0.032  0.032
tot    0.104  0.045  0.664  0.813
 
band    18 # energy   -4.23718337 # occ.  2.00000000
 
ion      s      p      d    tot
    1  0.000  0.001  0.025  0.026
    2  0.001  0.001  0.007  0.009
    3  0.006  0.001  0.007  0.014
    4  0.002  0.001  0.007  0.010
    5  0.000  0.001  0.014  0.015
    6  0.009  0.001  0.007  0.017
    7  0.014  0.002  0.007  0.023
    8  0.015  0.002  0.007  0.024
    9  0.000  0.003  0.003  0.006
   10  0.000  0.000  0.009  0.009
   11  0.000  0.000  0.008  0.008
   12  0.000  0.000  0.029  0.030
   13  0.000  0.002  0.013  0.015
   14  0.000  0.004  0.017  0.021
   15  0.000  0.000  0.024  0.025
   16  0.000  0.000  0.056  0.056
   17  0.000  0.004  0.018  0.022
   18  0.000  0.006  0.013  0.019
   19  0.000  0.000  0.023  0.024
   20  0.000  0.000  0.014  0.015
   21  0.000  0.000  0.030  0.030
   22  0.003  0.001  0.014  0.018
   23  0.000  0.000  0.050  0.051
   24  0.005  0.002  0.013  0.019
   25  0.006  0.004  0.017  0.026
   26  0.003  0.002  0.020  0.025
   27  0.000  0.000  0.017  0.017
   28  0.000  0.001  0.009  0.010
   29  0.009  0.000  0.021  0.031
   30  0.013  0.000  0.027  0.041
   31  0.001  0.001  0.016  0.018
   32  0.000  0.001  0.018  0.019
   33  0.012  0.000  0.030  0.042
   34  0.006  0.000  0.026  0.032
   35  0.000  0.001  0.012  0.014
   36  0.000  0.000  0.032  0.032
tot    0.104  0.045  0.664  0.813
 
band    19 # energy   -4.17927815 # occ.  2.00000000
 
ion      s      p      d    tot
    1  0.007  0.000  0.001  0.008
    2  0.000  0.001  0.015  0.016
    3  0.000  0.001  0.015  0.016
    4  0.000  0.001  0.015  0.016
    5  0.007  0.000  0.000  0.008
    6  0.000  0.001  0.015  0.016
    7  0.000  0.001  0.015  0.016
    8  0.000  0.001  0.015  0.016
    9  0.029  0.001  0.001  0.031
   10  0.000  0.002  0.011  0.013
   11  0.000  0.000  0.013  0.013
   12  0.000  0.002  0.011  0.013
   13  0.000  0.000  0.013  0.013
   14  0.000  0.000  0.013  0.013
   15  0.000  0.003  0.036  0.039
   16  0.000  0.002  0.011  0.013
   17  0.000  0.003  0.036  0.039
   18  0.000  0.003  0.036  0.039
   19  0.001  0.002  0.025  0.027
   20  0.000  0.000  0.012  0.013
   21  0.000  0.000  0.012  0.013
   22  0.002  0.002  0.026  0.030
   23  0.000  0.000  0.012  0.013
   24  0.002  0.002  0.026  0.030
   25  0.001  0.002  0.025  0.027
   26  0.001  0.002  0.025  0.027
   27  0.002  0.002  0.026  0.030
   28  0.025  0.000  0.005  0.030
   29  0.000  0.001  0.034  0.035
   30  0.000  0.001  0.034  0.035
   31  0.000  0.001  0.034  0.035
   32  0.000  0.001  0.034  0.035
   33  0.000  0.001  0.034  0.035
   34  0.000  0.001  0.034  0.035
   35  0.013  0.000  0.006  0.019
   36  0.002  0.000  0.000  0.002
tot    0.095  0.044  0.673  0.812
 
band    20 # energy   -4.15316157 # occ.  2.00000000
 
ion      s      p      d    tot
    1  0.020  0.001  0.000  0.021
    2  0.000  0.001  0.013  0.015
    3  0.000  0.001  0.013  0.015
    4  0.000  0.001  0.013  0.015
    5  0.017  0.001  0.001  0.019
    6  0.000  0.001  0.013  0.015
    7  0.000  0.001  0.013  0.015
    8  0.000  0.001  0.013  0.015
    9  0.000  0.000  0.000  0.000
   10  0.000  0.001  0.026  0.027
   11  0.000  0.003  0.024  0.027
   12  0.000  0.001  0.026  0.027
   13  0.000  0.003  0.024  0.027
   14  0.000  0.003  0.024  0.027
   15  0.000  0.000  0.003  0.004
   16  0.000  0.001  0.026  0.027
   17  0.000  0.000  0.003  0.004
   18  0.000  0.000  0.003  0.004
   19  0.001  0.001  0.014  0.016
   20  0.000  0.002  0.039  0.042
   21  0.000  0.002  0.039  0.042
   22  0.000  0.000  0.015  0.015
   23  0.000  0.002  0.039  0.042
   24  0.000  0.000  0.015  0.015
   25  0.001  0.001  0.014  0.016
   26  0.001  0.001  0.014  0.016
   27  0.000  0.000  0.015  0.015
   28  0.004  0.000  0.001  0.006
   29  0.000  0.001  0.040  0.041
   30  0.000  0.001  0.040  0.041
   31  0.000  0.001  0.040  0.041
   32  0.000  0.001  0.040  0.041
   33  0.000  0.001  0.040  0.041
   34  0.000  0.001  0.040  0.041
   35  0.018  0.000  0.002  0.020
   36  0.042  0.002  0.002  0.046
tot    0.106  0.043  0.687  0.836
 
band    21 # energy   -4.14801663 # occ.  2.00000000
 
ion      s      p      d    tot
    1  0.000  0.002  0.003  0.005
    2  0.015  0.001  0.009  0.025
    3  0.010  0.001  0.008  0.020
    4  0.012  0.001  0.009  0.022
    5  0.000  0.002  0.017  0.019
    6  0.006  0.001  0.009  0.016
    7  0.002  0.001  0.008  0.011
    8  0.000  0.001  0.008  0.009
    9  0.000  0.000  0.030  0.030
   10  0.000  0.006  0.019  0.026
   11  0.000  0.000  0.048  0.048
   12  0.000  0.004  0.013  0.017
   13  0.000  0.002  0.025  0.027
   14  0.000  0.003  0.008  0.012
   15  0.000  0.000  0.037  0.038
   16  0.000  0.000  0.005  0.005
   17  0.000  0.000  0.024  0.024
   18  0.000  0.001  0.013  0.014
   19  0.000  0.000  0.049  0.050
   20  0.002  0.005  0.019  0.027
   21  0.001  0.003  0.019  0.023
   22  0.000  0.002  0.020  0.022
   23  0.000  0.000  0.018  0.018
   24  0.001  0.002  0.015  0.019
   25  0.001  0.000  0.009  0.011
   26  0.000  0.000  0.027  0.027
   27  0.000  0.000  0.027  0.027
   28  0.000  0.001  0.038  0.039
   29  0.006  0.001  0.016  0.023
   30  0.001  0.000  0.017  0.018
   31  0.013  0.001  0.015  0.029
   32  0.013  0.001  0.015  0.029
   33  0.002  0.000  0.016  0.018
   34  0.007  0.001  0.015  0.023
   35  0.000  0.000  0.032  0.032
   36  0.000  0.004  0.001  0.005
tot    0.094  0.050  0.661  0.806
 
band    22 # energy   -4.14798046 # occ.  2.00000000
 
ion      s      p      d    tot
    1  0.000  0.002  0.003  0.005
    2  0.000  0.001  0.008  0.009
    3  0.005  0.001  0.009  0.014
    4  0.003  0.001  0.008  0.012
    5  0.000  0.002  0.017  0.019
    6  0.009  0.001  0.008  0.019
    7  0.013  0.001  0.009  0.023
    8  0.015  0.001  0.009  0.025
    9  0.000  0.000  0.030  0.030
   10  0.000  0.001  0.006  0.006
   11  0.001  0.003  0.007  0.010
   12  0.000  0.003  0.012  0.015
   13  0.000  0.001  0.029  0.031
   14  0.000  0.000  0.046  0.046
   15  0.000  0.001  0.012  0.013
   16  0.000  0.007  0.020  0.027