PROCAR new format
# of k-points:   10         # of bands:  252         # of ions:   37

 k-point     1 :    0.00000000 0.00000000 0.00000000     weight = 0.01562500

band     1 # energy   -6.30608600 # occ.  2.00000000
 
ion      s      p      d    tot
    1  0.005  0.001  0.000  0.006
    2  0.005  0.000  0.000  0.005
    3  0.005  0.000  0.000  0.005
    4  0.005  0.000  0.000  0.005
    5  0.005  0.000  0.000  0.005
    6  0.005  0.000  0.000  0.005
    7  0.005  0.000  0.000  0.005
    8  0.005  0.000  0.000  0.005
    9  0.005  0.000  0.000  0.005
   10  0.021  0.000  0.000  0.021
   11  0.021  0.000  0.000  0.021
   12  0.021  0.000  0.000  0.021
   13  0.021  0.000  0.000  0.021
   14  0.021  0.000  0.000  0.021
   15  0.020  0.000  0.000  0.020
   16  0.021  0.000  0.000  0.021
   17  0.020  0.000  0.000  0.020
   18  0.020  0.000  0.000  0.020
   19  0.022  0.000  0.000  0.022
   20  0.027  0.000  0.001  0.028
   21  0.027  0.000  0.001  0.028
   22  0.022  0.000  0.000  0.022
   23  0.027  0.000  0.001  0.028
   24  0.022  0.000  0.000  0.022
   25  0.022  0.000  0.000  0.022
   26  0.022  0.000  0.000  0.022
   27  0.022  0.000  0.000  0.022
   28  0.006  0.001  0.000  0.006
   29  0.007  0.001  0.000  0.008
   30  0.007  0.001  0.000  0.008
   31  0.007  0.001  0.000  0.008
   32  0.007  0.001  0.000  0.008
   33  0.007  0.001  0.000  0.008
   34  0.007  0.001  0.000  0.008
   35  0.006  0.001  0.000  0.006
   36  0.031  0.000  0.003  0.034
   37  0.005  0.000  0.000  0.005
tot    0.532  0.012  0.011  0.555
 
band     2 # energy   -5.50765726 # occ.  2.00000000
 
ion      s      p      d    tot
    1  0.007  0.000  0.001  0.008
    2  0.009  0.000  0.000  0.010
    3  0.009  0.000  0.000  0.010
    4  0.009  0.000  0.000  0.010
    5  0.009  0.001  0.000  0.010
    6  0.009  0.000  0.000  0.010
    7  0.009  0.000  0.000  0.010
    8  0.009  0.000  0.000  0.010
    9  0.010  0.001  0.000  0.011
   10  0.010  0.001  0.012  0.023
   11  0.013  0.001  0.007  0.020
   12  0.010  0.001  0.012  0.023
   13  0.013  0.001  0.007  0.020
   14  0.013  0.001  0.007  0.020
   15  0.016  0.000  0.006  0.023
   16  0.010  0.001  0.012  0.023
   17  0.016  0.000  0.006  0.023
   18  0.016  0.000  0.006  0.023
   19  0.002  0.001  0.007  0.010
   20  0.011  0.003  0.015  0.029
   21  0.011  0.003  0.015  0.029
   22  0.002  0.001  0.005  0.008
   23  0.011  0.003  0.015  0.029
   24  0.002  0.001  0.005  0.008
   25  0.002  0.001  0.007  0.010
   26  0.002  0.001  0.007  0.010
   27  0.002  0.001  0.005  0.008
   28  0.004  0.000  0.002  0.006
   29  0.008  0.000  0.004  0.013
   30  0.008  0.000  0.004  0.013
   31  0.008  0.000  0.004  0.013
   32  0.008  0.000  0.004  0.013
   33  0.008  0.000  0.004  0.013
   34  0.008  0.000  0.004  0.013
   35  0.004  0.000  0.001  0.005
   36  0.090  0.000  0.021  0.111
   37  0.024  0.001  0.000  0.025
tot    0.416  0.028  0.207  0.651
 
band     3 # energy   -5.19687937 # occ.  2.00000000
 
ion      s      p      d    tot
    1  0.000  0.000  0.005  0.006
    2  0.000  0.000  0.002  0.002
    3  0.000  0.000  0.002  0.002
    4  0.000  0.000  0.002  0.002
    5  0.000  0.000  0.001  0.001
    6  0.000  0.000  0.002  0.002
    7  0.000  0.000  0.002  0.002
    8  0.000  0.000  0.002  0.002
    9  0.001  0.000  0.001  0.002
   10  0.005  0.000  0.015  0.020
   11  0.002  0.000  0.021  0.023
   12  0.005  0.000  0.015  0.020
   13  0.002  0.000  0.021  0.023
   14  0.002  0.000  0.021  0.023
   15  0.000  0.000  0.021  0.021
   16  0.005  0.000  0.015  0.020
   17  0.000  0.000  0.021  0.021
   18  0.000  0.000  0.021  0.021
   19  0.010  0.000  0.032  0.042
   20  0.000  0.001  0.058  0.059
   21  0.000  0.001  0.058  0.059
   22  0.015  0.000  0.024  0.040
   23  0.000  0.001  0.058  0.059
   24  0.015  0.000  0.024  0.040
   25  0.010  0.000  0.032  0.042
   26  0.010  0.000  0.032  0.042
   27  0.015  0.000  0.024  0.040
   28  0.000  0.001  0.011  0.011
   29  0.001  0.001  0.011  0.012
   30  0.001  0.001  0.011  0.012
   31  0.001  0.001  0.011  0.012
   32  0.001  0.001  0.011  0.012
   33  0.001  0.001  0.011  0.012
   34  0.001  0.001  0.011  0.012
   35  0.000  0.001  0.007  0.007
   36  0.055  0.000  0.011  0.067
   37  0.016  0.000  0.000  0.016
tot    0.176  0.010  0.624  0.810
 
band     4 # energy   -5.07060409 # occ.  2.00000000
 
ion      s      p      d    tot
    1  0.025  0.000  0.015  0.040
    2  0.013  0.000  0.022  0.036
    3  0.013  0.000  0.022  0.036
    4  0.013  0.000  0.022  0.036
    5  0.010  0.000  0.023  0.033
    6  0.013  0.000  0.022  0.036
    7  0.013  0.000  0.022  0.036
    8  0.013  0.000  0.022  0.036
    9  0.009  0.000  0.024  0.033
   10  0.001  0.000  0.030  0.031
   11  0.000  0.001  0.013  0.013
   12  0.001  0.000  0.030  0.031
   13  0.000  0.001  0.013  0.013
   14  0.000  0.001  0.013  0.013
   15  0.003  0.001  0.007  0.012
   16  0.001  0.000  0.030  0.031
   17  0.003  0.001  0.007  0.012
   18  0.003  0.001  0.007  0.012
   19  0.001  0.000  0.015  0.016
   20  0.001  0.000  0.027  0.028
   21  0.001  0.000  0.027  0.028
   22  0.006  0.000  0.002  0.009
   23  0.001  0.000  0.027  0.028
   24  0.006  0.000  0.002  0.009
   25  0.001  0.000  0.015  0.016
   26  0.001  0.000  0.015  0.016
   27  0.006  0.000  0.002  0.009
   28  0.007  0.000  0.000  0.007
   29  0.003  0.000  0.005  0.008
   30  0.003  0.000  0.005  0.008
   31  0.003  0.000  0.005  0.008
   32  0.003  0.000  0.005  0.008
   33  0.003  0.000  0.005  0.008
   34  0.003  0.000  0.005  0.008
   35  0.010  0.000  0.002  0.012
   36  0.005  0.000  0.029  0.034
   37  0.006  0.000  0.000  0.007
tot    0.211  0.012  0.536  0.758
 
band     5 # energy   -4.97189813 # occ.  2.00000000
 
ion      s      p      d    tot
    1  0.000  0.000  0.004  0.004
    2  0.000  0.000  0.002  0.002
    3  0.001  0.000  0.004  0.006
    4  0.000  0.000  0.002  0.002
    5  0.000  0.000  0.008  0.008
    6  0.001  0.000  0.004  0.005
    7  0.001  0.000  0.005  0.006
    8  0.001  0.000  0.004  0.006
    9  0.000  0.000  0.002  0.002
   10  0.007  0.001  0.012  0.020
   11  0.006  0.001  0.044  0.050
   12  0.002  0.000  0.058  0.060
   13  0.007  0.001  0.042  0.050
   14  0.025  0.001  0.015  0.041
   15  0.001  0.001  0.020  0.022
   16  0.002  0.000  0.059  0.061
   17  0.002  0.001  0.020  0.023
   18  0.006  0.000  0.035  0.041
   19  0.000  0.001  0.040  0.041
   20  0.017  0.001  0.031  0.048
   21  0.004  0.001  0.019  0.025
   22  0.006  0.000  0.056  0.062
   23  0.004  0.001  0.019  0.024
   24  0.021  0.001  0.006  0.028
   25  0.000  0.000  0.022  0.023
   26  0.000  0.001  0.040  0.041
   27  0.005  0.000  0.058  0.064
   28  0.000  0.000  0.001  0.001
   29  0.001  0.000  0.005  0.006
   30  0.000  0.000  0.003  0.003
   31  0.001  0.000  0.005  0.006
   32  0.000  0.000  0.003  0.003
   33  0.000  0.000  0.002  0.003
   34  0.000  0.000  0.003  0.003
   35  0.000  0.000  0.008  0.008
   36  0.000  0.000  0.003  0.003
   37  0.000  0.000  0.000  0.000
tot    0.124  0.017  0.663  0.804
 
band     6 # energy   -4.97189505 # occ.  2.00000000
 
ion      s      p      d    tot
    1  0.000  0.000  0.004  0.004
    2  0.001  0.000  0.005  0.007
    3  0.000  0.000  0.003  0.003
    4  0.001  0.000  0.005  0.007
    5  0.000  0.000  0.008  0.008
    6  0.000  0.000  0.003  0.004
    7  0.000  0.000  0.003  0.003
    8  0.000  0.000  0.003  0.004
    9  0.000  0.000  0.002  0.002
   10  0.000  0.000  0.074  0.074
   11  0.019  0.001  0.024  0.044
   12  0.006  0.000  0.028  0.034
   13  0.019  0.001  0.025  0.044
   14  0.000  0.001  0.052  0.053
   15  0.004  0.001  0.030  0.035
   16  0.006  0.001  0.026  0.033
   17  0.004  0.001  0.030  0.034
   18  0.000  0.002  0.015  0.016
   19  0.000  0.000  0.028  0.029
   20  0.000  0.001  0.016  0.017
   21  0.012  0.001  0.027  0.040
   22  0.016  0.001  0.024  0.041
   23  0.013  0.001  0.027  0.040
   24  0.000  0.000  0.074  0.075
   25  0.000  0.001  0.046  0.047
   26  0.000  0.000  0.029  0.029
   27  0.016  0.001  0.022  0.039
   28  0.000  0.000  0.001  0.001
   29  0.000  0.000  0.002  0.002
   30  0.001  0.000  0.004  0.006
   31  0.000  0.000  0.002  0.002
   32  0.001  0.000  0.004  0.005
   33  0.001  0.000  0.004  0.006
   34  0.001  0.000  0.004  0.005
   35  0.000  0.000  0.007  0.008
   36  0.000  0.000  0.003  0.003
   37  0.000  0.000  0.000  0.000
tot    0.124  0.017  0.663  0.804
 
band     7 # energy   -4.96885236 # occ.  2.00000000
 
ion      s      p      d    tot
    1  0.000  0.000  0.007  0.007
    2  0.002  0.001  0.005  0.008
    3  0.001  0.000  0.003  0.004
    4  0.002  0.001  0.005  0.007
    5  0.000  0.000  0.000  0.000
    6  0.000  0.000  0.003  0.004
    7  0.000  0.000  0.003  0.004
    8  0.000  0.000  0.003  0.003
    9  0.000  0.000  0.008  0.009
   10  0.020  0.001  0.031  0.051
   11  0.000  0.001  0.038  0.039
   12  0.006  0.001  0.022  0.030
   13  0.000  0.001  0.036  0.037
   14  0.000  0.000  0.025  0.026
   15  0.004  0.000  0.071  0.075
   16  0.004  0.001  0.021  0.026
   17  0.007  0.000  0.061  0.068
   18  0.021  0.001  0.005  0.027
   19  0.004  0.001  0.039  0.044
   20  0.009  0.001  0.011  0.020
   21  0.003  0.000  0.048  0.051
   22  0.001  0.001  0.023  0.025
   23  0.002  0.000  0.055  0.057
   24  0.004  0.000  0.032  0.036
   25  0.023  0.001  0.016  0.040
   26  0.007  0.001  0.036  0.044
   27  0.001  0.001  0.021  0.023
   28  0.000  0.000  0.008  0.008
   29  0.000  0.000  0.002  0.002
   30  0.001  0.000  0.003  0.004
   31  0.000  0.000  0.002  0.002
   32  0.001  0.000  0.003  0.005
   33  0.001  0.000  0.004  0.005
   34  0.001  0.000  0.004  0.005
   35  0.000  0.000  0.002  0.002
   36  0.000  0.000  0.003  0.003
   37  0.000  0.000  0.000  0.000
tot    0.125  0.017  0.660  0.802
 
band     8 # energy   -4.96884926 # occ.  2.00000000
 
ion      s      p      d    tot
    1  0.000  0.000  0.007  0.007
    2  0.000  0.000  0.003  0.003
    3  0.001  0.000  0.005  0.006
    4  0.000  0.000  0.003  0.003
    5  0.000  0.000  0.000  0.000
    6  0.001  0.001  0.004  0.006
    7  0.001  0.000  0.005  0.006
    8  0.001  0.001  0.005  0.007
    9  0.000  0.000  0.008  0.009
   10  0.000  0.001  0.019  0.020
   11  0.000  0.000  0.028  0.029
   12  0.014  0.001  0.027  0.042
   13  0.000  0.000  0.030  0.031
   14  0.000  0.001  0.041  0.042
   15  0.017  0.001  0.020  0.038
   16  0.016  0.001  0.028  0.045
   17  0.015  0.001  0.030  0.045
   18  0.000  0.000  0.086  0.086
   19  0.019  0.001  0.022  0.041
   20  0.000  0.000  0.065  0.065
   21  0.006  0.001  0.027  0.034
   22  0.003  0.001  0.028  0.031
   23  0.007  0.001  0.021  0.029
   24  0.000  0.001  0.018  0.020
   25  0.000  0.001  0.044  0.045
   26  0.016  0.001  0.025  0.042
   27  0.003  0.000  0.030  0.033
   28  0.000  0.000  0.008  0.008
   29  0.001  0.000  0.004  0.006
   30  0.000  0.000  0.003  0.003
   31  0.001  0.000  0.004  0.006
   32  0.000  0.000  0.003  0.003
   33  0.000  0.000  0.003  0.003
   34  0.000  0.000  0.002  0.003
   35  0.000  0.000  0.002  0.002
   36  0.000  0.000  0.003  0.003
   37  0.000  0.000  0.000  0.000
tot    0.125  0.017  0.660  0.802
 
band     9 # energy   -4.96242296 # occ.  2.00000000
 
ion      s      p      d    tot
    1  0.000  0.000  0.001  0.001
    2  0.000  0.000  0.006  0.006
    3  0.000  0.000  0.006  0.006
    4  0.000  0.000  0.006  0.006
    5  0.007  0.001  0.003  0.011
    6  0.000  0.000  0.006  0.006
    7  0.000  0.000  0.006  0.006
    8  0.000  0.000  0.006  0.006
    9  0.001  0.000  0.006  0.008
   10  0.008  0.001  0.004  0.014
   11  0.012  0.000  0.038  0.050
   12  0.008  0.001  0.004  0.014
   13  0.012  0.000  0.038  0.050
   14  0.012  0.000  0.037  0.050
   15  0.001  0.000  0.053  0.054
   16  0.008  0.001  0.004  0.014
   17  0.001  0.000  0.053  0.054
   18  0.001  0.000  0.053  0.054
   19  0.013  0.001  0.022  0.035
   20  0.004  0.001  0.014  0.019
   21  0.004  0.001  0.014  0.019
   22  0.002  0.000  0.059  0.061
   23  0.004  0.001  0.014  0.019
   24  0.002  0.000  0.059  0.061
   25  0.013  0.001  0.022  0.035
   26  0.013  0.001  0.022  0.035
   27  0.002  0.000  0.059  0.061
   28  0.004  0.001  0.005  0.010
   29  0.000  0.000  0.004  0.004
   30  0.000  0.000  0.004  0.004
   31  0.000  0.000  0.004  0.004
   32  0.000  0.000  0.004  0.004
   33  0.000  0.000  0.004  0.004
   34  0.000  0.000  0.004  0.004
   35  0.004  0.001  0.005  0.009
   36  0.000  0.000  0.001  0.002
   37  0.000  0.000  0.000  0.000
tot    0.136  0.017  0.646  0.799
 
band    10 # energy   -4.95159999 # occ.  2.00000000
 
ion      s      p      d    tot
    1  0.002  0.000  0.021  0.023
    2  0.002  0.000  0.010  0.012
    3  0.002  0.000  0.010  0.012
    4  0.002  0.000  0.010  0.012
    5  0.001  0.000  0.007  0.009
    6  0.002  0.000  0.010  0.012
    7  0.002  0.000  0.010  0.012
    8  0.002  0.000  0.010  0.012
    9  0.005  0.000  0.000  0.006
   10  0.002  0.000  0.053  0.056
   11  0.007  0.001  0.014  0.022
   12  0.002  0.000  0.053  0.056
   13  0.007  0.001  0.014  0.022
   14  0.007  0.001  0.014  0.022
   15  0.005  0.000  0.040  0.046
   16  0.002  0.000  0.053  0.056
   17  0.005  0.000  0.040  0.046
   18  0.005  0.000  0.040  0.046
   19  0.003  0.000  0.023  0.027
   20  0.003  0.001  0.015  0.018
   21  0.003  0.001  0.015  0.018
   22  0.001  0.000  0.031  0.032
   23  0.003  0.001  0.015  0.018
   24  0.001  0.000  0.031  0.032
   25  0.003  0.000  0.023  0.027
   26  0.003  0.000  0.023  0.027
   27  0.001  0.000  0.031  0.032
   28  0.003  0.000  0.009  0.013
   29  0.003  0.000  0.009  0.012
   30  0.003  0.000  0.009  0.012
   31  0.003  0.000  0.009  0.012
   32  0.003  0.000  0.009  0.012
   33  0.003  0.000  0.009  0.012
   34  0.003  0.000  0.009  0.012
   35  0.002  0.000  0.001  0.003
   36  0.005  0.000  0.004  0.009
   37  0.000  0.000  0.000  0.000
tot    0.113  0.012  0.682  0.807
 
band    11 # energy   -4.93012268 # occ.  2.00000000
 
ion      s      p      d    tot
    1  0.000  0.000  0.007  0.007
    2  0.000  0.000  0.009  0.009
    3  0.000  0.000  0.009  0.009
    4  0.000  0.000  0.009  0.009
    5  0.004  0.000  0.008  0.012
    6  0.000  0.000  0.009  0.009
    7  0.000  0.000  0.009  0.009
    8  0.000  0.000  0.009  0.009
    9  0.002  0.001  0.002  0.004
   10  0.002  0.000  0.048  0.050
   11  0.000  0.000  0.060  0.060
   12  0.002  0.000  0.048  0.050
   13  0.000  0.000  0.060  0.060
   14  0.000  0.000  0.060  0.060
   15  0.004  0.000  0.011  0.016
   16  0.002  0.000  0.048  0.050
   17  0.004  0.000  0.011  0.016
   18  0.004  0.000  0.011  0.016
   19  0.002  0.000  0.021  0.023
   20  0.000  0.000  0.066  0.066
   21  0.000  0.000  0.065  0.066
   22  0.003  0.000  0.018  0.021
   23  0.000  0.000  0.065  0.066
   24  0.003  0.000  0.018  0.021
   25  0.002  0.000  0.021  0.022
   26  0.002  0.000  0.021  0.023
   27  0.003  0.000  0.018  0.021
   28  0.002  0.000  0.000  0.002
   29  0.000  0.000  0.007  0.008
   30  0.000  0.000  0.007  0.008
   31  0.000  0.000  0.007  0.008
   32  0.000  0.000  0.007  0.008
   33  0.000  0.000  0.007  0.008
   34  0.000  0.000  0.007  0.008
   35  0.001  0.000  0.003  0.004
   36  0.002  0.000  0.015  0.016
   37  0.001  0.000  0.000  0.001
tot    0.045  0.006  0.803  0.853
 
band    12 # energy   -4.92742672 # occ.  2.00000000
 
ion      s      p      d    tot
    1  0.000  0.000  0.018  0.018
    2  0.003  0.001  0.005  0.009
    3  0.001  0.000  0.009  0.010
    4  0.003  0.000  0.005  0.009
    5  0.000  0.000  0.005  0.005
    6  0.001  0.000  0.009  0.010
    7  0.001  0.000  0.009  0.010
    8  0.001  0.000  0.009  0.010
    9  0.000  0.000  0.009  0.009
   10  0.000  0.000  0.027  0.028
   11  0.002  0.000  0.027  0.029
   12  0.001  0.000  0.038  0.039
   13  0.002  0.000  0.027  0.029
   14  0.000  0.000  0.034  0.034
   15  0.006  0.000  0.026  0.032
   16  0.001  0.000  0.037  0.038
   17  0.006  0.000  0.024  0.031
   18  0.000  0.000  0.072  0.072
   19  0.007  0.000  0.032  0.039
   20  0.000  0.000  0.070  0.070
   21  0.006  0.000  0.023  0.030
   22  0.000  0.000  0.035  0.035
   23  0.006  0.000  0.025  0.031
   24  0.000  0.000  0.012  0.012
   25  0.000  0.000  0.060  0.061
   26  0.007  0.000  0.031  0.038
   27  0.000  0.000  0.034  0.034
   28  0.000  0.000  0.012  0.013
   29  0.000  0.000  0.008  0.008
   30  0.002  0.000  0.005  0.007
   31  0.000  0.000  0.008  0.008
   32  0.002  0.001  0.005  0.008
   33  0.002  0.000  0.005  0.007
   34  0.002  0.001  0.005  0.008
   35  0.000  0.000  0.008  0.008
   36  0.000  0.001  0.003  0.003
   37  0.000  0.000  0.000  0.000
tot    0.063  0.008  0.771  0.841
 
band    13 # energy   -4.92741104 # occ.  2.00000000
 
ion      s      p      d    tot
    1  0.000  0.000  0.018  0.018
    2  0.000  0.000  0.010  0.010
    3  0.002  0.001  0.006  0.009
    4  0.000  0.000  0.010  0.010
    5  0.000  0.000  0.005  0.005
    6  0.003  0.000  0.006  0.009
    7  0.002  0.001  0.006  0.009
    8  0.002  0.000  0.006  0.009
    9  0.000  0.000  0.009  0.010
   10  0.001  0.000  0.042  0.044
   11  0.001  0.000  0.032  0.033
   12  0.000  0.000  0.030  0.030
   13  0.001  0.000  0.032  0.033
   14  0.003  0.000  0.024  0.027
   15  0.002  0.000  0.056  0.058
   16  0.000  0.000  0.030  0.031
   17  0.002  0.000  0.057  0.060
   18  0.008  0.000  0.009  0.017
   19  0.002  0.000  0.050  0.053
   20  0.008  0.000  0.009  0.017
   21  0.002  0.000  0.055  0.057
   22  0.000  0.000  0.019  0.019
   23  0.002  0.000  0.053  0.056
   24  0.000  0.000  0.043  0.043
   25  0.009  0.000  0.023  0.032
   26  0.002  0.000  0.051  0.053
   27  0.000  0.000  0.019  0.020
   28  0.000  0.000  0.012  0.012
   29  0.003  0.000  0.004  0.008
   30  0.001  0.000  0.007  0.008
   31  0.003  0.000  0.004  0.008
   32  0.000  0.000  0.007  0.007
   33  0.001  0.000  0.007  0.008
   34  0.000  0.000  0.007  0.007
   35  0.000  0.000  0.008  0.008
   36  0.000  0.001  0.003  0.003
   37  0.000  0.000  0.000  0.000
tot    0.063  0.008  0.771  0.841
 
band    14 # energy   -4.92677155 # occ.  2.00000000
 
ion      s      p      d    tot
    1  0.000  0.000  0.006  0.006
    2  0.003  0.000  0.012  0.015
    3  0.002  0.000  0.013  0.015
    4  0.003  0.000  0.012  0.015
    5  0.004  0.000  0.001  0.005
    6  0.003  0.000  0.012  0.015
    7  0.002  0.000  0.013  0.015
    8  0.003  0.000  0.012  0.015
    9  0.007  0.000  0.022  0.029
   10  0.003  0.000  0.013  0.015
   11  0.000  0.000  0.005  0.006
   12  0.003  0.000  0.014  0.017
   13  0.000  0.000  0.005  0.006
   14  0.000  0.000  0.006  0.006
   15  0.001  0.000  0.043  0.044
   16  0.003  0.000  0.014  0.017
   17  0.001  0.000  0.043  0.044
   18  0.001  0.000  0.043  0.045
   19  0.000  0.001  0.020  0.021
   20  0.005  0.000  0.018  0.023
   21  0.004  0.000  0.019  0.023
   22  0.001  0.000  0.047  0.048
   23  0.004  0.000  0.019  0.023
   24  0.001  0.000  0.046  0.047
   25  0.000  0.001  0.019  0.020
   26  0.000  0.001  0.020  0.021
   27  0.001  0.000  0.047  0.048
   28  0.009  0.000  0.002  0.012
   29  0.006  0.000  0.016  0.023
   30  0.007  0.000  0.016  0.023
   31  0.006  0.000  0.016  0.023
   32  0.007  0.000  0.017  0.024
   33  0.007  0.000  0.016  0.023
   34  0.007  0.000  0.017  0.024
   35  0.011  0.000  0.031  0.043
   36  0.001  0.000  0.013  0.014
   37  0.000  0.000  0.000  0.000
tot    0.117  0.007  0.687  0.811
 
band    15 # energy   -4.92199572 # occ.  2.00000000
 
ion      s      p      d    tot
    1  0.000  0.000  0.005  0.006
    2  0.003  0.001  0.005  0.009
    3  0.001  0.000  0.009  0.010
    4  0.003  0.001  0.005  0.009
    5  0.000  0.000  0.016  0.016
    6  0.001  0.000  0.009  0.010
    7  0.001  0.000  0.009  0.010
    8  0.001  0.000  0.009  0.010
    9  0.000  0.000  0.012  0.012
   10  0.008  0.000  0.008  0.016
   11  0.002  0.000  0.051  0.053
   12  0.002  0.000  0.055  0.057
   13  0.002  0.000  0.051  0.053
   14  0.007  0.000  0.024  0.032
   15  0.000  0.000  0.022  0.022
   16  0.002  0.000  0.055  0.057
   17  0.000  0.000  0.022  0.022
   18  0.000  0.000  0.046  0.046
   19  0.000  0.000  0.031  0.032
   20  0.003  0.000  0.039  0.042
   21  0.001  0.000  0.030  0.031
   22  0.002  0.000  0.063  0.065
   23  0.001  0.000  0.031  0.031
   24  0.009  0.000  0.008  0.017
   25  0.002  0.000  0.025  0.026
   26  0.000  0.000  0.031  0.032
   27  0.002  0.000  0.062  0.064
   28  0.000  0.000  0.003  0.003
   29  0.000  0.000  0.007  0.007
   30  0.001  0.000  0.003  0.005
   31  0.000  0.000  0.007  0.007
   32  0.002  0.001  0.005  0.007
   33  0.001  0.000  0.003  0.005
   34  0.002  0.001  0.005  0.007
   35  0.000  0.000  0.007  0.007
   36  0.000  0.000  0.005  0.006
   37  0.000  0.000  0.000  0.000
tot    0.059  0.008  0.777  0.843
 
band    16 # energy   -4.92197449 # occ.  2.00000000
 
ion      s      p      d    tot
    1  0.000  0.000  0.005  0.006
    2  0.000  0.000  0.010  0.010
    3  0.002  0.001  0.006  0.009
    4  0.000  0.000  0.010  0.010
    5  0.000  0.000  0.015  0.016
    6  0.003  0.000  0.007  0.010
    7  0.002  0.001  0.006  0.009
    8  0.003  0.000  0.007  0.010
    9  0.000  0.000  0.012  0.012
   10  0.000  0.000  0.070  0.070
   11  0.006  0.000  0.033  0.039
   12  0.006  0.000  0.024  0.030
   13  0.006  0.000  0.033  0.039
   14  0.000  0.000  0.060  0.060
   15  0.000  0.000  0.038  0.038
   16  0.006  0.000  0.024  0.030
   17  0.000  0.000  0.038  0.038
   18  0.000  0.000  0.014  0.014
   19  0.001  0.000  0.027  0.028
   20  0.000  0.000  0.027  0.027
   21  0.002  0.000  0.036  0.039
   22  0.007  0.000  0.026  0.033
   23  0.002  0.000  0.036  0.038
   24  0.000  0.000  0.080  0.081
   25  0.000  0.000  0.034  0.034
   26  0.001  0.000  0.027  0.028
   27  0.007  0.000  0.026  0.033
   28  0.000  0.000  0.003  0.003
   29  0.002  0.000  0.003  0.005
   30  0.001  0.000  0.007  0.008
   31  0.002  0.000  0.003  0.005
   32  0.000  0.000  0.005  0.006
   33  0.001  0.000  0.007  0.008
   34  0.000  0.000  0.005  0.006
   35  0.000  0.000  0.007  0.007
   36  0.000  0.000  0.005  0.006
   37  0.000  0.000  0.000  0.000
tot    0.059  0.008  0.777  0.843
 
band    17 # energy   -4.79195778 # occ.  2.00000000
 
ion      s      p      d    tot
    1  0.000  0.000  0.001  0.001
    2  0.000  0.000  0.008  0.009
    3  0.000  0.000  0.008  0.009
    4  0.000  0.000  0.008  0.009
    5  0.000  0.000  0.011  0.011
    6  0.000  0.000  0.008  0.009
    7  0.000  0.000  0.008  0.009
    8  0.000  0.000  0.008  0.009
    9  0.000  0.000  0.007  0.007
   10  0.000  0.000  0.003  0.004
   11  0.000  0.000  0.054  0.054
   12  0.000  0.000  0.003  0.004
   13  0.000  0.000  0.054  0.054
   14  0.000  0.000  0.054  0.054
   15  0.004  0.001  0.040  0.045
   16  0.000  0.000  0.003  0.004
   17  0.004  0.001  0.040  0.045
   18  0.004  0.001  0.040  0.045
   19  0.001  0.000  0.029  0.030
   20  0.002  0.000  0.042  0.044
   21  0.002  0.000  0.042  0.044
   22  0.004  0.001  0.024  0.030
   23  0.002  0.000  0.042  0.044
   24  0.004  0.001  0.024  0.029
   25  0.001  0.000  0.029  0.030
   26  0.001  0.000  0.029  0.030
   27  0.004  0.001  0.024  0.030
   28  0.010  0.000  0.012  0.023
   29  0.002  0.001  0.014  0.016
   30  0.002  0.001  0.014  0.016
   31  0.002  0.001  0.014  0.016
   32  0.002  0.001  0.014  0.016
   33  0.002  0.001  0.014  0.016
   34  0.002  0.001  0.014  0.016
   35  0.001  0.000  0.000  0.001
   36  0.004  0.000  0.023  0.027
   37  0.006  0.000  0.000  0.007
tot    0.066  0.015  0.764  0.846
 
band    18 # energy   -4.76296375 # occ.  2.00000000
 
ion      s      p      d    tot
    1  0.000  0.000  0.012  0.012
    2  0.000  0.000  0.010  0.010
    3  0.001  0.000  0.005  0.006
    4  0.000  0.000  0.010  0.011
    5  0.000  0.000  0.001  0.001
    6  0.002  0.001  0.007  0.010
    7  0.001  0.000  0.005  0.006
    8  0.002  0.001  0.007  0.010
    9  0.000  0.001  0.016  0.016
   10  0.002  0.001  0.046  0.049
   11  0.000  0.000  0.029  0.029
   12  0.000  0.000  0.024  0.024
   13  0.000  0.000  0.029  0.029
   14  0.000  0.001  0.022  0.023
   15  0.000  0.000  0.079  0.079
   16  0.000  0.000  0.022  0.023
   17  0.000  0.000  0.077  0.078
   18  0.002  0.000  0.039  0.041
   19  0.000  0.000  0.031  0.031
   20  0.002  0.001  0.040  0.043
   21  0.001  0.000  0.017  0.018
   22  0.001  0.000  0.068  0.069
   23  0.001  0.000  0.016  0.016
   24  0.003  0.000  0.039  0.041
   25  0.000  0.001  0.021  0.022
   26  0.000  0.000  0.030  0.031
   27  0.001  0.000  0.070  0.070
   28  0.000  0.000  0.001  0.001
   29  0.000  0.000  0.008  0.008
   30  0.001  0.001  0.006  0.008
   31  0.000  0.000  0.008  0.008
   32  0.001  0.000  0.005  0.006
   33  0.001  0.001  0.006  0.008
   34  0.001  0.000  0.004  0.006
   35  0.000  0.001  0.015  0.016
   36  0.000  0.001  0.005  0.006
   37  0.000  0.000  0.000  0.000
tot    0.023  0.015  0.829  0.866
 
band    19 # energy   -4.76293694 # occ.  2.00000000
 
ion      s      p      d    tot
    1  0.000  0.000  0.012  0.012
    2  0.002  0.001  0.005  0.007
    3  0.001  0.001  0.010  0.011
    4  0.002  0.001  0.005  0.007
    5  0.000  0.000  0.001  0.001
    6  0.000  0.000  0.007  0.008
    7  0.001  0.001  0.010  0.011
    8  0.000  0.000  0.008  0.008
    9  0.000  0.001  0.016  0.016
   10  0.000  0.000  0.015  0.015
   11  0.000  0.001  0.025  0.025
   12  0.001  0.001  0.038  0.040
   13  0.000  0.001  0.025  0.026
   14  0.000  0.000  0.030  0.030
   15  0.001  0.000  0.051  0.052
   16  0.001  0.001  0.039  0.041
   17  0.001  0.000  0.053  0.054
   18  0.000  0.000  0.092  0.092
   19  0.000  0.001  0.024  0.024
   20  0.000  0.000  0.008  0.008
   21  0.002  0.001  0.031  0.034
   22  0.002  0.000  0.050  0.052
   23  0.002  0.001  0.032  0.035
   24  0.000  0.000  0.078  0.078
   25  0.000  0.000  0.035  0.035
   26  0.000  0.001  0.024  0.025
   27  0.002  0.000  0.048  0.050
   28  0.000  0.000  0.001  0.001
   29  0.001  0.001  0.004  0.006
   30  0.000  0.000  0.006  0.007
   31  0.001  0.001  0.004  0.006
   32  0.001  0.001  0.007  0.009
   33  0.000  0.000  0.006  0.007
   34  0.001  0.001  0.007  0.009
   35  0.000  0.001  0.015  0.016
   36  0.000  0.001  0.005  0.006
   37  0.000  0.000  0.000  0.000
tot    0.023  0.015  0.829  0.866
 
band    20 # energy   -4.76168253 # occ.  2.00000000
 
ion      s      p      d    tot
    1  0.000  0.000  0.008  0.008
    2  0.000  0.000  0.010  0.010
    3  0.000  0.000  0.010  0.010
    4  0.000  0.000  0.010  0.010
    5  0.003  0.001  0.004  0.008
    6  0.000  0.000  0.010  0.010
    7  0.000  0.000  0.010  0.010
    8  0.000  0.000  0.010  0.010
    9  0.002  0.001  0.000  0.003
   10  0.002  0.000  0.053  0.055
   11  0.000  0.001  0.044  0.045
   12  0.002  0.001  0.052  0.054
   13  0.000  0.001  0.044  0.045
   14  0.000  0.001  0.045  0.046
   15  0.001  0.000  0.015  0.016
   16  0.002  0.001  0.052  0.054
   17  0.001  0.000  0.015  0.016
   18  0.001  0.000  0.014  0.015
   19  0.001  0.001  0.056  0.058
   20  0.002  0.000  0.023  0.025
   21  0.002  0.000  0.023  0.025
   22  0.000  0.000  0.031  0.032
   23  0.002  0.000  0.023  0.025
   24  0.000  0.000  0.032  0.032
   25  0.001  0.001  0.055  0.056
   26  0.001  0.001  0.056  0.058
   27  0.000  0.000  0.031  0.032
   28  0.000  0.000  0.010  0.010
   29  0.000  0.000  0.010  0.010
   30  0.000  0.000  0.010  0.010
   31  0.000  0.000  0.010  0.010
   32  0.000  0.000  0.010  0.010
   33  0.000  0.000  0.010  0.010
   34  0.000  0.000  0.010  0.010
   35  0.005  0.001  0.001  0.008
   36  0.001  0.001  0.005  0.007
   37  0.001  0.000  0.000  0.001
tot    0.031  0.017  0.808  0.856
 
band    21 # energy   -4.75313646 # occ.  2.00000000
 
ion      s      p      d    tot
    1  0.000  0.000  0.008  0.009
    2  0.000  0.000  0.011  0.011
    3  0.001  0.000  0.006  0.007
    4  0.000  0.000  0.011  0.011
    5  0.000  0.001  0.017  0.017
    6  0.001  0.001  0.008  0.010
    7  0.001  0.000  0.005  0.007
    8  0.001  0.001  0.007  0.010
    9  0.000  0.000  0.004  0.004
   10  0.000  0.000  0.074  0.075
   11  0.002  0.000  0.050  0.052
   12  0.000  0.000  0.040  0.041
   13  0.002  0.000  0.050  0.053
   14  0.000  0.000  0.055  0.056
   15  0.001  0.001  0.025  0.027
   16  0.000  0.000  0.039  0.040
   17  0.001  0.001  0.024  0.026
   18  0.000  0.000  0.002  0.002
   19  0.002  0.000  0.047  0.049
   20  0.000  0.000  0.072  0.073
   21  0.001  0.000  0.040  0.041
   22  0.001  0.001  0.020  0.022
   23  0.001  0.000  0.039  0.040
   24  0.000  0.000  0.005  0.006
   25  0.000  0.000  0.045  0.045
   26  0.002  0.000  0.047  0.049
   27  0.001  0.001  0.021  0.022
   28  0.000  0.001  0.016  0.017
   29  0.000  0.000  0.007  0.008
   30  0.001  0.001  0.006  0.008
   31  0.000  0.000  0.007  0.008
   32  0.001  0.000  0.004  0.005
   33  0.001  0.001  0.006  0.008
   34  0.001  0.000  0.004  0.005
   35  0.000  0.000  0.002  0.002
   36  0.000  0.001  0.003  0.004