PROCAR new format
# of k-points:   10         # of bands:  252         # of ions:   36

 k-point     1 :    0.00000000 0.00000000 0.00000000     weight = 0.01562500

band     1 # energy   -8.70709936 # occ.  2.00000000
 
ion      s      p      d    tot
    1  0.006  0.001  0.000  0.007
    2  0.006  0.001  0.000  0.007
    3  0.006  0.001  0.000  0.007
    4  0.006  0.001  0.000  0.007
    5  0.006  0.001  0.000  0.007
    6  0.006  0.001  0.000  0.007
    7  0.006  0.001  0.000  0.007
    8  0.006  0.001  0.000  0.007
    9  0.006  0.001  0.000  0.007
   10  0.024  0.000  0.000  0.024
   11  0.024  0.000  0.000  0.024
   12  0.024  0.000  0.000  0.024
   13  0.024  0.000  0.000  0.024
   14  0.024  0.000  0.000  0.024
   15  0.023  0.000  0.000  0.023
   16  0.024  0.000  0.000  0.024
   17  0.023  0.000  0.000  0.023
   18  0.023  0.000  0.000  0.023
   19  0.025  0.000  0.000  0.025
   20  0.026  0.000  0.000  0.026
   21  0.026  0.000  0.000  0.026
   22  0.024  0.000  0.000  0.024
   23  0.026  0.000  0.000  0.026
   24  0.024  0.000  0.000  0.024
   25  0.025  0.000  0.000  0.025
   26  0.025  0.000  0.000  0.025
   27  0.024  0.000  0.000  0.024
   28  0.008  0.001  0.000  0.008
   29  0.008  0.001  0.000  0.009
   30  0.008  0.001  0.000  0.009
   31  0.008  0.001  0.000  0.009
   32  0.008  0.001  0.000  0.009
   33  0.008  0.001  0.000  0.009
   34  0.008  0.001  0.000  0.009
   35  0.007  0.001  0.000  0.008
   36  0.017  0.002  0.000  0.019
tot    0.569  0.017  0.001  0.587
 
band     2 # energy   -7.46608820 # occ.  2.00000000
 
ion      s      p      d    tot
    1  0.017  0.001  0.000  0.019
    2  0.017  0.001  0.000  0.018
    3  0.017  0.001  0.000  0.018
    4  0.017  0.001  0.000  0.018
    5  0.017  0.001  0.000  0.018
    6  0.017  0.001  0.000  0.018
    7  0.017  0.001  0.000  0.018
    8  0.017  0.001  0.000  0.018
    9  0.017  0.001  0.000  0.018
   10  0.012  0.002  0.001  0.014
   11  0.011  0.002  0.001  0.014
   12  0.012  0.002  0.001  0.014
   13  0.011  0.002  0.001  0.014
   14  0.011  0.002  0.001  0.014
   15  0.011  0.002  0.001  0.014
   16  0.012  0.002  0.001  0.014
   17  0.011  0.002  0.001  0.014
   18  0.011  0.002  0.001  0.014
   19  0.008  0.002  0.000  0.010
   20  0.008  0.003  0.000  0.011
   21  0.008  0.003  0.000  0.011
   22  0.008  0.002  0.000  0.010
   23  0.008  0.003  0.000  0.011
   24  0.008  0.002  0.000  0.010
   25  0.008  0.002  0.000  0.010
   26  0.008  0.002  0.000  0.010
   27  0.008  0.002  0.000  0.010
   28  0.018  0.001  0.001  0.020
   29  0.020  0.001  0.001  0.022
   30  0.020  0.001  0.001  0.022
   31  0.020  0.001  0.001  0.022
   32  0.020  0.001  0.001  0.022
   33  0.020  0.001  0.001  0.022
   34  0.020  0.001  0.001  0.022
   35  0.018  0.001  0.001  0.019
   36  0.041  0.001  0.002  0.045
tot    0.524  0.053  0.021  0.598
 
band     3 # energy   -5.88391807 # occ.  2.00000000
 
ion      s      p      d    tot
    1  0.015  0.000  0.005  0.021
    2  0.016  0.000  0.005  0.021
    3  0.016  0.000  0.005  0.021
    4  0.016  0.000  0.005  0.021
    5  0.014  0.000  0.005  0.020
    6  0.016  0.000  0.005  0.021
    7  0.016  0.000  0.005  0.021
    8  0.016  0.000  0.005  0.021
    9  0.020  0.000  0.005  0.024
   10  0.003  0.004  0.001  0.008
   11  0.003  0.004  0.001  0.008
   12  0.003  0.004  0.001  0.008
   13  0.003  0.004  0.001  0.008
   14  0.003  0.004  0.001  0.008
   15  0.001  0.003  0.002  0.006
   16  0.003  0.004  0.001  0.008
   17  0.001  0.003  0.002  0.006
   18  0.001  0.003  0.002  0.006
   19  0.007  0.003  0.004  0.014
   20  0.010  0.003  0.005  0.018
   21  0.010  0.003  0.005  0.018
   22  0.004  0.003  0.004  0.010
   23  0.010  0.003  0.005  0.018
   24  0.004  0.003  0.004  0.010
   25  0.007  0.003  0.004  0.014
   26  0.007  0.003  0.004  0.014
   27  0.004  0.003  0.004  0.010
   28  0.014  0.000  0.007  0.021
   29  0.018  0.000  0.009  0.027
   30  0.018  0.000  0.009  0.027
   31  0.018  0.000  0.009  0.027
   32  0.018  0.000  0.009  0.027
   33  0.018  0.000  0.009  0.027
   34  0.018  0.000  0.009  0.027
   35  0.018  0.000  0.007  0.024
   36  0.030  0.001  0.021  0.052
tot    0.402  0.062  0.187  0.651
 
band     4 # energy   -5.73747754 # occ.  2.00000000
 
ion      s      p      d    tot
    1  0.000  0.003  0.005  0.007
    2  0.008  0.002  0.002  0.012
    3  0.006  0.002  0.002  0.009
    4  0.007  0.002  0.002  0.011
    5  0.000  0.002  0.003  0.004
    6  0.004  0.001  0.002  0.008
    7  0.001  0.001  0.002  0.003
    8  0.000  0.001  0.002  0.003
    9  0.000  0.000  0.003  0.003
   10  0.050  0.004  0.005  0.059
   11  0.000  0.012  0.002  0.015
   12  0.033  0.004  0.008  0.045
   13  0.009  0.005  0.004  0.019
   14  0.014  0.002  0.006  0.021
   15  0.000  0.003  0.010  0.013
   16  0.002  0.003  0.012  0.017
   17  0.007  0.003  0.006  0.016
   18  0.011  0.003  0.003  0.017
   19  0.001  0.012  0.004  0.017
   20  0.053  0.004  0.007  0.064
   21  0.035  0.003  0.011  0.049
   22  0.001  0.004  0.005  0.010
   23  0.002  0.001  0.019  0.022
   24  0.001  0.003  0.004  0.008
   25  0.035  0.002  0.007  0.044
   26  0.024  0.005  0.006  0.035
   27  0.000  0.008  0.006  0.014
   28  0.000  0.004  0.005  0.008
   29  0.013  0.003  0.004  0.019
   30  0.011  0.003  0.003  0.017
   31  0.007  0.002  0.004  0.013
   32  0.003  0.002  0.004  0.009
   33  0.003  0.001  0.004  0.008
   34  0.001  0.001  0.004  0.005
   35  0.000  0.000  0.003  0.003
   36  0.000  0.005  0.016  0.022
tot    0.343  0.114  0.193  0.649
 
band     5 # energy   -5.73741078 # occ.  2.00000000
 
ion      s      p      d    tot
    1  0.000  0.003  0.005  0.007
    2  0.001  0.001  0.002  0.003
    3  0.003  0.001  0.002  0.006
    4  0.001  0.001  0.002  0.004
    5  0.000  0.002  0.003  0.004
    6  0.004  0.001  0.002  0.007
    7  0.008  0.002  0.002  0.012
    8  0.008  0.002  0.002  0.012
    9  0.000  0.000  0.003  0.003
   10  0.007  0.003  0.012  0.022
   11  0.015  0.001  0.006  0.022
   12  0.023  0.003  0.009  0.036
   13  0.006  0.007  0.004  0.018
   14  0.002  0.011  0.003  0.016
   15  0.012  0.003  0.003  0.018
   16  0.055  0.004  0.004  0.063
   17  0.005  0.003  0.007  0.015
   18  0.001  0.003  0.009  0.014
   19  0.039  0.001  0.007  0.047
   20  0.007  0.001  0.018  0.026
   21  0.025  0.002  0.014  0.040
   22  0.000  0.006  0.005  0.011
   23  0.058  0.004  0.006  0.068
   24  0.000  0.007  0.006  0.013
   25  0.005  0.011  0.004  0.020
   26  0.017  0.007  0.005  0.029
   27  0.001  0.002  0.004  0.007
   28  0.000  0.004  0.005  0.008
   29  0.000  0.001  0.004  0.005
   30  0.001  0.001  0.004  0.007
   31  0.006  0.001  0.003  0.011
   32  0.010  0.002  0.003  0.015
   33  0.009  0.003  0.004  0.016
   34  0.012  0.003  0.004  0.019
   35  0.000  0.000  0.003  0.003
   36  0.000  0.005  0.016  0.022
tot    0.343  0.114  0.193  0.649
 
band     6 # energy   -5.69750589 # occ.  2.00000000
 
ion      s      p      d    tot
    1  0.008  0.001  0.000  0.010
    2  0.000  0.002  0.004  0.005
    3  0.000  0.002  0.004  0.005
    4  0.000  0.002  0.004  0.005
    5  0.020  0.003  0.001  0.024
    6  0.000  0.002  0.004  0.005
    7  0.000  0.002  0.004  0.005
    8  0.000  0.002  0.004  0.005
    9  0.001  0.000  0.000  0.002
   10  0.011  0.008  0.004  0.023
   11  0.029  0.006  0.005  0.041
   12  0.011  0.008  0.004  0.023
   13  0.030  0.006  0.005  0.041
   14  0.029  0.006  0.005  0.041
   15  0.005  0.000  0.011  0.017
   16  0.011  0.008  0.004  0.023
   17  0.005  0.000  0.011  0.017
   18  0.005  0.000  0.011  0.017
   19  0.025  0.002  0.010  0.037
   20  0.024  0.010  0.002  0.036
   21  0.024  0.010  0.002  0.036
   22  0.000  0.003  0.009  0.012
   23  0.024  0.010  0.002  0.036
   24  0.000  0.003  0.009  0.012
   25  0.025  0.002  0.010  0.037
   26  0.025  0.002  0.010  0.037
   27  0.000  0.003  0.009  0.012
   28  0.013  0.002  0.001  0.016
   29  0.000  0.002  0.005  0.007
   30  0.000  0.002  0.005  0.007
   31  0.000  0.002  0.005  0.007
   32  0.000  0.002  0.005  0.007
   33  0.000  0.002  0.005  0.007
   34  0.000  0.002  0.005  0.007
   35  0.000  0.000  0.000  0.000
   36  0.035  0.006  0.001  0.042
tot    0.361  0.120  0.179  0.659
 
band     7 # energy   -5.68864589 # occ.  2.00000000
 
ion      s      p      d    tot
    1  0.000  0.000  0.002  0.002
    2  0.009  0.002  0.002  0.013
    3  0.004  0.001  0.002  0.007
    4  0.009  0.002  0.002  0.013
    5  0.000  0.001  0.004  0.006
    6  0.002  0.001  0.002  0.005
    7  0.003  0.001  0.002  0.006
    8  0.001  0.001  0.002  0.004
    9  0.000  0.003  0.004  0.007
   10  0.000  0.009  0.004  0.013
   11  0.035  0.004  0.005  0.044
   12  0.000  0.004  0.004  0.008
   13  0.030  0.003  0.006  0.039
   14  0.000  0.000  0.015  0.016
   15  0.034  0.003  0.006  0.043
   16  0.000  0.003  0.004  0.007
   17  0.029  0.004  0.006  0.039
   18  0.000  0.010  0.006  0.016
   19  0.020  0.004  0.005  0.028
   20  0.000  0.015  0.001  0.015
   21  0.007  0.005  0.005  0.017
   22  0.043  0.004  0.006  0.053
   23  0.008  0.003  0.006  0.017
   24  0.000  0.006  0.011  0.017
   25  0.000  0.002  0.015  0.017
   26  0.017  0.003  0.006  0.026
   27  0.051  0.004  0.006  0.060
   28  0.000  0.001  0.005  0.006
   29  0.013  0.003  0.003  0.019
   30  0.006  0.002  0.004  0.012
   31  0.013  0.003  0.003  0.019
   32  0.002  0.001  0.004  0.007
   33  0.004  0.002  0.004  0.010
   34  0.001  0.001  0.004  0.006
   35  0.000  0.004  0.006  0.010
   36  0.000  0.004  0.009  0.013
tot    0.341  0.117  0.183  0.641
 
band     8 # energy   -5.68860183 # occ.  2.00000000
 
ion      s      p      d    tot
    1  0.000  0.000  0.002  0.002
    2  0.000  0.001  0.002  0.003
    3  0.005  0.002  0.002  0.009
    4  0.000  0.001  0.002  0.003
    5  0.000  0.001  0.004  0.006
    6  0.007  0.002  0.002  0.011
    7  0.006  0.002  0.002  0.010
    8  0.008  0.002  0.002  0.012
    9  0.000  0.003  0.004  0.007
   10  0.000  0.001  0.004  0.006
   11  0.008  0.001  0.013  0.022
   12  0.000  0.007  0.004  0.011
   13  0.014  0.001  0.011  0.026
   14  0.043  0.004  0.002  0.050
   15  0.008  0.008  0.006  0.022
   16  0.000  0.008  0.004  0.012
   17  0.013  0.007  0.006  0.026
   18  0.042  0.001  0.006  0.049
   19  0.005  0.002  0.012  0.019
   20  0.009  0.000  0.007  0.017
   21  0.003  0.010  0.003  0.016
   22  0.020  0.005  0.009  0.034
   23  0.002  0.012  0.002  0.016
   24  0.062  0.003  0.004  0.070
   25  0.025  0.004  0.002  0.031
   26  0.008  0.002  0.011  0.021
   27  0.012  0.005  0.010  0.027
   28  0.000  0.001  0.005  0.006
   29  0.000  0.001  0.004  0.005
   30  0.007  0.002  0.003  0.012
   31  0.001  0.001  0.004  0.006
   32  0.011  0.003  0.004  0.017
   33  0.009  0.002  0.003  0.014
   34  0.012  0.003  0.004  0.019
   35  0.000  0.004  0.006  0.010
   36  0.000  0.004  0.009  0.013
tot    0.341  0.117  0.183  0.641
 
band     9 # energy   -5.67414365 # occ.  2.00000000
 
ion      s      p      d    tot
    1  0.014  0.002  0.000  0.016
    2  0.000  0.002  0.004  0.006
    3  0.000  0.002  0.004  0.006
    4  0.000  0.002  0.004  0.006
    5  0.002  0.000  0.000  0.002
    6  0.000  0.002  0.004  0.006
    7  0.000  0.002  0.004  0.006
    8  0.000  0.002  0.004  0.006
    9  0.015  0.003  0.001  0.019
   10  0.018  0.001  0.011  0.030
   11  0.000  0.003  0.008  0.012
   12  0.018  0.001  0.011  0.030
   13  0.000  0.003  0.008  0.012
   14  0.000  0.003  0.008  0.012
   15  0.027  0.009  0.002  0.037
   16  0.018  0.001  0.010  0.030
   17  0.027  0.009  0.002  0.037
   18  0.027  0.009  0.002  0.037
   19  0.007  0.007  0.004  0.019
   20  0.006  0.000  0.015  0.021
   21  0.006  0.000  0.015  0.021
   22  0.034  0.006  0.004  0.044
   23  0.006  0.000  0.015  0.021
   24  0.034  0.006  0.004  0.044
   25  0.007  0.007  0.004  0.019
   26  0.007  0.007  0.004  0.019
   27  0.034  0.006  0.004  0.044
   28  0.010  0.001  0.000  0.011
   29  0.000  0.002  0.005  0.007
   30  0.000  0.002  0.005  0.007
   31  0.000  0.002  0.005  0.007
   32  0.000  0.002  0.005  0.007
   33  0.000  0.002  0.005  0.007
   34  0.000  0.002  0.005  0.007
   35  0.018  0.003  0.001  0.023
   36  0.008  0.001  0.000  0.010
tot    0.346  0.113  0.187  0.645
 
band    10 # energy   -5.01674086 # occ.  2.00000000
 
ion      s      p      d    tot
    1  0.000  0.003  0.009  0.012
    2  0.018  0.004  0.005  0.027
    3  0.000  0.001  0.004  0.006
    4  0.013  0.003  0.004  0.020
    5  0.000  0.000  0.009  0.009
    6  0.007  0.002  0.005  0.014
    7  0.003  0.002  0.004  0.009
    8  0.015  0.003  0.005  0.023
    9  0.000  0.005  0.008  0.013
   10  0.000  0.005  0.012  0.018
   11  0.003  0.002  0.010  0.015
   12  0.008  0.001  0.007  0.016
   13  0.006  0.002  0.007  0.014
   14  0.000  0.002  0.014  0.017
   15  0.015  0.002  0.011  0.029
   16  0.005  0.003  0.009  0.017
   17  0.026  0.004  0.005  0.035
   18  0.001  0.001  0.019  0.021
   19  0.004  0.003  0.009  0.017
   20  0.000  0.002  0.021  0.023
   21  0.000  0.001  0.012  0.013
   22  0.007  0.004  0.004  0.015
   23  0.000  0.001  0.016  0.017
   24  0.000  0.001  0.027  0.028
   25  0.000  0.000  0.010  0.010
   26  0.007  0.006  0.009  0.022
   27  0.004  0.002  0.014  0.021
   28  0.000  0.004  0.008  0.012
   29  0.027  0.003  0.012  0.042
   30  0.000  0.002  0.011  0.013
   31  0.018  0.003  0.011  0.032
   32  0.012  0.002  0.012  0.025
   33  0.003  0.002  0.011  0.017
   34  0.024  0.002  0.012  0.038
   35  0.000  0.006  0.009  0.014
   36  0.000  0.000  0.038  0.038
tot    0.230  0.090  0.392  0.712
 
band    11 # energy   -5.01670257 # occ.  2.00000000
 
ion      s      p      d    tot
    1  0.000  0.003  0.009  0.012
    2  0.000  0.001  0.004  0.006
    3  0.019  0.004  0.005  0.027
    4  0.006  0.002  0.005  0.012
    5  0.000  0.000  0.009  0.009
    6  0.012  0.003  0.004  0.019
    7  0.016  0.003  0.005  0.024
    8  0.004  0.002  0.004  0.010
    9  0.000  0.005  0.008  0.013
   10  0.009  0.001  0.007  0.016
   11  0.003  0.002  0.011  0.015
   12  0.001  0.005  0.012  0.018
   13  0.001  0.002  0.014  0.017
   14  0.006  0.002  0.006  0.014
   15  0.014  0.002  0.012  0.028
   16  0.004  0.003  0.010  0.017
   17  0.002  0.001  0.018  0.021
   18  0.027  0.004  0.005  0.036
   19  0.004  0.003  0.009  0.016
   20  0.000  0.001  0.012  0.012
   21  0.000  0.002  0.020  0.022
   22  0.001  0.001  0.026  0.028
   23  0.000  0.001  0.017  0.018
   24  0.008  0.004  0.003  0.015
   25  0.007  0.006  0.009  0.022
   26  0.001  0.001  0.010  0.011
   27  0.004  0.002  0.016  0.022
   28  0.000  0.004  0.008  0.012
   29  0.001  0.002  0.011  0.014
   30  0.028  0.003  0.012  0.042
   31  0.010  0.002  0.012  0.023
   32  0.017  0.003  0.011  0.030
   33  0.025  0.002  0.012  0.039
   34  0.005  0.002  0.011  0.018
   35  0.000  0.006  0.009  0.014
   36  0.000  0.000  0.038  0.038
tot    0.230  0.090  0.392  0.712
 
band    12 # energy   -4.99659373 # occ.  2.00000000
 
ion      s      p      d    tot
    1  0.002  0.001  0.011  0.015
    2  0.007  0.001  0.010  0.017
    3  0.007  0.001  0.010  0.017
    4  0.007  0.001  0.010  0.017
    5  0.007  0.000  0.009  0.017
    6  0.007  0.001  0.010  0.017
    7  0.007  0.001  0.010  0.017
    8  0.007  0.001  0.010  0.017
    9  0.012  0.000  0.009  0.021
   10  0.011  0.000  0.024  0.036
   11  0.006  0.000  0.023  0.029
   12  0.011  0.000  0.024  0.036
   13  0.006  0.000  0.023  0.029
   14  0.006  0.000  0.023  0.029
   15  0.006  0.000  0.023  0.028
   16  0.011  0.000  0.024  0.036
   17  0.006  0.000  0.023  0.028
   18  0.006  0.000  0.023  0.028
   19  0.007  0.001  0.018  0.026
   20  0.006  0.000  0.029  0.035
   21  0.006  0.000  0.029  0.035
   22  0.003  0.000  0.015  0.019
   23  0.006  0.000  0.029  0.035
   24  0.003  0.000  0.015  0.019
   25  0.007  0.001  0.018  0.026
   26  0.007  0.001  0.018  0.026
   27  0.003  0.000  0.015  0.019
   28  0.000  0.001  0.006  0.006
   29  0.003  0.001  0.009  0.012
   30  0.003  0.001  0.009  0.012
   31  0.003  0.001  0.009  0.012
   32  0.003  0.001  0.009  0.012
   33  0.003  0.001  0.009  0.012
   34  0.003  0.001  0.009  0.012
   35  0.003  0.000  0.005  0.008
   36  0.009  0.001  0.014  0.024
tot    0.207  0.014  0.565  0.786
 
band    13 # energy   -4.94777305 # occ.  2.00000000
 
ion      s      p      d    tot
    1  0.000  0.003  0.009  0.012
    2  0.020  0.004  0.005  0.029
    3  0.001  0.002  0.005  0.008
    4  0.019  0.004  0.005  0.028
    5  0.000  0.006  0.009  0.015
    6  0.010  0.003  0.005  0.019
    7  0.002  0.002  0.005  0.008
    8  0.012  0.003  0.005  0.020
    9  0.000  0.000  0.012  0.012
   10  0.020  0.005  0.007  0.032
   11  0.005  0.003  0.019  0.027
   12  0.004  0.001  0.018  0.023
   13  0.004  0.003  0.020  0.027
   14  0.020  0.003  0.005  0.028
   15  0.000  0.003  0.013  0.016
   16  0.005  0.001  0.017  0.024
   17  0.000  0.003  0.014  0.017
   18  0.000  0.000  0.008  0.009
   19  0.001  0.002  0.019  0.022
   20  0.018  0.006  0.005  0.029
   21  0.004  0.002  0.028  0.034
   22  0.001  0.001  0.011  0.013
   23  0.005  0.002  0.027  0.034
   24  0.006  0.003  0.010  0.019
   25  0.003  0.000  0.006  0.009
   26  0.001  0.002  0.020  0.023
   27  0.002  0.002  0.011  0.014
   28  0.000  0.002  0.012  0.014
   29  0.017  0.003  0.007  0.027
   30  0.000  0.001  0.006  0.008
   31  0.016  0.003  0.007  0.027
   32  0.011  0.003  0.008  0.021
   33  0.001  0.001  0.006  0.008
   34  0.012  0.003  0.008  0.022
   35  0.000  0.001  0.011  0.011
   36  0.000  0.013  0.014  0.027
tot    0.219  0.099  0.399  0.717
 
band    14 # energy   -4.94770155 # occ.  2.00000000
 
ion      s      p      d    tot
    1  0.000  0.003  0.009  0.012
    2  0.001  0.002  0.005  0.008
    3  0.020  0.004  0.005  0.030
    4  0.002  0.002  0.005  0.009
    5  0.000  0.006  0.009  0.015
    6  0.011  0.003  0.005  0.019
    7  0.020  0.004  0.005  0.029
    8  0.010  0.003  0.005  0.017
    9  0.000  0.000  0.012  0.012
   10  0.000  0.000  0.021  0.021
   11  0.014  0.003  0.010  0.028
   12  0.015  0.004  0.010  0.029
   13  0.015  0.003  0.010  0.028
   14  0.000  0.003  0.025  0.027
   15  0.000  0.001  0.010  0.011
   16  0.014  0.003  0.011  0.029
   17  0.000  0.001  0.010  0.011
   18  0.000  0.004  0.015  0.019
   19  0.002  0.001  0.011  0.014
   20  0.000  0.001  0.035  0.035
   21  0.014  0.005  0.012  0.031
   22  0.004  0.003  0.010  0.017
   23  0.013  0.004  0.013  0.031
   24  0.000  0.001  0.011  0.012
   25  0.000  0.003  0.025  0.027
   26  0.002  0.001  0.010  0.013
   27  0.004  0.002  0.010  0.017
   28  0.000  0.002  0.012  0.014
   29  0.002  0.002  0.007  0.010
   30  0.018  0.004  0.008  0.030
   31  0.003  0.002  0.007  0.011
   32  0.008  0.002  0.006  0.017
   33  0.018  0.004  0.008  0.030
   34  0.007  0.002  0.006  0.015
   35  0.000  0.001  0.011  0.011
   36  0.000  0.013  0.014  0.027
tot    0.219  0.099  0.399  0.717
 
band    15 # energy   -4.94050093 # occ.  2.00000000
 
ion      s      p      d    tot
    1  0.044  0.004  0.000  0.048
    2  0.000  0.003  0.009  0.012
    3  0.000  0.003  0.009  0.012
    4  0.000  0.003  0.009  0.012
    5  0.008  0.002  0.001  0.011
    6  0.000  0.003  0.009  0.012
    7  0.000  0.003  0.009  0.012
    8  0.000  0.003  0.009  0.012
    9  0.006  0.001  0.000  0.008
   10  0.007  0.004  0.014  0.026
   11  0.008  0.001  0.011  0.020
   12  0.008  0.004  0.014  0.026
   13  0.008  0.001  0.011  0.020
   14  0.008  0.001  0.011  0.020
   15  0.001  0.001  0.015  0.017
   16  0.008  0.004  0.014  0.026
   17  0.001  0.001  0.015  0.017
   18  0.001  0.001  0.015  0.017
   19  0.007  0.004  0.014  0.025
   20  0.002  0.001  0.023  0.026
   21  0.002  0.001  0.023  0.026
   22  0.006  0.001  0.009  0.016
   23  0.002  0.001  0.023  0.026
   24  0.006  0.001  0.009  0.016
   25  0.007  0.004  0.014  0.025
   26  0.007  0.004  0.014  0.025
   27  0.006  0.001  0.009  0.016
   28  0.049  0.004  0.000  0.053
   29  0.000  0.003  0.014  0.017
   30  0.000  0.003  0.014  0.017
   31  0.000  0.003  0.014  0.017
   32  0.000  0.003  0.014  0.017
   33  0.000  0.003  0.014  0.017
   34  0.000  0.003  0.014  0.017
   35  0.006  0.001  0.001  0.008
   36  0.020  0.004  0.001  0.024
tot    0.232  0.091  0.397  0.721
 
band    16 # energy   -4.92518398 # occ.  2.00000000
 
ion      s      p      d    tot
    1  0.000  0.000  0.000  0.000
    2  0.000  0.003  0.010  0.013
    3  0.000  0.003  0.010  0.013
    4  0.000  0.003  0.010  0.013
    5  0.032  0.003  0.000  0.035
    6  0.000  0.003  0.010  0.013
    7  0.000  0.003  0.010  0.013
    8  0.000  0.003  0.010  0.013
    9  0.031  0.004  0.001  0.036
   10  0.001  0.000  0.015  0.016
   11  0.005  0.004  0.016  0.024
   12  0.001  0.000  0.015  0.016
   13  0.005  0.004  0.016  0.024
   14  0.005  0.004  0.016  0.024
   15  0.013  0.004  0.010  0.026
   16  0.001  0.000  0.015  0.016
   17  0.013  0.004  0.010  0.026
   18  0.012  0.004  0.010  0.026
   19  0.001  0.000  0.015  0.015
   20  0.008  0.003  0.012  0.023
   21  0.008  0.003  0.012  0.023
   22  0.006  0.004  0.017  0.027
   23  0.008  0.003  0.012  0.023
   24  0.006  0.004  0.017  0.027
   25  0.001  0.000  0.015  0.015
   26  0.001  0.000  0.015  0.015
   27  0.006  0.004  0.017  0.027
   28  0.000  0.000  0.000  0.000
   29  0.000  0.003  0.013  0.016
   30  0.000  0.003  0.013  0.016
   31  0.000  0.003  0.013  0.016
   32  0.000  0.003  0.013  0.016
   33  0.000  0.003  0.013  0.016
   34  0.000  0.003  0.013  0.016
   35  0.034  0.003  0.000  0.038
   36  0.050  0.006  0.001  0.057
tot    0.245  0.096  0.396  0.736
 
band    17 # energy   -4.38655290 # occ.  2.00000000
 
ion      s      p      d    tot
    1  0.000  0.001  0.025  0.026
    2  0.016  0.002  0.007  0.024
    3  0.007  0.001  0.007  0.015
    4  0.015  0.002  0.007  0.024
    5  0.000  0.001  0.013  0.013
    6  0.003  0.001  0.007  0.011
    7  0.005  0.001  0.007  0.013
    8  0.002  0.001  0.007  0.010
    9  0.000  0.003  0.004  0.007
   10  0.000  0.000  0.058  0.058
   11  0.000  0.003  0.015  0.018
   12  0.000  0.000  0.020  0.021
   13  0.000  0.003  0.014  0.017
   14  0.000  0.000  0.004  0.004
   15  0.000  0.005  0.014  0.019
   16  0.000  0.000  0.016  0.017
   17  0.000  0.005  0.015  0.020
   18  0.000  0.000  0.027  0.027
   19  0.006  0.003  0.013  0.021
   20  0.000  0.000  0.064  0.064
   21  0.000  0.000  0.029  0.030
   22  0.004  0.001  0.014  0.019
   23  0.000  0.000  0.026  0.026
   24  0.000  0.000  0.010  0.011
   25  0.000  0.000  0.023  0.023
   26  0.005  0.002  0.014  0.021
   27  0.004  0.001  0.014  0.019
   28  0.000  0.001  0.006  0.007
   29  0.007  0.000  0.026  0.033
   30  0.000  0.001  0.018  0.019
   31  0.008  0.000  0.027  0.035
   32  0.011  0.000  0.024  0.035
   33  0.000  0.001  0.018  0.019
   34  0.010  0.000  0.023  0.033
   35  0.000  0.001  0.010  0.011
   36  0.000  0.000  0.051  0.051
tot    0.101  0.042  0.676  0.820
 
band    18 # energy   -4.38650162 # occ.  2.00000000
 
ion      s      p      d    tot
    1  0.000  0.001  0.025  0.026
    2  0.000  0.001  0.007  0.008
    3  0.009  0.001  0.007  0.018
    4  0.001  0.001  0.007  0.008
    5  0.000  0.001  0.013  0.013
    6  0.013  0.001  0.007  0.021
    7  0.010  0.001  0.007  0.019
    8  0.014  0.002  0.007  0.022
    9  0.000  0.003  0.004  0.007
   10  0.000  0.000  0.005  0.006
   11  0.000  0.001  0.007  0.008
   12  0.000  0.000  0.043  0.043
   13  0.000  0.001  0.008  0.009
   14  0.000  0.004  0.018  0.022
   15  0.000  0.001  0.023  0.025
   16  0.000  0.000  0.047  0.047
   17  0.000  0.002  0.022  0.024
   18  0.000  0.007  0.010  0.017
   19  0.002  0.001  0.020  0.022
   20  0.000  0.000  0.016  0.016
   21  0.000  0.000  0.050  0.050
   22  0.001  0.001  0.012  0.014
   23  0.000  0.000  0.053  0.054
   24  0.005  0.002  0.015  0.022
   25  0.008  0.003  0.010  0.021
   26  0.002  0.001  0.019  0.022
   27  0.001  0.001  0.011  0.013
   28  0.000  0.001  0.006  0.007
   29  0.005  0.001  0.019  0.025
   30  0.012  0.000  0.027  0.039
   31  0.004  0.001  0.019  0.023
   32  0.001  0.001  0.022  0.023
   33  0.011  0.000  0.028  0.039
   34  0.002  0.001  0.022  0.025
   35  0.000  0.001  0.010  0.011
   36  0.000  0.000  0.051  0.051
tot    0.101  0.042  0.676  0.820
 
band    19 # energy   -4.28865017 # occ.  2.00000000
 
ion      s      p      d    tot
    1  0.024  0.001  0.000  0.025
    2  0.000  0.001  0.015  0.016
    3  0.000  0.001  0.015  0.016
    4  0.000  0.001  0.015  0.016
    5  0.019  0.001  0.001  0.021
    6  0.000  0.001  0.015  0.016
    7  0.000  0.001  0.015  0.016
    8  0.000  0.001  0.015  0.016
    9  0.000  0.000  0.000  0.000
   10  0.000  0.002  0.030  0.032
   11  0.000  0.003  0.027  0.030
   12  0.000  0.002  0.030  0.032
   13  0.000  0.003  0.027  0.030
   14  0.000  0.003  0.027  0.030
   15  0.000  0.000  0.003  0.004
   16  0.000  0.002  0.030  0.032
   17  0.000  0.000  0.003  0.004
   18  0.000  0.000  0.003  0.004
   19  0.001  0.001  0.015  0.018
   20  0.001  0.002  0.040  0.044
   21  0.001  0.002  0.040  0.044
   22  0.000  0.000  0.013  0.013
   23  0.001  0.002  0.040  0.044
   24  0.000  0.000  0.013  0.013
   25  0.001  0.001  0.015  0.018
   26  0.001  0.001  0.015  0.018
   27  0.000  0.000  0.013  0.013
   28  0.005  0.000  0.004  0.009
   29  0.000  0.001  0.031  0.032
   30  0.000  0.001  0.031  0.032
   31  0.000  0.001  0.031  0.032
   32  0.000  0.001  0.031  0.032
   33  0.000  0.001  0.031  0.032
   34  0.000  0.001  0.031  0.032
   35  0.014  0.000  0.001  0.016
   36  0.042  0.001  0.004  0.046
tot    0.113  0.048  0.671  0.832
 
band    20 # energy   -4.27165576 # occ.  2.00000000
 
ion      s      p      d    tot
    1  0.006  0.000  0.001  0.007
    2  0.000  0.001  0.015  0.016
    3  0.000  0.001  0.015  0.016
    4  0.000  0.001  0.015  0.016
    5  0.007  0.000  0.000  0.008
    6  0.000  0.001  0.014  0.016
    7  0.000  0.001  0.015  0.016
    8  0.000  0.001  0.014  0.016
    9  0.027  0.001  0.001  0.029
   10  0.000  0.002  0.011  0.013
   11  0.000  0.000  0.013  0.013
   12  0.000  0.002  0.011  0.013
   13  0.000  0.000  0.013  0.013
   14  0.000  0.000  0.013  0.013
   15  0.000  0.003  0.034  0.037
   16  0.000  0.002  0.011  0.013
   17  0.000  0.003  0.034  0.037
   18  0.000  0.003  0.034  0.037
   19  0.001  0.002  0.025  0.027
   20  0.000  0.000  0.017  0.017
   21  0.000  0.000  0.017  0.017
   22  0.002  0.002  0.027  0.032
   23  0.000  0.000  0.017  0.017
   24  0.002  0.002  0.027  0.032
   25  0.001  0.002  0.025  0.027
   26  0.001  0.002  0.025  0.027
   27  0.002  0.002  0.027  0.032
   28  0.023  0.000  0.003  0.027
   29  0.000  0.001  0.032  0.033
   30  0.000  0.001  0.032  0.033
   31  0.000  0.001  0.032  0.033
   32  0.000  0.001  0.032  0.033
   33  0.000  0.001  0.032  0.033
   34  0.000  0.001  0.032  0.033
   35  0.020  0.000  0.007  0.027
   36  0.001  0.000  0.001  0.002
tot    0.093  0.045  0.672  0.810
 
band    21 # energy   -4.25250411 # occ.  2.00000000
 
ion      s      p      d    tot
    1  0.000  0.002  0.002  0.004
    2  0.015  0.001  0.009  0.025
    3  0.007  0.001  0.008  0.016
    4  0.015  0.001  0.009  0.025
    5  0.000  0.002  0.018  0.020
    6  0.002  0.001  0.009  0.011
    7  0.006  0.001  0.008  0.016
    8  0.002  0.001  0.009  0.011
    9  0.000  0.000  0.029  0.029
   10  0.001  0.007  0.021  0.029
   11  0.000  0.001  0.039  0.040
   12  0.000  0.002  0.009  0.011
   13  0.000  0.001  0.039  0.039
   14  0.001  0.003  0.004  0.007
   15  0.000  0.000  0.030  0.030
   16  0.000  0.002  0.009  0.010
   17  0.000  0.000  0.029  0.030
   18  0.000  0.001  0.010  0.011
   19  0.000  0.000  0.043  0.043
   20  0.003  0.006  0.023  0.032
   21  0.001  0.002  0.019  0.021
   22  0.000  0.001  0.023  0.024
   23  0.001  0.001  0.019  0.021
   24  0.000  0.003  0.014  0.017
   25  0.001  0.001  0.004  0.006
   26  0.000  0.000  0.042  0.042
   27  0.000  0.001  0.023  0.024
   28  0.000  0.001  0.036  0.037
   29  0.011  0.001  0.015  0.027
   30  0.000  0.001  0.014  0.015
   31  0.011  0.001  0.015  0.027
   32  0.011  0.001  0.014  0.026
   33  0.000  0.001  0.014  0.015
   34  0.011  0.001  0.014  0.026
   35  0.000  0.000  0.033  0.033
   36  0.000  0.005  0.000  0.005
tot    0.097  0.053  0.655  0.804
 
band    22 # energy   -4.25241450 # occ.  2.00000000
 
ion      s      p      d    tot
    1  0.000  0.002  0.002  0.004
    2  0.000  0.001  0.008  0.010
    3  0.009  0.001  0.009  0.019
    4  0.001  0.001  0.008  0.010
    5  0.000  0.002  0.018  0.020
    6  0.013  0.001  0.009  0.023
    7  0.009  0.001  0.009  0.019
    8  0.014  0.001  0.009  0.023
    9  0.000  0.000  0.029  0.029
   10  0.000  0.000  0.004  0.005
   11  0.000  0.002  0.015  0.018
   12  0.000  0.005  0.017  0.023
   13  0.000  0.002  0.016  0.019
   14  0.000  0.000  0.051  0.051
   15  0.000  0.001  0.017  0.017
   16  0.000  0.006  0.017  0.023