PROCAR new format
# of k-points:   10         # of bands:  252         # of ions:   37

 k-point     1 :    0.00000000 0.00000000 0.00000000     weight = 0.01562500

band     1 # energy  -13.08942651 # occ.  2.00000000
 
ion      s      p      d    tot
    1  0.000  0.000  0.000  0.000
    2  0.000  0.000  0.000  0.000
    3  0.000  0.000  0.000  0.000
    4  0.000  0.000  0.000  0.000
    5  0.000  0.000  0.000  0.000
    6  0.000  0.000  0.000  0.000
    7  0.000  0.000  0.000  0.000
    8  0.000  0.000  0.000  0.000
    9  0.000  0.000  0.000  0.000
   10  0.000  0.000  0.000  0.000
   11  0.000  0.000  0.000  0.000
   12  0.000  0.000  0.000  0.000
   13  0.000  0.000  0.000  0.000
   14  0.000  0.000  0.000  0.000
   15  0.000  0.000  0.000  0.000
   16  0.000  0.000  0.000  0.000
   17  0.000  0.000  0.000  0.000
   18  0.000  0.000  0.000  0.000
   19  0.000  0.000  0.000  0.000
   20  0.000  0.000  0.000  0.000
   21  0.000  0.000  0.000  0.000
   22  0.000  0.000  0.000  0.000
   23  0.000  0.000  0.000  0.000
   24  0.000  0.000  0.000  0.000
   25  0.000  0.000  0.000  0.000
   26  0.000  0.000  0.000  0.000
   27  0.000  0.000  0.000  0.000
   28  0.000  0.000  0.000  0.000
   29  0.000  0.000  0.000  0.001
   30  0.000  0.000  0.000  0.001
   31  0.000  0.000  0.000  0.001
   32  0.000  0.000  0.000  0.001
   33  0.000  0.000  0.000  0.001
   34  0.000  0.000  0.000  0.001
   35  0.000  0.000  0.000  0.000
   36  0.071  0.075  0.104  0.250
   37  0.627  0.019  0.000  0.647
tot    0.700  0.095  0.105  0.901
 
band     2 # energy   -6.33339394 # occ.  2.00000000
 
ion      s      p      d    tot
    1  0.006  0.001  0.000  0.007
    2  0.006  0.001  0.000  0.006
    3  0.006  0.001  0.000  0.006
    4  0.006  0.001  0.000  0.006
    5  0.006  0.001  0.000  0.006
    6  0.006  0.001  0.000  0.006
    7  0.006  0.001  0.000  0.006
    8  0.006  0.001  0.000  0.006
    9  0.006  0.001  0.000  0.006
   10  0.023  0.000  0.000  0.023
   11  0.024  0.000  0.000  0.024
   12  0.023  0.000  0.000  0.023
   13  0.024  0.000  0.000  0.024
   14  0.024  0.000  0.000  0.024
   15  0.023  0.000  0.000  0.024
   16  0.023  0.000  0.000  0.023
   17  0.023  0.000  0.000  0.024
   18  0.023  0.000  0.000  0.024
   19  0.022  0.000  0.001  0.023
   20  0.025  0.000  0.000  0.026
   21  0.025  0.000  0.000  0.026
   22  0.023  0.000  0.000  0.024
   23  0.025  0.000  0.000  0.026
   24  0.023  0.000  0.000  0.024
   25  0.022  0.000  0.001  0.023
   26  0.022  0.000  0.001  0.023
   27  0.023  0.000  0.000  0.024
   28  0.005  0.001  0.000  0.006
   29  0.005  0.001  0.000  0.006
   30  0.005  0.001  0.000  0.006
   31  0.005  0.001  0.000  0.006
   32  0.005  0.001  0.000  0.006
   33  0.005  0.001  0.000  0.006
   34  0.005  0.001  0.000  0.006
   35  0.005  0.001  0.000  0.006
   36  0.005  0.002  0.000  0.006
   37  0.001  0.000  0.000  0.001
tot    0.523  0.014  0.007  0.545
 
band     3 # energy   -5.46096042 # occ.  2.00000000
 
ion      s      p      d    tot
    1  0.008  0.000  0.000  0.008
    2  0.008  0.000  0.000  0.008
    3  0.008  0.000  0.000  0.008
    4  0.008  0.000  0.000  0.008
    5  0.008  0.000  0.000  0.008
    6  0.008  0.000  0.000  0.008
    7  0.008  0.000  0.000  0.008
    8  0.008  0.000  0.000  0.008
    9  0.008  0.000  0.000  0.009
   10  0.011  0.001  0.016  0.028
   11  0.011  0.001  0.016  0.028
   12  0.011  0.001  0.016  0.028
   13  0.011  0.001  0.016  0.028
   14  0.011  0.001  0.016  0.028
   15  0.011  0.001  0.014  0.027
   16  0.011  0.001  0.016  0.028
   17  0.011  0.001  0.014  0.027
   18  0.011  0.001  0.014  0.027
   19  0.011  0.001  0.019  0.031
   20  0.014  0.001  0.021  0.036
   21  0.014  0.001  0.021  0.036
   22  0.012  0.001  0.018  0.030
   23  0.014  0.001  0.021  0.036
   24  0.012  0.001  0.018  0.030
   25  0.011  0.001  0.019  0.031
   26  0.011  0.001  0.019  0.031
   27  0.012  0.001  0.018  0.030
   28  0.005  0.000  0.000  0.006
   29  0.005  0.000  0.000  0.006
   30  0.005  0.000  0.000  0.006
   31  0.005  0.000  0.000  0.006
   32  0.005  0.000  0.000  0.006
   33  0.005  0.000  0.000  0.006
   34  0.005  0.000  0.000  0.006
   35  0.005  0.000  0.000  0.005
   36  0.005  0.001  0.000  0.006
   37  0.001  0.000  0.000  0.001
tot    0.325  0.025  0.315  0.666
 
band     4 # energy   -5.16027488 # occ.  2.00000000
 
ion      s      p      d    tot
    1  0.016  0.000  0.027  0.042
    2  0.016  0.000  0.026  0.042
    3  0.016  0.000  0.026  0.042
    4  0.016  0.000  0.026  0.042
    5  0.016  0.000  0.027  0.043
    6  0.016  0.000  0.026  0.042
    7  0.016  0.000  0.026  0.042
    8  0.016  0.000  0.026  0.042
    9  0.017  0.000  0.024  0.042
   10  0.000  0.001  0.019  0.020
   11  0.001  0.001  0.023  0.024
   12  0.000  0.001  0.019  0.020
   13  0.001  0.001  0.023  0.024
   14  0.001  0.001  0.023  0.024
   15  0.000  0.001  0.022  0.023
   16  0.000  0.001  0.019  0.020
   17  0.000  0.001  0.022  0.023
   18  0.000  0.001  0.022  0.023
   19  0.000  0.000  0.006  0.006
   20  0.000  0.000  0.010  0.010
   21  0.000  0.000  0.010  0.010
   22  0.000  0.000  0.011  0.011
   23  0.000  0.000  0.010  0.010
   24  0.000  0.000  0.011  0.011
   25  0.000  0.000  0.006  0.006
   26  0.000  0.000  0.006  0.006
   27  0.000  0.000  0.011  0.011
   28  0.005  0.000  0.006  0.011
   29  0.005  0.000  0.006  0.011
   30  0.005  0.000  0.006  0.011
   31  0.005  0.000  0.006  0.011
   32  0.005  0.000  0.006  0.011
   33  0.005  0.000  0.006  0.011
   34  0.005  0.000  0.006  0.011
   35  0.006  0.000  0.007  0.013
   36  0.003  0.000  0.002  0.006
   37  0.000  0.000  0.000  0.000
tot    0.198  0.007  0.554  0.759
 
band     5 # energy   -5.09900807 # occ.  2.00000000
 
ion      s      p      d    tot
    1  0.006  0.001  0.001  0.007
    2  0.000  0.000  0.004  0.005
    3  0.000  0.000  0.004  0.005
    4  0.000  0.000  0.004  0.005
    5  0.000  0.000  0.001  0.001
    6  0.000  0.000  0.004  0.005
    7  0.000  0.000  0.004  0.005
    8  0.000  0.000  0.004  0.005
    9  0.000  0.000  0.002  0.002
   10  0.004  0.000  0.031  0.035
   11  0.000  0.001  0.018  0.019
   12  0.004  0.000  0.031  0.035
   13  0.000  0.001  0.018  0.019
   14  0.000  0.001  0.018  0.019
   15  0.007  0.001  0.007  0.015
   16  0.004  0.000  0.031  0.035
   17  0.007  0.001  0.007  0.015
   18  0.007  0.001  0.007  0.015
   19  0.000  0.001  0.038  0.039
   20  0.009  0.000  0.095  0.104
   21  0.009  0.000  0.095  0.104
   22  0.017  0.001  0.007  0.025
   23  0.009  0.000  0.095  0.104
   24  0.017  0.001  0.007  0.025
   25  0.000  0.001  0.037  0.038
   26  0.000  0.001  0.038  0.039
   27  0.017  0.001  0.007  0.025
   28  0.000  0.000  0.001  0.002
   29  0.000  0.000  0.005  0.006
   30  0.000  0.000  0.005  0.005
   31  0.000  0.000  0.005  0.006
   32  0.000  0.000  0.005  0.005
   33  0.000  0.000  0.005  0.005
   34  0.000  0.000  0.005  0.005
   35  0.004  0.001  0.003  0.008
   36  0.006  0.003  0.006  0.016
   37  0.001  0.003  0.000  0.004
tot    0.128  0.019  0.660  0.808
 
band     6 # energy   -5.05691420 # occ.  2.00000000
 
ion      s      p      d    tot
    1  0.000  0.000  0.007  0.007
    2  0.002  0.000  0.003  0.005
    3  0.001  0.000  0.003  0.005
    4  0.002  0.000  0.003  0.005
    5  0.000  0.000  0.007  0.008
    6  0.000  0.000  0.002  0.003
    7  0.001  0.000  0.003  0.005
    8  0.000  0.000  0.002  0.003
    9  0.000  0.000  0.000  0.000
   10  0.000  0.000  0.033  0.033
   11  0.008  0.001  0.026  0.035
   12  0.010  0.001  0.013  0.024
   13  0.008  0.001  0.026  0.034
   14  0.000  0.001  0.017  0.018
   15  0.000  0.000  0.018  0.018
   16  0.010  0.001  0.013  0.024
   17  0.000  0.000  0.018  0.018
   18  0.000  0.000  0.023  0.024
   19  0.008  0.001  0.033  0.041
   20  0.000  0.001  0.114  0.115
   21  0.024  0.001  0.037  0.062
   22  0.004  0.000  0.037  0.041
   23  0.024  0.001  0.036  0.061
   24  0.000  0.000  0.091  0.092
   25  0.000  0.002  0.004  0.006
   26  0.008  0.001  0.032  0.041
   27  0.004  0.000  0.036  0.040
   28  0.000  0.000  0.001  0.002
   29  0.000  0.000  0.005  0.005
   30  0.001  0.000  0.002  0.003
   31  0.000  0.000  0.005  0.006
   32  0.002  0.001  0.007  0.010
   33  0.001  0.000  0.002  0.003
   34  0.002  0.001  0.007  0.010
   35  0.000  0.000  0.003  0.003
   36  0.000  0.001  0.003  0.003
   37  0.000  0.000  0.000  0.000
tot    0.118  0.016  0.675  0.809
 
band     7 # energy   -5.05689166 # occ.  2.00000000
 
ion      s      p      d    tot
    1  0.000  0.000  0.007  0.007
    2  0.000  0.000  0.003  0.003
    3  0.001  0.000  0.003  0.003
    4  0.000  0.000  0.003  0.003
    5  0.000  0.000  0.007  0.008
    6  0.002  0.000  0.003  0.005
    7  0.001  0.000  0.003  0.003
    8  0.002  0.000  0.003  0.005
    9  0.000  0.000  0.000  0.000
   10  0.013  0.001  0.006  0.020
   11  0.003  0.001  0.020  0.023
   12  0.003  0.000  0.026  0.030
   13  0.003  0.001  0.020  0.024
   14  0.010  0.000  0.029  0.040
   15  0.000  0.000  0.022  0.022
   16  0.003  0.000  0.027  0.030
   17  0.000  0.000  0.021  0.022
   18  0.000  0.000  0.016  0.017
   19  0.002  0.001  0.014  0.017
   20  0.032  0.001  0.011  0.044
   21  0.008  0.001  0.087  0.096
   22  0.001  0.000  0.073  0.075
   23  0.008  0.001  0.089  0.097
   24  0.005  0.000  0.017  0.023
   25  0.011  0.000  0.041  0.052
   26  0.003  0.001  0.014  0.018
   27  0.001  0.000  0.074  0.076
   28  0.000  0.000  0.001  0.002
   29  0.002  0.001  0.005  0.007
   30  0.001  0.001  0.007  0.009
   31  0.002  0.001  0.005  0.007
   32  0.000  0.000  0.002  0.003
   33  0.001  0.001  0.007  0.009
   34  0.000  0.000  0.002  0.003
   35  0.000  0.000  0.003  0.003
   36  0.000  0.001  0.003  0.003
   37  0.000  0.000  0.000  0.000
tot    0.118  0.016  0.675  0.809
 
band     8 # energy   -5.05482719 # occ.  2.00000000
 
ion      s      p      d    tot
    1  0.000  0.000  0.000  0.000
    2  0.000  0.000  0.006  0.006
    3  0.000  0.000  0.006  0.006
    4  0.000  0.000  0.006  0.006
    5  0.005  0.001  0.001  0.007
    6  0.000  0.000  0.006  0.006
    7  0.000  0.000  0.006  0.006
    8  0.000  0.000  0.006  0.006
    9  0.002  0.000  0.003  0.005
   10  0.005  0.001  0.008  0.013
   11  0.010  0.001  0.022  0.033
   12  0.004  0.001  0.007  0.013
   13  0.010  0.001  0.022  0.033
   14  0.010  0.001  0.022  0.033
   15  0.001  0.000  0.037  0.039
   16  0.004  0.001  0.007  0.013
   17  0.001  0.000  0.037  0.039
   18  0.001  0.000  0.037  0.038
   19  0.017  0.001  0.035  0.052
   20  0.007  0.001  0.011  0.019
   21  0.007  0.001  0.010  0.019
   22  0.001  0.000  0.076  0.077
   23  0.007  0.001  0.010  0.019
   24  0.001  0.000  0.077  0.078
   25  0.016  0.001  0.035  0.052
   26  0.016  0.001  0.035  0.052
   27  0.001  0.000  0.076  0.077
   28  0.006  0.001  0.006  0.014
   29  0.000  0.000  0.005  0.005
   30  0.000  0.000  0.005  0.005
   31  0.000  0.000  0.005  0.005
   32  0.000  0.000  0.005  0.005
   33  0.000  0.000  0.005  0.005
   34  0.000  0.000  0.005  0.005
   35  0.001  0.000  0.009  0.010
   36  0.001  0.000  0.000  0.001
   37  0.000  0.000  0.000  0.000
tot    0.136  0.017  0.646  0.799
 
band     9 # energy   -5.05040982 # occ.  2.00000000
 
ion      s      p      d    tot
    1  0.000  0.000  0.001  0.001
    2  0.001  0.000  0.004  0.005
    3  0.002  0.001  0.005  0.007
    4  0.001  0.000  0.004  0.005
    5  0.000  0.000  0.006  0.006
    6  0.000  0.000  0.002  0.003
    7  0.002  0.001  0.005  0.007
    8  0.000  0.000  0.003  0.003
    9  0.000  0.000  0.008  0.008
   10  0.001  0.000  0.032  0.033
   11  0.003  0.000  0.068  0.071
   12  0.000  0.001  0.026  0.027
   13  0.004  0.000  0.065  0.069
   14  0.015  0.001  0.005  0.021
   15  0.006  0.001  0.032  0.039
   16  0.000  0.001  0.025  0.027
   17  0.007  0.001  0.032  0.040
   18  0.025  0.001  0.023  0.048
   19  0.003  0.000  0.056  0.059
   20  0.001  0.000  0.032  0.033
   21  0.000  0.001  0.030  0.031
   22  0.006  0.001  0.030  0.036
   23  0.000  0.001  0.030  0.031
   24  0.021  0.001  0.022  0.044
   25  0.014  0.001  0.006  0.021
   26  0.003  0.000  0.054  0.057
   27  0.005  0.001  0.030  0.036
   28  0.000  0.000  0.005  0.005
   29  0.001  0.000  0.003  0.004
   30  0.000  0.000  0.002  0.002
   31  0.001  0.000  0.003  0.004
   32  0.002  0.000  0.004  0.006
   33  0.000  0.000  0.002  0.002
   34  0.002  0.000  0.004  0.006
   35  0.000  0.000  0.007  0.007
   36  0.000  0.000  0.000  0.000
   37  0.000  0.000  0.000  0.000
tot    0.124  0.016  0.663  0.803
 
band    10 # energy   -5.05040485 # occ.  2.00000000
 
ion      s      p      d    tot
    1  0.000  0.000  0.001  0.001
    2  0.001  0.000  0.004  0.005
    3  0.000  0.000  0.003  0.003
    4  0.001  0.000  0.004  0.005
    5  0.000  0.000  0.006  0.006
    6  0.001  0.000  0.005  0.007
    7  0.000  0.000  0.003  0.003
    8  0.001  0.000  0.005  0.007
    9  0.000  0.000  0.008  0.008
   10  0.000  0.001  0.024  0.025
   11  0.011  0.001  0.024  0.036
   12  0.001  0.000  0.029  0.031
   13  0.011  0.001  0.027  0.038
   14  0.000  0.000  0.087  0.087
   15  0.019  0.001  0.026  0.045
   16  0.001  0.000  0.030  0.031
   17  0.018  0.001  0.026  0.045
   18  0.000  0.001  0.035  0.036
   19  0.010  0.001  0.021  0.032
   20  0.000  0.001  0.028  0.029
   21  0.001  0.000  0.031  0.032
   22  0.016  0.001  0.025  0.041
   23  0.001  0.000  0.031  0.032
   24  0.000  0.001  0.032  0.033
   25  0.000  0.000  0.071  0.071
   26  0.010  0.001  0.023  0.034
   27  0.016  0.001  0.025  0.042
   28  0.000  0.000  0.005  0.005
   29  0.001  0.000  0.003  0.004
   30  0.002  0.000  0.004  0.006
   31  0.001  0.000  0.003  0.004
   32  0.000  0.000  0.002  0.002
   33  0.002  0.000  0.004  0.006
   34  0.000  0.000  0.002  0.002
   35  0.000  0.000  0.007  0.007
   36  0.000  0.000  0.000  0.000
   37  0.000  0.000  0.000  0.000
tot    0.124  0.016  0.663  0.803
 
band    11 # energy   -5.03525517 # occ.  2.00000000
 
ion      s      p      d    tot
    1  0.002  0.001  0.008  0.011
    2  0.000  0.000  0.008  0.008
    3  0.000  0.000  0.008  0.008
    4  0.000  0.000  0.008  0.008
    5  0.000  0.000  0.005  0.006
    6  0.000  0.000  0.008  0.008
    7  0.000  0.000  0.008  0.008
    8  0.000  0.000  0.008  0.008
    9  0.005  0.000  0.004  0.009
   10  0.009  0.000  0.015  0.025
   11  0.002  0.000  0.072  0.074
   12  0.009  0.000  0.016  0.025
   13  0.002  0.000  0.072  0.074
   14  0.002  0.000  0.072  0.074
   15  0.001  0.000  0.036  0.037
   16  0.009  0.000  0.016  0.025
   17  0.001  0.000  0.036  0.037
   18  0.001  0.000  0.036  0.037
   19  0.001  0.000  0.007  0.008
   20  0.001  0.000  0.041  0.042
   21  0.001  0.000  0.041  0.042
   22  0.000  0.000  0.039  0.039
   23  0.001  0.000  0.041  0.042
   24  0.000  0.000  0.039  0.039
   25  0.001  0.000  0.007  0.008
   26  0.001  0.000  0.007  0.008
   27  0.000  0.000  0.039  0.039
   28  0.003  0.000  0.000  0.004
   29  0.000  0.000  0.010  0.011
   30  0.000  0.000  0.010  0.011
   31  0.000  0.000  0.010  0.011
   32  0.000  0.000  0.010  0.011
   33  0.000  0.000  0.010  0.011
   34  0.000  0.000  0.010  0.011
   35  0.003  0.000  0.008  0.010
   36  0.004  0.001  0.000  0.005
   37  0.000  0.000  0.000  0.001
tot    0.063  0.009  0.765  0.837
 
band    12 # energy   -5.01187437 # occ.  2.00000000
 
ion      s      p      d    tot
    1  0.002  0.000  0.011  0.013
    2  0.000  0.000  0.009  0.009
    3  0.000  0.000  0.008  0.009
    4  0.000  0.000  0.009  0.009
    5  0.002  0.001  0.000  0.003
    6  0.000  0.000  0.009  0.009
    7  0.000  0.000  0.008  0.009
    8  0.000  0.000  0.009  0.009
    9  0.001  0.001  0.007  0.008
   10  0.000  0.000  0.082  0.083
   11  0.005  0.000  0.010  0.016
   12  0.000  0.000  0.082  0.083
   13  0.005  0.000  0.010  0.016
   14  0.005  0.000  0.010  0.016
   15  0.007  0.000  0.046  0.053
   16  0.000  0.000  0.082  0.083
   17  0.007  0.000  0.046  0.053
   18  0.007  0.000  0.046  0.053
   19  0.000  0.000  0.041  0.041
   20  0.000  0.000  0.022  0.022
   21  0.000  0.000  0.022  0.022
   22  0.000  0.000  0.023  0.024
   23  0.000  0.000  0.022  0.022
   24  0.000  0.000  0.024  0.024
   25  0.000  0.000  0.041  0.041
   26  0.000  0.000  0.041  0.041
   27  0.000  0.000  0.023  0.024
   28  0.002  0.000  0.006  0.008
   29  0.000  0.000  0.006  0.007
   30  0.000  0.000  0.006  0.006
   31  0.000  0.000  0.006  0.007
   32  0.000  0.000  0.006  0.007
   33  0.000  0.000  0.006  0.006
   34  0.000  0.000  0.006  0.007
   35  0.001  0.000  0.000  0.002
   36  0.000  0.000  0.002  0.002
   37  0.000  0.000  0.000  0.001
tot    0.051  0.008  0.787  0.846
 
band    13 # energy   -5.00932180 # occ.  2.00000000
 
ion      s      p      d    tot
    1  0.000  0.000  0.015  0.015
    2  0.000  0.000  0.009  0.010
    3  0.002  0.000  0.005  0.007
    4  0.000  0.000  0.010  0.010
    5  0.000  0.000  0.004  0.004
    6  0.001  0.000  0.008  0.009
    7  0.002  0.000  0.005  0.007
    8  0.001  0.000  0.007  0.009
    9  0.000  0.000  0.008  0.008
   10  0.011  0.000  0.036  0.047
   11  0.000  0.000  0.021  0.021
   12  0.003  0.000  0.050  0.053
   13  0.000  0.000  0.023  0.023
   14  0.000  0.000  0.042  0.042
   15  0.002  0.000  0.090  0.092
   16  0.002  0.000  0.051  0.054
   17  0.003  0.000  0.082  0.085
   18  0.010  0.000  0.007  0.017
   19  0.001  0.000  0.049  0.049
   20  0.002  0.000  0.012  0.013
   21  0.000  0.000  0.035  0.035
   22  0.000  0.000  0.017  0.017
   23  0.000  0.000  0.037  0.037
   24  0.000  0.000  0.038  0.038
   25  0.002  0.000  0.022  0.025
   26  0.001  0.000  0.046  0.047
   27  0.000  0.000  0.015  0.015
   28  0.000  0.000  0.012  0.012
   29  0.002  0.000  0.003  0.006
   30  0.000  0.000  0.005  0.005
   31  0.002  0.000  0.004  0.006
   32  0.001  0.000  0.006  0.007
   33  0.000  0.000  0.005  0.005
   34  0.001  0.000  0.006  0.007
   35  0.000  0.000  0.006  0.006
   36  0.000  0.000  0.000  0.001
   37  0.000  0.000  0.000  0.000
tot    0.050  0.007  0.788  0.846
 
band    14 # energy   -5.00931428 # occ.  2.00000000
 
ion      s      p      d    tot
    1  0.000  0.000  0.015  0.016
    2  0.002  0.000  0.005  0.007
    3  0.000  0.000  0.010  0.010
    4  0.002  0.000  0.005  0.007
    5  0.000  0.000  0.004  0.004
    6  0.001  0.001  0.007  0.008
    7  0.000  0.000  0.010  0.010
    8  0.001  0.001  0.007  0.009
    9  0.000  0.000  0.008  0.008
   10  0.000  0.000  0.055  0.055
   11  0.000  0.000  0.036  0.036
   12  0.008  0.000  0.042  0.050
   13  0.000  0.000  0.034  0.034
   14  0.000  0.001  0.015  0.016
   15  0.008  0.000  0.029  0.037
   16  0.009  0.000  0.040  0.049
   17  0.007  0.000  0.037  0.044
   18  0.000  0.000  0.113  0.113
   19  0.002  0.000  0.029  0.032
   20  0.000  0.000  0.044  0.044
   21  0.001  0.000  0.021  0.022
   22  0.000  0.000  0.029  0.029
   23  0.001  0.000  0.018  0.020
   24  0.000  0.000  0.009  0.009
   25  0.000  0.000  0.056  0.056
   26  0.002  0.000  0.032  0.034
   27  0.000  0.000  0.031  0.032
   28  0.000  0.000  0.012  0.012
   29  0.000  0.000  0.006  0.006
   30  0.002  0.000  0.005  0.007
   31  0.000  0.000  0.006  0.006
   32  0.001  0.000  0.004  0.005
   33  0.002  0.000  0.004  0.007
   34  0.001  0.000  0.004  0.005
   35  0.000  0.000  0.006  0.006
   36  0.000  0.000  0.000  0.001
   37  0.000  0.000  0.000  0.000
tot    0.050  0.007  0.788  0.846
 
band    15 # energy   -4.99555489 # occ.  2.00000000
 
ion      s      p      d    tot
    1  0.000  0.000  0.007  0.007
    2  0.004  0.001  0.006  0.010
    3  0.000  0.000  0.010  0.011
    4  0.004  0.001  0.006  0.010
    5  0.000  0.000  0.014  0.014
    6  0.002  0.001  0.009  0.011
    7  0.000  0.000  0.010  0.011
    8  0.002  0.001  0.009  0.011
    9  0.000  0.000  0.015  0.015
   10  0.010  0.000  0.012  0.022
   11  0.003  0.000  0.055  0.058
   12  0.003  0.000  0.056  0.059
   13  0.003  0.000  0.054  0.058
   14  0.013  0.000  0.017  0.030
   15  0.000  0.000  0.022  0.022
   16  0.002  0.000  0.057  0.059
   17  0.000  0.000  0.022  0.023
   18  0.000  0.000  0.047  0.047
   19  0.001  0.000  0.042  0.044
   20  0.000  0.000  0.040  0.041
   21  0.000  0.000  0.026  0.026
   22  0.002  0.000  0.045  0.047
   23  0.000  0.000  0.026  0.026
   24  0.008  0.000  0.015  0.023
   25  0.006  0.000  0.011  0.016
   26  0.001  0.000  0.042  0.043
   27  0.002  0.000  0.046  0.048
   28  0.000  0.000  0.003  0.003
   29  0.000  0.000  0.006  0.006
   30  0.001  0.000  0.001  0.003
   31  0.000  0.000  0.006  0.006
   32  0.001  0.001  0.006  0.008
   33  0.002  0.000  0.001  0.003
   34  0.001  0.001  0.006  0.008
   35  0.000  0.000  0.006  0.006
   36  0.000  0.000  0.001  0.001
   37  0.000  0.000  0.000  0.000
tot    0.071  0.009  0.757  0.838
 
band    16 # energy   -4.99554121 # occ.  2.00000000
 
ion      s      p      d    tot
    1  0.000  0.000  0.007  0.007
    2  0.000  0.000  0.011  0.011
    3  0.004  0.001  0.006  0.011
    4  0.000  0.000  0.011  0.011
    5  0.000  0.000  0.014  0.014
    6  0.002  0.000  0.008  0.010
    7  0.004  0.001  0.006  0.011
    8  0.002  0.000  0.008  0.010
    9  0.000  0.000  0.015  0.015
   10  0.000  0.000  0.071  0.071
   11  0.009  0.000  0.029  0.039
   12  0.007  0.000  0.027  0.034
   13  0.009  0.000  0.030  0.040
   14  0.000  0.000  0.067  0.068
   15  0.000  0.000  0.039  0.039
   16  0.008  0.000  0.026  0.034
   17  0.000  0.000  0.039  0.039
   18  0.000  0.000  0.014  0.014
   19  0.004  0.000  0.021  0.025
   20  0.000  0.000  0.021  0.021
   21  0.000  0.000  0.035  0.036
   22  0.006  0.000  0.026  0.032
   23  0.000  0.000  0.036  0.036
   24  0.000  0.000  0.056  0.056
   25  0.000  0.000  0.053  0.053
   26  0.004  0.000  0.021  0.026
   27  0.006  0.000  0.025  0.031
   28  0.000  0.000  0.003  0.003
   29  0.002  0.001  0.003  0.005
   30  0.000  0.000  0.008  0.008
   31  0.002  0.001  0.003  0.005
   32  0.001  0.000  0.003  0.004
   33  0.000  0.000  0.008  0.008
   34  0.001  0.000  0.003  0.004
   35  0.000  0.000  0.006  0.006
   36  0.000  0.000  0.001  0.001
   37  0.000  0.000  0.000  0.000
tot    0.071  0.009  0.758  0.838
 
band    17 # energy   -4.95940638 # occ.  2.00000000
 
ion      s      p      d    tot
    1  0.004  0.000  0.004  0.008
    2  0.002  0.000  0.010  0.012
    3  0.002  0.000  0.010  0.012
    4  0.002  0.000  0.010  0.012
    5  0.003  0.000  0.012  0.015
    6  0.002  0.000  0.010  0.012
    7  0.002  0.000  0.010  0.012
    8  0.002  0.000  0.010  0.012
    9  0.001  0.000  0.013  0.014
   10  0.001  0.000  0.007  0.008
   11  0.002  0.000  0.009  0.011
   12  0.001  0.000  0.007  0.008
   13  0.002  0.000  0.009  0.011
   14  0.002  0.000  0.009  0.011
   15  0.002  0.000  0.012  0.014
   16  0.001  0.000  0.007  0.008
   17  0.002  0.000  0.012  0.014
   18  0.002  0.000  0.012  0.014
   19  0.001  0.000  0.010  0.012
   20  0.001  0.001  0.026  0.028
   21  0.001  0.001  0.026  0.028
   22  0.000  0.001  0.021  0.022
   23  0.001  0.001  0.026  0.028
   24  0.000  0.001  0.021  0.022
   25  0.001  0.000  0.010  0.012
   26  0.001  0.000  0.010  0.012
   27  0.000  0.001  0.021  0.022
   28  0.012  0.000  0.028  0.041
   29  0.014  0.000  0.031  0.045
   30  0.014  0.000  0.031  0.045
   31  0.014  0.000  0.031  0.045
   32  0.014  0.000  0.031  0.045
   33  0.014  0.000  0.031  0.045
   34  0.014  0.000  0.031  0.045
   35  0.019  0.000  0.032  0.052
   36  0.008  0.000  0.010  0.019
   37  0.001  0.000  0.000  0.001
tot    0.169  0.009  0.602  0.780
 
band    18 # energy   -4.86857019 # occ.  2.00000000
 
ion      s      p      d    tot
    1  0.000  0.000  0.000  0.001
    2  0.000  0.000  0.006  0.006
    3  0.000  0.000  0.006  0.006
    4  0.000  0.000  0.006  0.006
    5  0.000  0.000  0.014  0.014
    6  0.000  0.000  0.006  0.006
    7  0.000  0.000  0.006  0.006
    8  0.000  0.000  0.006  0.006
    9  0.001  0.000  0.008  0.009
   10  0.000  0.000  0.011  0.011
   11  0.000  0.000  0.062  0.063
   12  0.000  0.000  0.011  0.011
   13  0.000  0.000  0.062  0.063
   14  0.000  0.000  0.062  0.063
   15  0.001  0.001  0.047  0.048
   16  0.000  0.000  0.011  0.011
   17  0.001  0.001  0.047  0.048
   18  0.001  0.001  0.047  0.048
   19  0.000  0.000  0.020  0.021
   20  0.001  0.000  0.065  0.066
   21  0.001  0.000  0.065  0.066
   22  0.002  0.000  0.025  0.028
   23  0.001  0.000  0.065  0.066
   24  0.002  0.000  0.025  0.028
   25  0.000  0.000  0.020  0.021
   26  0.000  0.000  0.020  0.021
   27  0.002  0.000  0.025  0.028
   28  0.007  0.001  0.001  0.009
   29  0.001  0.000  0.011  0.012
   30  0.001  0.000  0.011  0.012
   31  0.001  0.000  0.011  0.012
   32  0.001  0.000  0.011  0.012
   33  0.001  0.000  0.011  0.012
   34  0.001  0.000  0.011  0.012
   35  0.000  0.000  0.000  0.000
   36  0.001  0.001  0.006  0.008
   37  0.000  0.002  0.000  0.002
tot    0.028  0.015  0.824  0.867
 
band    19 # energy   -4.84458963 # occ.  2.00000000
 
ion      s      p      d    tot
    1  0.000  0.000  0.001  0.001
    2  0.000  0.000  0.006  0.007
    3  0.001  0.001  0.005  0.007
    4  0.000  0.000  0.006  0.007
    5  0.000  0.001  0.011  0.011
    6  0.000  0.000  0.010  0.010
    7  0.001  0.001  0.005  0.007
    8  0.000  0.000  0.010  0.010
    9  0.000  0.001  0.015  0.015
   10  0.000  0.000  0.017  0.018
   11  0.001  0.000  0.047  0.048
   12  0.001  0.001  0.023  0.024
   13  0.001  0.000  0.048  0.049
   14  0.000  0.000  0.093  0.094
   15  0.002  0.000  0.041  0.043
   16  0.001  0.001  0.023  0.025
   17  0.002  0.000  0.041  0.043
   18  0.000  0.000  0.028  0.028
   19  0.002  0.001  0.024  0.026
   20  0.000  0.000  0.074  0.074
   21  0.003  0.000  0.053  0.056
   22  0.000  0.001  0.030  0.031
   23  0.003  0.000  0.052  0.055
   24  0.000  0.000  0.054  0.054
   25  0.000  0.000  0.000  0.000
   26  0.001  0.001  0.023  0.025
   27  0.000  0.001  0.029  0.030
   28  0.000  0.000  0.006  0.006
   29  0.002  0.001  0.007  0.009
   30  0.002  0.001  0.005  0.007
   31  0.001  0.001  0.007  0.009
   32  0.000  0.000  0.007  0.008
   33  0.002  0.001  0.005  0.007
   34  0.000  0.000  0.007  0.008
   35  0.000  0.000  0.003  0.003
   36  0.000  0.001  0.005  0.006
   37  0.000  0.000  0.000  0.000
tot    0.026  0.016  0.821  0.863
 
band    20 # energy   -4.84457949 # occ.  2.00000000
 
ion      s      p      d    tot
    1  0.000  0.000  0.001  0.001
    2  0.001  0.001  0.008  0.010
    3  0.000  0.000  0.009  0.009
    4  0.001  0.001  0.008  0.010
    5  0.000  0.001  0.011  0.011
    6  0.001  0.000  0.005  0.006
    7  0.000  0.000  0.009  0.009
    8  0.001  0.000  0.005  0.006
    9  0.000  0.001  0.015  0.015
   10  0.001  0.001  0.026  0.028
   11  0.000  0.000  0.079  0.079
   12  0.000  0.000  0.019  0.019
   13  0.000  0.000  0.077  0.078
   14  0.001  0.000  0.032  0.033
   15  0.001  0.000  0.032  0.033
   16  0.000  0.000  0.019  0.019
   17  0.001  0.000  0.033  0.034
   18  0.003  0.001  0.045  0.048
   19  0.000  0.000  0.008  0.009
   20  0.004  0.000  0.046  0.050
   21  0.001  0.000  0.066  0.067
   22  0.000  0.000  0.046  0.046
   23  0.001  0.000  0.067  0.068
   24  0.000  0.001  0.022  0.022
   25  0.002  0.001  0.030  0.033
   26  0.001  0.000  0.009  0.009
   27  0.000  0.000  0.046  0.047
   28  0.000  0.000  0.006  0.006
   29  0.000  0.000  0.006  0.007
   30  0.000  0.000  0.008  0.009
   31  0.001  0.000  0.006  0.007
   32  0.002  0.001  0.005  0.008
   33  0.001  0.000  0.008  0.009
   34  0.002  0.001  0.005  0.008
   35  0.000  0.000  0.003  0.003
   36  0.000  0.001  0.005  0.006
   37  0.000  0.000  0.000  0.000
tot    0.026  0.016  0.821  0.863
 
band    21 # energy   -4.84065867 # occ.  2.00000000
 
ion      s      p      d    tot
    1  0.000  0.000  0.007  0.007
    2  0.000  0.000  0.011  0.011
    3  0.000  0.000  0.011  0.011
    4  0.000  0.000  0.011  0.011
    5  0.004  0.001  0.002  0.007
    6  0.000  0.000  0.011  0.011
    7  0.000  0.000  0.011  0.011
    8  0.000  0.000  0.011  0.011
    9  0.002  0.000  0.002  0.005
   10  0.002  0.001  0.047  0.050
   11  0.000  0.000  0.036  0.036
   12  0.002  0.001  0.048  0.051
   13  0.000  0.000  0.036  0.036
   14  0.000  0.000  0.036  0.036
   15  0.002  0.000  0.021  0.023
   16  0.002  0.001  0.048  0.051
   17  0.002  0.000  0.021  0.023
   18  0.002  0.000  0.022  0.024
   19  0.002  0.001  0.052  0.054
   20  0.001  0.000  0.020  0.021
   21  0.001  0.000  0.020  0.022
   22  0.000  0.001  0.043  0.043
   23  0.001  0.000  0.020  0.022
   24  0.000  0.001  0.043  0.044
   25  0.002  0.001  0.052  0.055
   26  0.002  0.001  0.052  0.054
   27  0.000  0.001  0.043  0.043
   28  0.000  0.000  0.011  0.011
   29  0.000  0.000  0.010  0.010
   30  0.000  0.000  0.010  0.010
   31  0.000  0.000  0.010  0.010
   32  0.000  0.000  0.010  0.010
   33  0.000  0.000  0.010  0.010
   34  0.000  0.000  0.010  0.010
   35  0.005  0.001  0.003  0.008
   36  0.002  0.000  0.001  0.003