 vasp.6.2.0 18Jan21 (build Jun 12 2021 23:27:24) complex                        
  
 executed on             LinuxIFC date 2022.05.27  05:55:50
 running on   16 total cores
 distrk:  each k-point on   16 cores,    1 groups
 distr:  one band on NCORE=   1 cores,   16 groups


--------------------------------------------------------------------------------------------------------


 INCAR:
   ISMEAR = -5
   SIGMA = 0.1
   ISPIN = 1
   EDIFF = 1.d-5
   EDIFFG = -0.01
   NSW = 0
   NELM = 150
   ENCUT = 500
   ISIF = 2
   IBRION = 2
   LREAL = Auto
   ALGO = Fast
   ICHARG = 11
   LORBIT = 10
   LCHARG = .F.
   LWAVE = .F.

 POTCAR:    PAW_PBE Ag 02Apr2005                  
 POTCAR:    PAW_PBE Pt 04Feb2005                  
 POTCAR:    PAW_PBE O 08Apr2002                   
 POTCAR:    PAW_PBE H 15Jun2001                   
 -----------------------------------------------------------------------------
|                                                                             |
|           W    W    AA    RRRRR   N    N  II  N    N   GGGG   !!!           |
|           W    W   A  A   R    R  NN   N  II  NN   N  G    G  !!!           |
|           W    W  A    A  R    R  N N  N  II  N N  N  G       !!!           |
|           W WW W  AAAAAA  RRRRR   N  N N  II  N  N N  G  GGG   !            |
|           WW  WW  A    A  R   R   N   NN  II  N   NN  G    G                |
|           W    W  A    A  R    R  N    N  II  N    N   GGGG   !!!           |
|                                                                             |
|     For optimal performance we recommend to set                             |
|       NCORE = 2 up to number-of-cores-per-socket                            |
|     NCORE specifies how many cores store one orbital (NPAR=cpu/NCORE).      |
|     This setting can greatly improve the performance of VASP for DFT.       |
|     The default, NCORE=1 might be grossly inefficient on modern             |
|     multi-core architectures or massively parallel machines. Do your        |
|     own testing! More info at https://www.vasp.at/wiki/index.php/NCORE      |
|     Unfortunately you need to use the default for GW and RPA                |
|     calculations (for HF NCORE is supported but not extensively tested      |
|     yet).                                                                   |
|                                                                             |
 -----------------------------------------------------------------------------

 POTCAR:    PAW_PBE Ag 02Apr2005                  
   VRHFIN =Ag : s1 d10                                                                              
   LEXCH  = PE                                                                                      
   EATOM  =  1037.2675 eV,   76.2370 Ry                                                             
                                                                                                    
   TITEL  = PAW_PBE Ag 02Apr2005                                                                    
   LULTRA =        F    use ultrasoft PP ?                                                          
   IUNSCR =        1    unscreen: 0-lin 1-nonlin 2-no                                               
   RPACOR =    2.000    partial core radius                                                         
   POMASS =  107.868; ZVAL   =   11.000    mass and valenz                                          
   RCORE  =    2.500    outmost cutoff radius                                                       
   RWIGS  =    2.840; RWIGS  =    1.503    wigner-seitz radius (au A)                               
   ENMAX  =  249.844; ENMIN  =  187.383 eV                                                          
   ICORE  =        3    local potential                                                             
   LCOR   =        T    correct aug charges                                                         
   LPAW   =        T    paw PP                                                                      
   EAUG   =  412.496                                                                                
   DEXC   =    0.000                                                                                
   RMAX   =    2.560    core radius for proj-oper                                                   
   RAUG   =    1.300    factor for augmentation sphere                                              
   RDEP   =    2.576    radius for radial grids                                                     
   RDEPT  =    2.072    core radius for aug-charge                                                  
                                                                                                    
   Atomic configuration                                                                             
   12 entries                                                                                       
     n  l   j            E        occ.                                                              
     1  0  0.50    -25324.9161   2.0000                                                             
     2  0  0.50     -3728.5341   2.0000                                                             
     2  1  1.50     -3344.0404   6.0000                                                             
     3  0  0.50      -683.5581   2.0000                                                             
     3  1  1.50      -557.3225   6.0000                                                             
     3  2  2.50      -358.3853  10.0000                                                             
     4  0  0.50       -95.0341   2.0000                                                             
     4  1  1.50       -58.5511   6.0000                                                             
     4  2  2.50        -7.4440  10.0000                                                             
     5  0  0.50        -4.4045   1.0000                                                             
     5  1  0.50        -1.3606   0.0000                                                             
     4  3  2.50        -1.3606   0.0000                                                             
   Description                                                                                      
     l       E           TYP  RCUT    TYP  RCUT                                                     
     2     -7.4439781     23  2.400                                                                 
     2     -8.8045607     23  2.400                                                                 
     0     -4.4044681     23  2.400                                                                 
     0      1.9520038     23  2.400                                                                 
     1     -1.3605826     23  2.500                                                                 
     1     27.2116520     23  2.500                                                                 
     3     -4.0817478     23  2.400                                                                 
  local pseudopotential read in
  partial core-charges read in
  partial kinetic energy density read in
  atomic valenz-charges read in
  non local Contribution for L=           2  read in
    real space projection operators read in
  non local Contribution for L=           2  read in
    real space projection operators read in
  non local Contribution for L=           0  read in
    real space projection operators read in
  non local Contribution for L=           0  read in
    real space projection operators read in
  non local Contribution for L=           1  read in
    real space projection operators read in
  non local Contribution for L=           1  read in
    real space projection operators read in
    PAW grid and wavefunctions read in
 
   number of l-projection  operators is LMAX  =           6
   number of lm-projection operators is LMMAX =          18
 
 POTCAR:    PAW_PBE Pt 04Feb2005                  
   VRHFIN =Pt: s1d9                                                                                 
   LEXCH  = PE                                                                                      
   EATOM  =   729.1176 eV,   53.5886 Ry                                                             
                                                                                                    
   TITEL  = PAW_PBE Pt 04Feb2005                                                                    
   LULTRA =        F    use ultrasoft PP ?                                                          
   IUNSCR =        1    unscreen: 0-lin 1-nonlin 2-no                                               
   RPACOR =    2.330    partial core radius                                                         
   POMASS =  195.080; ZVAL   =   10.000    mass and valenz                                          
   RCORE  =    2.600    outmost cutoff radius                                                       
   RWIGS  =    2.750; RWIGS  =    1.455    wigner-seitz radius (au A)                               
   ENMAX  =  230.283; ENMIN  =  172.712 eV                                                          
   ICORE  =        3    local potential                                                             
   LCOR   =        T    correct aug charges                                                         
   LPAW   =        T    paw PP                                                                      
   EAUG   =  358.966                                                                                
   DEXC   =    0.000                                                                                
   RMAX   =    2.658    core radius for proj-oper                                                   
   RAUG   =    1.300    factor for augmentation sphere                                              
   RDEP   =    2.761    radius for radial grids                                                     
   RDEPT  =    2.203    core radius for aug-charge                                                  
                                                                                                    
   Atomic configuration                                                                             
   16 entries                                                                                       
     n  l   j            E        occ.                                                              
     1  0  0.50    -78401.1885   2.0000                                                             
     2  0  0.50    -13770.7750   2.0000                                                             
     2  1  1.50    -11931.0468   6.0000                                                             
     3  0  0.50     -3234.7234   2.0000                                                             
     3  1  1.50     -2699.2216   6.0000                                                             
     3  2  2.50     -2119.5714  10.0000                                                             
     4  0  0.50      -695.1528   2.0000                                                             
     4  1  1.50      -519.6034   6.0000                                                             
     4  2  2.50      -306.6786  10.0000                                                             
     4  3  3.50       -70.1041  14.0000                                                             
     5  0  0.50      -101.7747   2.0000                                                             
     5  1  1.50       -55.9873   6.0000                                                             
     5  2  2.50        -6.1423   9.0000                                                             
     6  0  0.50        -5.6573   1.0000                                                             
     6  1  1.50        -6.8029   0.0000                                                             
     5  3  2.50        -1.3606   0.0000                                                             
   Description                                                                                      
     l       E           TYP  RCUT    TYP  RCUT                                                     
     2     -6.1423404     23  2.500                                                                 
     2     -7.5029230     23  2.500                                                                 
     0     -5.6573207     23  2.500                                                                 
     0      0.7416693     23  2.500                                                                 
     1     -2.7211652     23  2.600                                                                 
     1     20.4087390     23  2.600                                                                 
     3     -1.3605826     23  2.500                                                                 
  local pseudopotential read in
  partial core-charges read in
  partial kinetic energy density read in
  atomic valenz-charges read in
  non local Contribution for L=           2  read in
    real space projection operators read in
  non local Contribution for L=           2  read in
    real space projection operators read in
  non local Contribution for L=           0  read in
    real space projection operators read in
  non local Contribution for L=           0  read in
    real space projection operators read in
  non local Contribution for L=           1  read in
    real space projection operators read in
  non local Contribution for L=           1  read in
    real space projection operators read in
    PAW grid and wavefunctions read in
 
   number of l-projection  operators is LMAX  =           6
   number of lm-projection operators is LMMAX =          18
 
 POTCAR:    PAW_PBE O 08Apr2002                   
   VRHFIN =O: s2p4                                                                                  
   LEXCH  = PE                                                                                      
   EATOM  =   432.3788 eV,   31.7789 Ry                                                             
                                                                                                    
   TITEL  = PAW_PBE O 08Apr2002                                                                     
   LULTRA =        F    use ultrasoft PP ?                                                          
   IUNSCR =        1    unscreen: 0-lin 1-nonlin 2-no                                               
   RPACOR =    1.200    partial core radius                                                         
   POMASS =   16.000; ZVAL   =    6.000    mass and valenz                                          
   RCORE  =    1.520    outmost cutoff radius                                                       
   RWIGS  =    1.550; RWIGS  =    0.820    wigner-seitz radius (au A)                               
   ENMAX  =  400.000; ENMIN  =  300.000 eV                                                          
   ICORE  =        2    local potential                                                             
   LCOR   =        T    correct aug charges                                                         
   LPAW   =        T    paw PP                                                                      
   EAUG   =  605.392                                                                                
   DEXC   =    0.000                                                                                
   RMAX   =    1.553    core radius for proj-oper                                                   
   RAUG   =    1.300    factor for augmentation sphere                                              
   RDEP   =    1.550    radius for radial grids                                                     
   RDEPT  =    1.329    core radius for aug-charge                                                  
                                                                                                    
   Atomic configuration                                                                             
    4 entries                                                                                       
     n  l   j            E        occ.                                                              
     1  0  0.50      -514.6923   2.0000                                                             
     2  0  0.50       -23.9615   2.0000                                                             
     2  1  0.50        -9.0305   4.0000                                                             
     3  2  1.50        -9.5241   0.0000                                                             
   Description                                                                                      
     l       E           TYP  RCUT    TYP  RCUT                                                     
     0    -23.9615318     23  1.200                                                                 
     0     -9.5240782     23  1.200                                                                 
     1     -9.0304911     23  1.520                                                                 
     1      8.1634956     23  1.520                                                                 
     2     -9.5240782      7  1.500                                                                 
  local pseudopotential read in
  partial core-charges read in
  partial kinetic energy density read in
  kinetic energy density of atom read in
  atomic valenz-charges read in
  non local Contribution for L=           0  read in
    real space projection operators read in
  non local Contribution for L=           0  read in
    real space projection operators read in
  non local Contribution for L=           1  read in
    real space projection operators read in
  non local Contribution for L=           1  read in
    real space projection operators read in
    PAW grid and wavefunctions read in
 
   number of l-projection  operators is LMAX  =           4
   number of lm-projection operators is LMMAX =           8
 
 POTCAR:    PAW_PBE H 15Jun2001                   
   VRHFIN =H: ultrasoft test                                                                        
   LEXCH  = PE                                                                                      
   EATOM  =    12.4884 eV,    0.9179 Ry                                                             
                                                                                                    
   TITEL  = PAW_PBE H 15Jun2001                                                                     
   LULTRA =        F    use ultrasoft PP ?                                                          
   IUNSCR =        0    unscreen: 0-lin 1-nonlin 2-no                                               
   RPACOR =    0.000    partial core radius                                                         
   POMASS =    1.000; ZVAL   =    1.000    mass and valenz                                          
   RCORE  =    1.100    outmost cutoff radius                                                       
   RWIGS  =    0.700; RWIGS  =    0.370    wigner-seitz radius (au A)                               
   ENMAX  =  250.000; ENMIN  =  200.000 eV                                                          
   RCLOC  =    0.701    cutoff for local pot                                                        
   LCOR   =        T    correct aug charges                                                         
   LPAW   =        T    paw PP                                                                      
   EAUG   =  400.000                                                                                
   RMAX   =    1.123    core radius for proj-oper                                                   
   RAUG   =    1.200    factor for augmentation sphere                                              
   RDEP   =    1.112    radius for radial grids                                                     
   RDEPT  =    0.926    core radius for aug-charge                                                  
                                                                                                    
   Atomic configuration                                                                             
    2 entries                                                                                       
     n  l   j            E        occ.                                                              
     1  0  0.50        -6.4927   1.0000                                                             
     2  1  0.50        -3.4015   0.0000                                                             
   Description                                                                                      
     l       E           TYP  RCUT    TYP  RCUT                                                     
     0     -6.4927494     23  1.100                                                                 
     0      6.8029130     23  1.100                                                                 
     1     -4.0817478     23  1.100                                                                 
  local pseudopotential read in
  atomic valenz-charges read in
  non local Contribution for L=           0  read in
    real space projection operators read in
  non local Contribution for L=           0  read in
    real space projection operators read in
  non local Contribution for L=           1  read in
    real space projection operators read in
    PAW grid and wavefunctions read in
 
   number of l-projection  operators is LMAX  =           3
   number of lm-projection operators is LMMAX =           5
 
 Optimization of the real space projectors (new method)

 maximal supplied QI-value         = 15.12
 optimisation between [QCUT,QGAM] = [ 11.34, 22.83] = [ 36.00,145.93] Ry 
 Optimized for a Real-space Cutoff    1.43 Angstroem

   l    n(q)    QCUT    max X(q) W(low)/X(q) W(high)/X(q)  e(spline) 
   2      9    11.338    53.897    0.16E-03    0.20E-03    0.28E-06
   2      9    11.338    52.416    0.16E-03    0.20E-03    0.29E-06
   0     10    11.338   122.045    0.31E-04    0.76E-04    0.15E-06
   0     10    11.338    73.629    0.30E-04    0.72E-04    0.15E-06
   1      9    11.338    15.255    0.20E-03    0.19E-04    0.17E-06
   1      9    11.338     9.562    0.16E-03    0.15E-04    0.14E-06
 Optimization of the real space projectors (new method)

 maximal supplied QI-value         = 14.36
 optimisation between [QCUT,QGAM] = [ 11.35, 22.84] = [ 36.05,146.02] Ry 
 Optimized for a Real-space Cutoff    1.47 Angstroem

   l    n(q)    QCUT    max X(q) W(low)/X(q) W(high)/X(q)  e(spline) 
   2      9    11.346    66.195    0.31E-03    0.12E-04    0.29E-06
   2      9    11.346    64.643    0.32E-03    0.12E-04    0.29E-06
   0     10    11.346    95.520    0.90E-04    0.16E-04    0.19E-06
   0     10    11.346    63.403    0.87E-04    0.15E-04    0.19E-06
   1     10    11.346    19.961    0.17E-03    0.21E-03    0.11E-06
   1     10    11.346    13.289    0.14E-03    0.18E-03    0.89E-07
 Optimization of the real space projectors (new method)

 maximal supplied QI-value         = 24.76
 optimisation between [QCUT,QGAM] = [ 11.39, 22.77] = [ 36.31,145.25] Ry 
 Optimized for a Real-space Cutoff    1.00 Angstroem

   l    n(q)    QCUT    max X(q) W(low)/X(q) W(high)/X(q)  e(spline) 
   0      7    11.387    20.381    0.39E-03    0.13E-02    0.15E-06
   0      7    11.387    15.268    0.42E-03    0.14E-02    0.17E-06
   1      6    11.387     5.964    0.41E-03    0.11E-02    0.17E-06
   1      6    11.387     5.382    0.39E-03    0.87E-03    0.15E-06
 Optimization of the real space projectors (new method)

 maximal supplied QI-value         = 34.20
 optimisation between [QCUT,QGAM] = [ 11.29, 22.57] = [ 35.68,142.71] Ry 
 Optimized for a Real-space Cutoff    1.16 Angstroem

   l    n(q)    QCUT    max X(q) W(low)/X(q) W(high)/X(q)  e(spline) 
   0      8    11.287    19.460    0.40E-03    0.73E-03    0.16E-06
   0      8    11.287    12.209    0.38E-03    0.70E-03    0.15E-06
   1      7    11.287     4.655    0.22E-03    0.25E-04    0.22E-06
  PAW_PBE Ag 02Apr2005                  :
 energy of atom  1       EATOM=-1037.2675
 kinetic energy error for atom=    0.0052 (will be added to EATOM!!)
  PAW_PBE Pt 04Feb2005                  :
 energy of atom  2       EATOM= -729.1176
 kinetic energy error for atom=    0.0039 (will be added to EATOM!!)
  PAW_PBE O 08Apr2002                   :
 energy of atom  3       EATOM= -432.3788
 kinetic energy error for atom=    0.0224 (will be added to EATOM!!)
  PAW_PBE H 15Jun2001                   :
 energy of atom  4       EATOM=  -12.4884
 kinetic energy error for atom=    0.0020 (will be added to EATOM!!)
 
 
 POSCAR: Ag-Pt-OH
  positions in direct lattice
  velocities in cartesian coordinates
 exchange correlation table for  LEXCH =        8
   RHO(1)=    0.500       N(1)  =     2000
   RHO(2)=  100.500       N(2)  =     4000

 VTST: version 3.2, (02/03/18)

 CHAIN: initializing optimizer
 
 OPT: Using VASP Conjugate-Gradient optimizer
 CHAIN: Read ICHAIN            0
 
 POSCAR: Ag-Pt-OH
  positions in direct lattice
  velocities in cartesian coordinates
 


--------------------------------------------------------------------------------------------------------


 ion  position               nearest neighbor table
   1  0.000  0.000  0.209-   2 2.93   8 2.93   7 2.93   6 2.93   4 2.93  12 2.93  16 2.93  10 2.93
                             3 2.93
   2  0.333  0.000  0.209-   1 2.93   8 2.93   9 2.93   3 2.93   4 2.93   5 2.93  10 2.93  17 2.93
                            11 2.93
   3  0.667  0.000  0.209-   9 2.93   2 2.93   5 2.93  11 2.93   7 2.93  18 2.93   1 2.93   6 2.93
                            12 2.93
   4  0.000  0.333  0.209-   5 2.93   6 2.93   2 2.93   1 2.93   7 2.93  13 2.93  15 2.93   9 2.93
                            10 2.93
   5  0.333  0.333  0.209-   4 2.93   3 2.93   7 2.93   2 2.93   8 2.93  14 2.93  13 2.93  11 2.93
                             6 2.93
   6  0.667  0.333  0.209-   4 2.93   9 2.93   1 2.93  15 2.93   8 2.93  12 2.93   3 2.93   5 2.93
                            14 2.93
   7  0.000  0.667  0.209-   8 2.93   1 2.93   5 2.93   3 2.93   4 2.93  16 2.93  18 2.93  13 2.93
                             9 2.93
   8  0.333  0.667  0.209-   7 2.93   1 2.93   2 2.93   9 2.93   5 2.93  16 2.93   6 2.93  17 2.93
                            14 2.93
   9  0.667  0.667  0.209-   3 2.93   2 2.93   8 2.93   6 2.93  17 2.93   4 2.93  15 2.93   7 2.93
                            18 2.93
  10  0.111  0.111  0.304-  20 2.89  19 2.93  26 2.93  12 2.93  16 2.93  15 2.93  17 2.93  13 2.93
                            11 2.93   2 2.93   1 2.93   4 2.93
  11  0.444  0.111  0.304-  21 2.90  20 2.90  27 2.91  14 2.93  17 2.93  18 2.93   3 2.93  12 2.93
                            13 2.93  10 2.93   5 2.93   2 2.93
  12  0.778  0.111  0.304-  21 2.89  25 2.93  19 2.93  10 2.93  16 2.93  18 2.93  15 2.93  11 2.93
                             1 2.93  14 2.93   6 2.93   3 2.93
  13  0.111  0.444  0.304-  20 2.90  23 2.90  22 2.91  15 2.93  14 2.93  18 2.93  10 2.93  11 2.93
                            16 2.93   4 2.93   5 2.93   7 2.93
  14  0.444  0.444  0.304-  23 2.90  21 2.90  24 2.91  13 2.93  11 2.93  16 2.93   5 2.93  12 2.93
                            17 2.93   8 2.93  15 2.93   6 2.93
  15  0.778  0.444  0.304-  24 2.91  22 2.91  19 2.92  13 2.93  10 2.93  12 2.93  17 2.93  18 2.93
                             4 2.93   6 2.93   9 2.93  14 2.93
  16  0.111  0.778  0.304-  23 2.89  26 2.93  25 2.93  18 2.93  12 2.93  10 2.93  14 2.93  17 2.93
                            13 2.93   7 2.93   8 2.93   1 2.93
  17  0.444  0.778  0.304-  27 2.91  24 2.91  26 2.92  11 2.93  10 2.93   9 2.93  18 2.93  15 2.93
                            16 2.93   2 2.93  14 2.93   8 2.93
  18  0.778  0.778  0.304-  22 2.91  27 2.91  25 2.92  16 2.93  12 2.93  13 2.93  11 2.93  17 2.93
                            15 2.93   7 2.93   3 2.93   9 2.93
  19  0.888  0.223  0.398-  28 2.91  15 2.92  20 2.92  21 2.92  24 2.92  22 2.92  10 2.93  12 2.93
                            32 2.93  31 2.93  26 2.94  25 2.94
  20  0.221  0.221  0.397-  36 2.81  10 2.89  13 2.90  11 2.90  19 2.92  26 2.92  31 2.92  29 2.92
                            27 2.93  22 2.93  21 2.95  23 2.95
  21  0.557  0.221  0.397-  36 2.81  12 2.89  11 2.90  14 2.90  25 2.92  19 2.92  30 2.92  32 2.92
                            27 2.93  24 2.93  20 2.95  23 2.95
  22  0.889  0.556  0.398-  35 2.91  18 2.91  15 2.91  13 2.91  25 2.92  19 2.92  24 2.93  27 2.93
                            33 2.93  31 2.93  23 2.93  20 2.93
  23  0.221  0.557  0.397-  36 2.81  16 2.89  14 2.90  13 2.90  26 2.92  25 2.92  34 2.92  33 2.92
                            22 2.93  24 2.93  21 2.95  20 2.95
  24  0.556  0.556  0.398-  35 2.91  15 2.91  17 2.91  14 2.91  19 2.92  26 2.92  27 2.93  22 2.93
                            32 2.93  34 2.93  23 2.93  21 2.93
  25  0.888  0.888  0.398-  28 2.91  18 2.92  23 2.92  21 2.92  22 2.92  27 2.92  16 2.93  12 2.93
                            33 2.93  30 2.93  26 2.94  19 2.94
  26  0.223  0.888  0.398-  28 2.91  17 2.92  23 2.92  20 2.92  27 2.92  24 2.92  16 2.93  10 2.93
                            34 2.93  29 2.93  25 2.94  19 2.94
  27  0.556  0.889  0.398-  35 2.91  17 2.91  18 2.91  11 2.91  26 2.92  25 2.92  24 2.93  22 2.93
                            29 2.93  30 2.93  20 2.93  21 2.93
  28  0.000  0.000  0.492-  26 2.91  25 2.91  19 2.91  29 2.95  34 2.95  33 2.95  32 2.95  31 2.95
                            30 2.95
  29  0.333  0.004  0.492-  30 2.89  31 2.89  36 2.90  20 2.92  27 2.93  26 2.93  35 2.95  28 2.95
                            34 3.00
  30  0.662  0.004  0.492-  29 2.89  32 2.89  36 2.90  21 2.92  27 2.93  25 2.93  35 2.95  28 2.95
                            33 3.00
  31  0.004  0.333  0.492-  33 2.89  29 2.89  36 2.90  20 2.92  22 2.93  19 2.93  35 2.95  28 2.95
                            32 3.00
  32  0.662  0.333  0.492-  34 2.89  30 2.89  36 2.90  21 2.92  24 2.93  19 2.93  35 2.95  28 2.95
                            31 3.00
  33  0.004  0.662  0.492-  31 2.89  34 2.89  36 2.90  23 2.92  22 2.93  25 2.93  35 2.95  28 2.95
                            30 3.00
  34  0.333  0.662  0.492-  32 2.89  33 2.89  36 2.90  23 2.92  24 2.93  26 2.93  35 2.95  28 2.95
                            29 3.00
  35  0.667  0.667  0.492-  24 2.91  27 2.91  22 2.91  30 2.95  32 2.95  29 2.95  34 2.95  31 2.95
                            33 2.95
  36  0.333  0.333  0.485-  37 2.03  21 2.81  20 2.81  23 2.81  31 2.90  33 2.90  30 2.90  29 2.90
                            34 2.90  32 2.90
  37  0.333  0.333  0.566-  38 0.97  36 2.03
  38  0.333  0.333  0.604-  37 0.97
 
  LATTYP: Found a hexagonal cell.
 ALAT       =     8.7913665772
 C/A-ratio  =     2.8719070141
  
  Lattice vectors:
  
 A1 = (  -4.3956832886,  -7.6135467898,   0.0000000000)
 A2 = (   8.7913665771,   0.0000000000,   0.0000000000)
 A3 = (   0.0000000000,   0.0000000000,  25.2479873362)


Analysis of symmetry for initial positions (statically):
=====================================================================
 Subroutine PRICEL returns:
 Original cell was already a primitive cell.
 

 Routine SETGRP: Setting up the symmetry group for a 
 hexagonal supercell.


 Subroutine GETGRP returns: Found  6 space group operations
 (whereof  6 operations were pure point group operations)
 out of a pool of 24 trial point group operations.


The static configuration has the point symmetry C_3v.


Analysis of symmetry for dynamics (positions and initial velocities):
=====================================================================
 Subroutine PRICEL returns:
 Original cell was already a primitive cell.
 

 Routine SETGRP: Setting up the symmetry group for a 
 hexagonal supercell.


 Subroutine GETGRP returns: Found  6 space group operations
 (whereof  6 operations were pure point group operations)
 out of a pool of 24 trial point group operations.


The dynamic configuration has the point symmetry C_3v.


Analysis of constrained symmetry for selective dynamics:
=====================================================================
 Subroutine PRICEL returns:
 Original cell was already a primitive cell.
 

 Routine SETGRP: Setting up the symmetry group for a 
 hexagonal supercell.


 Subroutine GETGRP returns: Found  6 space group operations
 (whereof  6 operations were pure point group operations)
 out of a pool of 24 trial point group operations.


The constrained configuration has the point symmetry C_3v.


 Subroutine INISYM returns: Found  6 space group operations
 (whereof  6 operations are pure point group operations),
 and found     1 'primitive' translations


----------------------------------------------------------------------------------------

                                     Primitive cell                                     

  volume of cell :    1689.9357

  direct lattice vectors                    reciprocal lattice vectors
     8.791366577  0.000000000  0.000000000     0.113747958 -0.065672414  0.000000000
     4.395683289  7.613546790  0.000000000     0.000000000  0.131344829  0.000000000
     0.000000000  0.000000000 25.247987336     0.000000000  0.000000000  0.039607117

  length of vectors
     8.791366577  8.791366577 25.247987336     0.131344829  0.131344829  0.039607117

  position of ions in fractional coordinates (direct lattice)
     0.000000000  0.000000000  0.209212246
     0.333333313  0.000000000  0.209212246
     0.666666627  0.000000000  0.209212246
     0.000000000  0.333333343  0.209212246
     0.333333313  0.333333343  0.209212246
     0.666666687  0.333333343  0.209212246
     0.000000000  0.666666687  0.209212246
     0.333333313  0.666666687  0.209212246
     0.666666627  0.666666687  0.209212246
     0.111111104  0.111111112  0.303980481
     0.444444448  0.111111112  0.303980481
     0.777777791  0.111111112  0.303980481
     0.111111097  0.444444448  0.303980481
     0.444444418  0.444444448  0.303980481
     0.777777791  0.444444448  0.303980481
     0.111111104  0.777777791  0.303980481
     0.444444448  0.777777791  0.303980481
     0.777777791  0.777777791  0.303980481
     0.888351115  0.223297786  0.398487668
     0.221460933  0.221460948  0.397160957
     0.557078073  0.221460948  0.397160957
     0.888564182  0.555717939  0.397861482
     0.221460948  0.557078133  0.397160957
     0.555717939  0.555717939  0.397861482
     0.888351115  0.888351115  0.398487668
     0.223297756  0.888351115  0.398487668
     0.555717879  0.888564182  0.397861482
     0.000000000  0.000000000  0.492012519
     0.333362240  0.004221406  0.492499199
     0.662416294  0.004221406  0.492499199
     0.004221406  0.333362270  0.492499199
     0.662416354  0.333362270  0.492499199
     0.004221406  0.662416354  0.492499199
     0.333362240  0.662416354  0.492499199
     0.666666627  0.666666687  0.491622989
     0.333333313  0.333333343  0.485446891
     0.333333313  0.333333343  0.565880203
     0.333333313  0.333333343  0.604136860

  ion indices of the primitive-cell ions
   primitive index   ion index
                 1           1
                 2           2
                 3           3
                 4           4
                 5           5
                 6           6
                 7           7
                 8           8
                 9           9
                10          10
                11          11
                12          12
                13          13
                14          14
                15          15
                16          16
                17          17
                18          18
                19          19
                20          20
                21          21
                22          22
                23          23
                24          24
                25          25
                26          26
                27          27
                28          28
                29          29
                30          30
                31          31
                32          32
                33          33
                34          34
                35          35
                36          36
                37          37
                38          38

----------------------------------------------------------------------------------------

 
 
 KPOINTS: Automatic mesh                          

Automatic generation of k-mesh.
 Grid dimensions read from file:
 generate k-points for:    8    8    1

 Generating k-lattice:

  Cartesian coordinates                     Fractional coordinates (reciprocal lattice)
     0.014218495 -0.008209052  0.000000000     0.125000000  0.000000000  0.000000000
     0.000000000  0.016418104  0.000000000     0.000000000  0.125000000  0.000000000
     0.000000000  0.000000000  0.039607117     0.000000000  0.000000000  1.000000000

  Length of vectors
     0.016418104  0.016418104  0.039607117

  Shift w.r.t. Gamma in fractional coordinates (k-lattice)
     0.000000000  0.000000000  0.000000000

 TETIRR: Found     36 inequivalent tetrahedra from      384
 
 Subroutine IBZKPT returns following result:
 ===========================================
 
 Found     10 irreducible k-points:
 
 Following reciprocal coordinates:
            Coordinates               Weight
  0.000000  0.000000  0.000000      1.000000
  0.125000  0.000000  0.000000      6.000000
  0.250000  0.000000  0.000000      6.000000
  0.375000  0.000000  0.000000      6.000000
  0.500000  0.000000  0.000000      3.000000
  0.250000  0.125000  0.000000      6.000000
  0.375000  0.125000  0.000000     12.000000
  0.500000  0.125000  0.000000     12.000000
  0.500000  0.250000  0.000000      6.000000
 -0.375000  0.250000  0.000000      6.000000
 
 Following cartesian coordinates:
            Coordinates               Weight
  0.000000  0.000000  0.000000      1.000000
  0.014218 -0.008209  0.000000      6.000000
  0.028437 -0.016418  0.000000      6.000000
  0.042655 -0.024627  0.000000      6.000000
  0.056874 -0.032836  0.000000      3.000000
  0.028437 -0.000000  0.000000      6.000000
  0.042655 -0.008209  0.000000     12.000000
  0.056874 -0.016418  0.000000     12.000000
  0.056874 -0.000000  0.000000      6.000000
 -0.042655  0.057463  0.000000      6.000000
 


--------------------------------------------------------------------------------------------------------




 Dimension of arrays:
   k-points           NKPTS =     10   k-points in BZ     NKDIM =     10   number of bands    NBANDS=    256
   number of dos      NEDOS =    301   number of ions     NIONS =     38
   non local maximal  LDIM  =      6   non local SUM 2l+1 LMDIM =     18
   total plane-waves  NPLWV = 322560
   max r-space proj   IRMAX =   2612   max aug-charges    IRDMAX=  11759
   dimension x,y,z NGX =    48 NGY =   48 NGZ =  140
   dimension x,y,z NGXF=    96 NGYF=   96 NGZF=  280
   support grid    NGXF=    96 NGYF=   96 NGZF=  280
   ions per type =              35   1   1   1
   NGX,Y,Z   is equivalent  to a cutoff of   9.08,  9.08,  9.22 a.u.
   NGXF,Y,Z  is equivalent  to a cutoff of  18.15, 18.15, 18.44 a.u.

 SYSTEM =  unknown system                          
 POSCAR =  Ag-Pt-OH                                

 Startparameter for this run:
   NWRITE =      2    write-flag & timer
   PREC   = normal    normal or accurate (medium, high low for compatibility)
   ISTART =      0    job   : 0-new  1-cont  2-samecut
   ICHARG =     11    charge: 1-file 2-atom 10-const
   ISPIN  =      1    spin polarized calculation?
   LNONCOLLINEAR =      F non collinear calculations
   LSORBIT =      F    spin-orbit coupling
   INIWAV =      1    electr: 0-lowe 1-rand  2-diag
   LASPH  =      F    aspherical Exc in radial PAW
   METAGGA=      F    non-selfconsistent MetaGGA calc.

 Electronic Relaxation 1
   ENCUT  =  500.0 eV  36.75 Ry    6.06 a.u.  16.03 16.03 46.03*2*pi/ulx,y,z
   ENINI  =  500.0     initial cutoff
   ENAUG  =  605.4 eV  augmentation charge cutoff
   NELM   =    150;   NELMIN=  2; NELMDL= -5     # of ELM steps 
   EDIFF  = 0.1E-04   stopping-criterion for ELM
   LREAL  =      T    real-space projection
   NLSPLINE    = F    spline interpolate recip. space projectors
   LCOMPAT=      F    compatible to vasp.4.4
   GGA_COMPAT  = T    GGA compatible to vasp.4.4-vasp.4.6
   LMAXPAW     = -100 max onsite density
   LMAXMIX     =    2 max onsite mixed and CHGCAR
   VOSKOWN=      0    Vosko Wilk Nusair interpolation
   ROPT   =   -0.00050  -0.00050  -0.00050  -0.00050
 Ionic relaxation
   EDIFFG = -.1E-01   stopping-criterion for IOM
   NSW    =      0    number of steps for IOM
   NBLOCK =      1;   KBLOCK =      1    inner block; outer block 
   IBRION =     -1    ionic relax: 0-MD 1-quasi-New 2-CG
   NFREE  =      1    steps in history (QN), initial steepest desc. (CG)
   ISIF   =      2    stress and relaxation
   IWAVPR =     10    prediction:  0-non 1-charg 2-wave 3-comb
   ISYM   =      2    0-nonsym 1-usesym 2-fastsym
   LCORR  =      T    Harris-Foulkes like correction to forces

   POTIM  = 0.5000    time-step for ionic-motion
   TEIN   =    0.0    initial temperature
   TEBEG  =    0.0;   TEEND  =   0.0 temperature during run
   SMASS  =  -3.00    Nose mass-parameter (am)
   estimated Nose-frequenzy (Omega)   =  0.10E-29 period in steps = 0.13E+47 mass=  -0.177E-26a.u.
   SCALEE = 1.0000    scale energy and forces
   NPACO  =    256;   APACO  = 16.0  distance and # of slots for P.C.
   PSTRESS=    0.0 pullay stress

  Mass of Ions in am
   POMASS = 107.87195.08 16.00  1.00
  Ionic Valenz
   ZVAL   =  11.00 10.00  6.00  1.00
  Atomic Wigner-Seitz radii
   RWIGS  =  -1.00 -1.00 -1.00 -1.00
  virtual crystal weights 
   VCA    =   1.00  1.00  1.00  1.00
   NELECT =     402.0000    total number of electrons
   NUPDOWN=      -1.0000    fix difference up-down

 DOS related values:
   EMIN   =  10.00;   EMAX   =-10.00  energy-range for DOS
   EFERMI =   0.00
   ISMEAR =    -5;   SIGMA  =   0.10  broadening in eV -4-tet -1-fermi 0-gaus

 Electronic relaxation 2 (details)
   IALGO  =     68    algorithm
   LDIAG  =      T    sub-space diagonalisation (order eigenvalues)
   LSUBROT=      F    optimize rotation matrix (better conditioning)
   TURBO    =      0    0=normal 1=particle mesh
   IRESTART =      0    0=no restart 2=restart with 2 vectors
   NREBOOT  =      0    no. of reboots
   NMIN     =      0    reboot dimension
   EREF     =   0.00    reference energy to select bands
   IMIX   =      4    mixing-type and parameters
     AMIX     =   0.40;   BMIX     =  1.00
     AMIX_MAG =   1.60;   BMIX_MAG =  1.00
     AMIN     =   0.10
     WC   =   100.;   INIMIX=   1;  MIXPRE=   1;  MAXMIX= -45

 Intra band minimization:
   WEIMIN = 0.0000     energy-eigenvalue tresh-hold
   EBREAK =  0.98E-08  absolut break condition
   DEPER  =   0.30     relativ break condition  

   TIME   =   0.40     timestep for ELM

  volume/ion in A,a.u.               =      44.47       300.11
  Fermi-wavevector in a.u.,A,eV,Ry     =   1.014363  1.916868 13.999478  1.028933
  Thomas-Fermi vector in A             =   2.147586
 
 Write flags
   LWAVE        =      F    write WAVECAR
   LDOWNSAMPLE  =      F    k-point downsampling of WAVECAR
   LCHARG       =      F    write CHGCAR
   LVTOT        =      F    write LOCPOT, total local potential
   LVHAR        =      F    write LOCPOT, Hartree potential only
   LELF         =      F    write electronic localiz. function (ELF)
   LORBIT       =     10    0 simple, 1 ext, 2 COOP (PROOUT), +10 PAW based schemes


 Dipole corrections
   LMONO  =      F    monopole corrections only (constant potential shift)
   LDIPOL =      F    correct potential (dipole corrections)
   IDIPOL =      0    1-x, 2-y, 3-z, 4-all directions 
   EPSILON=  1.0000000 bulk dielectric constant

 Exchange correlation treatment:
   GGA     =    --    GGA type
   LEXCH   =     8    internal setting for exchange type
   VOSKOWN=      0    Vosko Wilk Nusair interpolation
   LHFCALC =     F    Hartree Fock is set to
   LHFONE  =     F    Hartree Fock one center treatment
   AEXX    =    0.0000 exact exchange contribution

 Linear response parameters
   LEPSILON=     F    determine dielectric tensor
   LRPA    =     F    only Hartree local field effects (RPA)
   LNABLA  =     F    use nabla operator in PAW spheres
   LVEL    =     F    velocity operator in full k-point grid
   LINTERFAST=   F  fast interpolation
   KINTER  =     0    interpolate to denser k-point grid
   CSHIFT  =0.1000    complex shift for real part using Kramers Kronig
   OMEGAMAX=  -1.0    maximum frequency
   DEG_THRESHOLD= 0.2000000E-02 threshold for treating states as degnerate
   RTIME   =   -0.100 relaxation time in fs
  (WPLASMAI=    0.000 imaginary part of plasma frequency in eV, 0.658/RTIME)
   DFIELD  = 0.0000000 0.0000000 0.0000000 field for delta impulse in time
 
 Orbital magnetization related:
   ORBITALMAG=     F  switch on orbital magnetization
   LCHIMAG   =     F  perturbation theory with respect to B field
   DQ        =  0.001000  dq finite difference perturbation B field
   LLRAUG    =     F  two centre corrections for induced B field



--------------------------------------------------------------------------------------------------------


 Static calculation
 charge density and potential remain constant during run
 non-spin polarized calculation
 RMM-DIIS sequential band-by-band and
  variant of blocked Davidson during initial phase
 perform sub-space diagonalisation
    before iterative eigenvector-optimisation
 no mixing
 using additional bands           55
 real space projection scheme for non local part
 use partial core corrections
 calculate Harris-corrections to forces 
   (improved forces if not selfconsistent)
 use gradient corrections 
 WARNING: stress and forces are not correct
  (second derivative of E(xc) not defined)
 use of overlap-Matrix (Vanderbilt PP)
 Fermi weights with tetrahedron method with Bloechl corrections


--------------------------------------------------------------------------------------------------------


  energy-cutoff  :      500.00
  volume of cell :     1689.94
      direct lattice vectors                 reciprocal lattice vectors
     8.791366577  0.000000000  0.000000000     0.113747958 -0.065672414  0.000000000
     4.395683289  7.613546790  0.000000000     0.000000000  0.131344829  0.000000000
     0.000000000  0.000000000 25.247987336     0.000000000  0.000000000  0.039607117

  length of vectors
     8.791366577  8.791366577 25.247987336     0.131344829  0.131344829  0.039607117


 
 k-points in units of 2pi/SCALE and weight: Automatic mesh                          
   0.00000000  0.00000000  0.00000000       0.016
   0.01421849 -0.00820905  0.00000000       0.094
   0.02843699 -0.01641810  0.00000000       0.094
   0.04265548 -0.02462716  0.00000000       0.094
   0.05687398 -0.03283621  0.00000000       0.047
   0.02843699 -0.00000000  0.00000000       0.094
   0.04265548 -0.00820905  0.00000000       0.188
   0.05687398 -0.01641810  0.00000000       0.188
   0.05687398 -0.00000000  0.00000000       0.094
  -0.04265548  0.05746336  0.00000000       0.094
 
 k-points in reciprocal lattice and weights: Automatic mesh                          
   0.00000000  0.00000000  0.00000000       0.016
   0.12500000  0.00000000  0.00000000       0.094
   0.25000000  0.00000000  0.00000000       0.094
   0.37500000  0.00000000  0.00000000       0.094
   0.50000000  0.00000000  0.00000000       0.047
   0.25000000  0.12500000  0.00000000       0.094
   0.37500000  0.12500000  0.00000000       0.188
   0.50000000  0.12500000  0.00000000       0.188
   0.50000000  0.25000000  0.00000000       0.094
  -0.37500000  0.25000000  0.00000000       0.094
 
 position of ions in fractional coordinates (direct lattice) 
   0.00000000  0.00000000  0.20921225
   0.33333331  0.00000000  0.20921225
   0.66666663  0.00000000  0.20921225
   0.00000000  0.33333334  0.20921225
   0.33333331  0.33333334  0.20921225
   0.66666669  0.33333334  0.20921225
   0.00000000  0.66666669  0.20921225
   0.33333331  0.66666669  0.20921225
   0.66666663  0.66666669  0.20921225
   0.11111110  0.11111111  0.30398048
   0.44444445  0.11111111  0.30398048
   0.77777779  0.11111111  0.30398048
   0.11111110  0.44444445  0.30398048
   0.44444442  0.44444445  0.30398048
   0.77777779  0.44444445  0.30398048
   0.11111110  0.77777779  0.30398048
   0.44444445  0.77777779  0.30398048
   0.77777779  0.77777779  0.30398048
   0.88835112  0.22329779  0.39848767
   0.22146093  0.22146095  0.39716096
   0.55707807  0.22146095  0.39716096
   0.88856418  0.55571794  0.39786148
   0.22146095  0.55707813  0.39716096
   0.55571794  0.55571794  0.39786148
   0.88835112  0.88835112  0.39848767
   0.22329776  0.88835112  0.39848767
   0.55571788  0.88856418  0.39786148
   0.00000000  0.00000000  0.49201252
   0.33336224  0.00422141  0.49249920
   0.66241629  0.00422141  0.49249920
   0.00422141  0.33336227  0.49249920
   0.66241635  0.33336227  0.49249920
   0.00422141  0.66241635  0.49249920
   0.33336224  0.66241635  0.49249920
   0.66666663  0.66666669  0.49162299
   0.33333331  0.33333334  0.48544689
   0.33333331  0.33333334  0.56588020
   0.33333331  0.33333334  0.60413686
 
 position of ions in cartesian coordinates  (Angst):
   0.00000000  0.00000000  5.28218814
   2.93045535  0.00000000  5.28218814
   5.86091070  0.00000000  5.28218814
   1.46522781  2.53784900  5.28218814
   4.39568315  2.53784900  5.28218814
   7.32613904  2.53784900  5.28218814
   2.93045562  5.07569801  5.28218814
   5.86091096  5.07569801  5.28218814
   8.79136632  5.07569801  5.28218814
   1.46522770  0.84594965  7.67489535
   4.39568332  0.84594965  7.67489535
   7.32613893  0.84594965  7.67489535
   2.93045542  3.38379860  7.67489535
   5.86091083  3.38379860  7.67489535
   8.79136671  3.38379860  7.67489535
   4.39568328  5.92164760  7.67489535
   7.32613890  5.92164760  7.67489535
  10.25659451  5.92164760  7.67489535
   8.79136665  1.70008814 10.06101158
   2.92041644  1.68610329 10.02751482
   5.87094974  1.68610329 10.02751482
  10.25445351  4.23098453 10.04520166
   4.39568342  4.24134043 10.02751482
   7.32828017  4.23098453 10.04520166
  11.71473045  6.76350278 10.06101158
   5.86800258  6.76350278 10.06101158
   8.79136631  6.76512497 10.04520166
   0.00000000  0.00000000 12.42232586
   2.94926562  0.03213987 12.43461354
   5.84210043  0.03213987 12.43461354
   1.50246689  2.53806924 12.43461354
   7.28889995  2.53806924 12.43461354
   2.94888442  5.04333790 12.43461354
   5.84248215  5.04333790 12.43461354
   8.79136632  5.07569801 12.41249099
   4.39568315  2.53784900 12.25655696
   4.39568315  2.53784900 14.28733619
   4.39568315  2.53784900 15.25323980
 


--------------------------------------------------------------------------------------------------------


 k-point   1 :   0.0000 0.0000 0.0000  plane waves:   42843
 k-point   2 :   0.1250 0.0000 0.0000  plane waves:   42824
 k-point   3 :   0.2500 0.0000 0.0000  plane waves:   42872
 k-point   4 :   0.3750 0.0000 0.0000  plane waves:   42884
 k-point   5 :   0.5000 0.0000 0.0000  plane waves:   42900
 k-point   6 :   0.2500 0.1250 0.0000  plane waves:   42896
 k-point   7 :   0.3750 0.1250 0.0000  plane waves:   42940
 k-point   8 :   0.5000 0.1250 0.0000  plane waves:   42932
 k-point   9 :   0.5000 0.2500 0.0000  plane waves:   42910
 k-point  10 :  -0.3750 0.2500 0.0000  plane waves:   42928

 maximum and minimum number of plane-waves per node :     42940    42824

 maximum number of plane-waves:     42940
 maximum index in each direction: 
   IXMAX=   16   IYMAX=   16   IZMAX=   46
   IXMIN=  -16   IYMIN=  -16   IZMIN=  -46


 serial   3D FFT for wavefunctions
 parallel 3D FFT for charge:
    minimum data exchange during FFTs selected (reduces bandwidth)


 total amount of memory used by VASP MPI-rank0   188399. kBytes
=======================================================================

   base      :      30000. kBytes
   nonlr-proj:      14783. kBytes
   fftplans  :       6755. kBytes
   grid      :      24615. kBytes
   one-center:        590. kBytes
   wavefun   :     111656. kBytes
 
     INWAV:  cpu time    0.0000: real time    0.0000
 initial charge density was supplied:
 number of electron     402.0000122 magnetization 
 keeping initial charge density in first step


--------------------------------------------------------------------------------------------------------


 Maximum index for non-local projection operator         2465
 Maximum index for augmentation-charges          632 (set IRDMAX)


--------------------------------------------------------------------------------------------------------


 First call to EWALD:  gamma=   0.149
 Maximum number of real-space cells 4x 4x 2
 Maximum number of reciprocal cells 2x 2x 5

    FEWALD:  cpu time    0.0013: real time    0.0014


--------------------------------------- Iteration      1(   1)  ---------------------------------------


    POTLOK:  cpu time    0.0645: real time    0.0648
    SETDIJ:  cpu time    0.0060: real time    0.0061
     EDDAV:  cpu time   10.6201: real time   10.6208
 BZINTS: Fermi energy:    8.928016;  402.000000 electrons
         Band energy: 0.102589E+04;  BLOECHL correction:   -0.007525
       DOS:  cpu time    0.0103: real time    0.0103
    --------------------------------------------
      LOOP:  cpu time   10.7009: real time   10.7021

 eigenvalue-minimisations  :  5120
 total energy-change (2. order) : 0.2458304E+04  (-0.1816192E+05)
 number of electron     402.0000122 magnetization 
 augmentation part      402.0000122 magnetization 

 Free energy of the ion-electron system (eV)
  ---------------------------------------------------
  alpha Z        PSCENC =       672.49268920
  Ewald energy   TEWEN  =    145259.02023139
  -Hartree energ DENC   =   -183183.91272137
  -exchange      EXHF   =         0.00000000
  -V(xc)+E(xc)   XCENC  =      -354.89658612
  PAW double counting   =     39668.44149876   -38106.86483406
  entropy T*S    EENTRO =         0.00000000
  eigenvalues    EBANDS =      1025.88636042
  atomic energy  EATOM  =     37478.13735671
  Solvation  Ediel_sol  =         0.00000000
  ---------------------------------------------------
  free energy    TOTEN  =      2458.30399493 eV

  energy without entropy =     2458.30399493  energy(sigma->0) =     2458.30399493


--------------------------------------------------------------------------------------------------------




--------------------------------------- Iteration      1(   2)  ---------------------------------------


     EDDAV:  cpu time   11.3093: real time   11.3096
 BZINTS: Fermi energy:    1.018690;  402.000000 electrons
         Band energy:-0.143981E+04;  BLOECHL correction:   -0.034452
       DOS:  cpu time    0.0100: real time    0.0100
    --------------------------------------------
      LOOP:  cpu time   11.3193: real time   11.3195

 eigenvalue-minimisations  :  5568
 total energy-change (2. order) :-0.2465695E+04  (-0.2341990E+04)
 number of electron     402.0000122 magnetization 
 augmentation part      402.0000122 magnetization 

 Free energy of the ion-electron system (eV)
  ---------------------------------------------------
  alpha Z        PSCENC =       672.49268920
  Ewald energy   TEWEN  =    145259.02023139
  -Hartree energ DENC   =   -183183.91272137
  -exchange      EXHF   =         0.00000000
  -V(xc)+E(xc)   XCENC  =      -354.89658612
  PAW double counting   =     39668.44149876   -38106.86483406
  entropy T*S    EENTRO =         0.00000000
  eigenvalues    EBANDS =     -1439.80887437
  atomic energy  EATOM  =     37478.13735671
  Solvation  Ediel_sol  =         0.00000000
  ---------------------------------------------------
  free energy    TOTEN  =        -7.39123986 eV

  energy without entropy =       -7.39123986  energy(sigma->0) =       -7.39123986


--------------------------------------------------------------------------------------------------------




--------------------------------------- Iteration      1(   3)  ---------------------------------------


     EDDAV:  cpu time   11.7097: real time   11.7099
 BZINTS: Fermi energy:    0.298783;  402.000000 electrons
         Band energy:-0.153497E+04;  BLOECHL correction:   -0.043015
       DOS:  cpu time    0.0100: real time    0.0100
    --------------------------------------------
      LOOP:  cpu time   11.7197: real time   11.7199

 eigenvalue-minimisations  :  5808
 total energy-change (2. order) :-0.9516557E+02  (-0.9200704E+02)
 number of electron     402.0000122 magnetization 
 augmentation part      402.0000122 magnetization 

 Free energy of the ion-electron system (eV)
  ---------------------------------------------------
  alpha Z        PSCENC =       672.49268920
  Ewald energy   TEWEN  =    145259.02023139
  -Hartree energ DENC   =   -183183.91272137
  -exchange      EXHF   =         0.00000000
  -V(xc)+E(xc)   XCENC  =      -354.89658612
  PAW double counting   =     39668.44149876   -38106.86483406
  entropy T*S    EENTRO =         0.00000000
  eigenvalues    EBANDS =     -1534.97444654
  atomic energy  EATOM  =     37478.13735671
  Solvation  Ediel_sol  =         0.00000000
  ---------------------------------------------------
  free energy    TOTEN  =      -102.55681203 eV

  energy without entropy =     -102.55681203  energy(sigma->0) =     -102.55681203


--------------------------------------------------------------------------------------------------------




--------------------------------------- Iteration      1(   4)  ---------------------------------------


     EDDAV:  cpu time   11.3759: real time   11.3760
 BZINTS: Fermi energy:    0.279555;  402.000000 electrons
         Band energy:-0.153663E+04;  BLOECHL correction:   -0.045681
       DOS:  cpu time    0.0100: real time    0.0100
    --------------------------------------------
      LOOP:  cpu time   11.3858: real time   11.3860

 eigenvalue-minimisations  :  5600
 total energy-change (2. order) :-0.1659810E+01  (-0.1654705E+01)
 number of electron     402.0000122 magnetization 
 augmentation part      402.0000122 magnetization 

 Free energy of the ion-electron system (eV)
  ---------------------------------------------------
  alpha Z        PSCENC =       672.49268920
  Ewald energy   TEWEN  =    145259.02023139
  -Hartree energ DENC   =   -183183.91272137
  -exchange      EXHF   =         0.00000000
  -V(xc)+E(xc)   XCENC  =      -354.89658612
  PAW double counting   =     39668.44149876   -38106.86483406
  entropy T*S    EENTRO =         0.00000000
  eigenvalues    EBANDS =     -1536.63425693
  atomic energy  EATOM  =     37478.13735671
  Solvation  Ediel_sol  =         0.00000000
  ---------------------------------------------------
  free energy    TOTEN  =      -104.21662242 eV

  energy without entropy =     -104.21662242  energy(sigma->0) =     -104.21662242


--------------------------------------------------------------------------------------------------------




--------------------------------------- Iteration      1(   5)  ---------------------------------------


     EDDAV:  cpu time   11.9090: real time   11.9092
 BZINTS: Fermi energy:    0.279242;  402.000000 electrons
         Band energy:-0.153668E+04;  BLOECHL correction:   -0.045720
       DOS:  cpu time    0.0100: real time    0.0100
    --------------------------------------------
      LOOP:  cpu time   11.9190: real time   11.9192

 eigenvalue-minimisations  :  5936
 total energy-change (2. order) :-0.4162334E-01  (-0.4160492E-01)
 number of electron     402.0000122 magnetization 
 augmentation part      402.0000122 magnetization 

 Free energy of the ion-electron system (eV)
  ---------------------------------------------------
  alpha Z        PSCENC =       672.49268920
  Ewald energy   TEWEN  =    145259.02023139
  -Hartree energ DENC   =   -183183.91272137
  -exchange      EXHF   =         0.00000000
  -V(xc)+E(xc)   XCENC  =      -354.89658612
  PAW double counting   =     39668.44149876   -38106.86483406
  entropy T*S    EENTRO =         0.00000000
  eigenvalues    EBANDS =     -1536.67588028
  atomic energy  EATOM  =     37478.13735671
  Solvation  Ediel_sol  =         0.00000000
  ---------------------------------------------------
  free energy    TOTEN  =      -104.25824577 eV

  energy without entropy =     -104.25824577  energy(sigma->0) =     -104.25824577


--------------------------------------------------------------------------------------------------------




--------------------------------------- Iteration      1(   6)  ---------------------------------------


    EDDIAG:  cpu time    1.9541: real time    1.9542
  RMM-DIIS:  cpu time    5.5063: real time    5.5063
    ORTHCH:  cpu time    0.4385: real time    0.4385
 BZINTS: Fermi energy:    0.279232;  402.000000 electrons
         Band energy:-0.153668E+04;  BLOECHL correction:   -0.045721
       DOS:  cpu time    0.0098: real time    0.0098
    --------------------------------------------
      LOOP:  cpu time    7.9087: real time    7.9088

 eigenvalue-minimisations  :  5317
 total energy-change (2. order) :-0.1070084E-02  (-0.1069716E-02)
 number of electron     402.0000122 magnetization 
 augmentation part      402.0000122 magnetization 

 Free energy of the ion-electron system (eV)
  ---------------------------------------------------
  alpha Z        PSCENC =       672.49268920
  Ewald energy   TEWEN  =    145259.02023139
  -Hartree energ DENC   =   -183183.91272137
  -exchange      EXHF   =         0.00000000
  -V(xc)+E(xc)   XCENC  =      -354.89658612
  PAW double counting   =     39668.44149876   -38106.86483406
  entropy T*S    EENTRO =         0.00000000
  eigenvalues    EBANDS =     -1536.67695036
  atomic energy  EATOM  =     37478.13735671
  Solvation  Ediel_sol  =         0.00000000
  ---------------------------------------------------
  free energy    TOTEN  =      -104.25931585 eV

  energy without entropy =     -104.25931585  energy(sigma->0) =     -104.25931585


--------------------------------------------------------------------------------------------------------




--------------------------------------- Iteration      1(   7)  ---------------------------------------


    EDDIAG:  cpu time    1.9549: real time    1.9549
  RMM-DIIS:  cpu time    7.8126: real time    7.8127
    ORTHCH:  cpu time    0.4379: real time    0.4379
 BZINTS: Fermi energy:    0.279228;  402.000000 electrons
         Band energy:-0.153668E+04;  BLOECHL correction:   -0.045721
       DOS:  cpu time    0.0100: real time    0.0100
    --------------------------------------------
      LOOP:  cpu time   10.2153: real time   10.2155

 eigenvalue-minimisations  :  7660
 total energy-change (2. order) :-0.3611455E-03  (-0.3605221E-03)
 number of electron     402.0000122 magnetization 
 augmentation part      402.0000122 magnetization 

 Free energy of the ion-electron system (eV)
  ---------------------------------------------------
  alpha Z        PSCENC =       672.49268920
  Ewald energy   TEWEN  =    145259.02023139
  -Hartree energ DENC   =   -183183.91272137
  -exchange      EXHF   =         0.00000000
  -V(xc)+E(xc)   XCENC  =      -354.89658612
  PAW double counting   =     39668.44149876   -38106.86483406
  entropy T*S    EENTRO =         0.00000000
  eigenvalues    EBANDS =     -1536.67731151
  atomic energy  EATOM  =     37478.13735671
  Solvation  Ediel_sol  =         0.00000000
  ---------------------------------------------------
  free energy    TOTEN  =      -104.25967700 eV

  energy without entropy =     -104.25967700  energy(sigma->0) =     -104.25967700


--------------------------------------------------------------------------------------------------------




--------------------------------------- Iteration      1(   8)  ---------------------------------------


    EDDIAG:  cpu time    1.9542: real time    1.9543
  RMM-DIIS:  cpu time    5.4082: real time    5.4083
    ORTHCH:  cpu time    0.4383: real time    0.4383
 BZINTS: Fermi energy:    0.279228;  402.000000 electrons
         Band energy:-0.153668E+04;  BLOECHL correction:   -0.045721
       DOS:  cpu time    0.0100: real time    0.0100
    --------------------------------------------
      LOOP:  cpu time    7.8107: real time    7.8108

 eigenvalue-minimisations  :  5049
 total energy-change (2. order) :-0.1549019E-04  (-0.1584414E-04)
 number of electron     402.0000122 magnetization 
 augmentation part      402.0000122 magnetization 

 Free energy of the ion-electron system (eV)
  ---------------------------------------------------
  alpha Z        PSCENC =       672.49268920
  Ewald energy   TEWEN  =    145259.02023139
  -Hartree energ DENC   =   -183183.91272137
  -exchange      EXHF   =         0.00000000
  -V(xc)+E(xc)   XCENC  =      -354.89658612
  PAW double counting   =     39668.44149876   -38106.86483406
  entropy T*S    EENTRO =         0.00000000
  eigenvalues    EBANDS =     -1536.67732700
  atomic energy  EATOM  =     37478.13735671
  Solvation  Ediel_sol  =         0.00000000
  ---------------------------------------------------
  free energy    TOTEN  =      -104.25969249 eV

  energy without entropy =     -104.25969249  energy(sigma->0) =     -104.25969249


--------------------------------------------------------------------------------------------------------




--------------------------------------- Iteration      1(   9)  ---------------------------------------


    EDDIAG:  cpu time    1.9550: real time    1.9580
  RMM-DIIS:  cpu time    4.5138: real time    4.5139
    ORTHCH:  cpu time    0.4382: real time    0.4383
 BZINTS: Fermi energy:    0.279228;  402.000000 electrons
         Band energy:-0.153668E+04;  BLOECHL correction:   -0.045721
       DOS:  cpu time    0.0100: real time    0.0100
    --------------------------------------------
      LOOP:  cpu time    6.9171: real time    6.9201

 eigenvalue-minimisations  :  3828
 total energy-change (2. order) :-0.2618908E-05  (-0.2640311E-05)
 number of electron     402.0000122 magnetization 
 augmentation part      402.0000122 magnetization 

 Free energy of the ion-electron system (eV)
  ---------------------------------------------------
  alpha Z        PSCENC =       672.49268920
  Ewald energy   TEWEN  =    145259.02023139
  -Hartree energ DENC   =   -183183.91272137
  -exchange      EXHF   =         0.00000000
  -V(xc)+E(xc)   XCENC  =      -354.89658612
  PAW double counting   =     39668.44149876   -38106.86483406
  entropy T*S    EENTRO =         0.00000000
  eigenvalues    EBANDS =     -1536.67732962
  atomic energy  EATOM  =     37478.13735671
  Solvation  Ediel_sol  =         0.00000000
  ---------------------------------------------------
  free energy    TOTEN  =      -104.25969511 eV

  energy without entropy =     -104.25969511  energy(sigma->0) =     -104.25969511


--------------------------------------------------------------------------------------------------------




 average (electrostatic) potential at core
  the test charge radii are     1.1249  1.2059  0.7215  0.5201
  (the norm of the test charge is              1.0000)
       1 -78.6500       2 -78.5927       3 -78.5926       4 -78.5927       5 -78.5829
       6 -78.5924       7 -78.5926       8 -78.5924       9 -78.6250      10 -78.8349
      11 -78.8111      12 -78.8347      13 -78.8111      14 -78.8108      15 -78.8393
      16 -78.8346      17 -78.8393      18 -78.8393      19 -78.8039      20 -78.7539
      21 -78.7538      22 -78.8239      23 -78.7538      24 -78.8237      25 -78.8039
      26 -78.8039      27 -78.8239      28 -78.5754      29 -78.5185      30 -78.5185
      31 -78.5185      32 -78.5183      33 -78.5185      34 -78.5183      35 -78.5878
      36 -73.0971      37 -74.5789      38 -39.3098
 
 
 
 E-fermi :   0.2792     XC(G=0):  -5.2630     alpha+bet : -4.9628

 Fermi energy:         0.2792278762

 k-point     1 :       0.0000    0.0000    0.0000
  band No.  band energies     occupation 
      1     -18.2149      2.00000
      2      -7.2421      2.00000
      3      -6.7856      2.00000
      4      -5.9482      2.00000
      5      -5.6988      2.00000
      6      -5.5552      2.00000
      7      -5.5503      2.00000
      8      -5.5503      2.00000
      9      -5.5437      2.00000
     10      -5.5437      2.00000
     11      -5.5382      2.00000
     12      -5.5318      2.00000
     13      -5.5115      2.00000
     14      -5.5032      2.00000
     15      -5.5032      2.00000
     16      -5.4965      2.00000
     17      -5.4965      2.00000
     18      -5.4760      2.00000
     19      -5.3459      2.00000
     20      -5.3414      2.00000
     21      -5.3414      2.00000
     22      -5.3284      2.00000
     23      -5.3284      2.00000
     24      -5.3207      2.00000
     25      -5.1629      2.00000
     26      -5.1532      2.00000
     27      -5.1532      2.00000
     28      -5.1409      2.00000
     29      -5.1211      2.00000
     30      -5.1175      2.00000
     31      -5.1175      2.00000
     32      -5.1025      2.00000
     33      -5.0893      2.00000
     34      -5.0893      2.00000
     35      -5.0834      2.00000
     36      -5.0834      2.00000
     37      -5.0067      2.00000
     38      -4.9852      2.00000
     39      -4.9851      2.00000
     40      -4.9777      2.00000
     41      -4.9108      2.00000
     42      -4.9107      2.00000
     43      -4.7637      2.00000
     44      -4.7637      2.00000
     45      -4.7510      2.00000
     46      -4.7510      2.00000
     47      -4.7386      2.00000
     48      -4.7386      2.00000
     49      -4.7369      2.00000
     50      -4.7296      2.00000
     51      -4.7081      2.00000
     52      -4.7081      2.00000
     53      -4.5961      2.00000
     54      -4.5933      2.00000
     55      -4.5579      2.00000
     56      -4.5390      2.00000
     57      -4.3674      2.00000
     58      -4.3674      2.00000
     59      -4.3592      2.00000
     60      -4.3569      2.00000
     61      -4.3446      2.00000
     62      -4.3445      2.00000
     63      -4.3317      2.00000
     64      -4.3299      2.00000
     65      -4.3299      2.00000
     66      -4.2854      2.00000
     67      -4.2854      2.00000
     68      -4.1977      2.00000
     69      -4.1977      2.00000
     70      -4.1840      2.00000
     71      -4.1813      2.00000
     72      -4.1813      2.00000
     73      -4.1715      2.00000
     74      -4.1671      2.00000
     75      -4.1671      2.00000
     76      -4.1296      2.00000
     77      -4.1296      2.00000
     78      -4.1226      2.00000
     79      -4.1226      2.00000
     80      -4.1217      2.00000
     81      -4.1061      2.00000
     82      -4.1061      2.00000
     83      -4.1056      2.00000
     84      -4.1000      2.00000
     85      -4.0491      2.00000
     86      -4.0491      2.00000
     87      -3.9749      2.00000
     88      -3.9749      2.00000
     89      -3.9703      2.00000
     90      -3.9607      2.00000
     91      -3.9607      2.00000
     92      -3.9230      2.00000
     93      -3.9230      2.00000
     94      -3.9067      2.00000
     95      -3.9067      2.00000
     96      -3.8810      2.00000
     97      -3.8773      2.00000
     98      -3.8773      2.00000
     99      -3.8654      2.00000
    100      -3.8654      2.00000
    101      -3.6683      2.00000
    102      -3.6683      2.00000
    103      -3.6448      2.00000
    104      -3.6448      2.00000
    105      -3.6314      2.00000
    106      -3.6256      2.00000
    107      -3.6139      2.00000
    108      -3.6139      2.00000
    109      -3.5889      2.00000
    110      -3.5694      2.00000
    111      -3.5693      2.00000
    112      -3.5236      2.00000
    113      -3.5236      2.00000
    114      -3.5037      2.00000
    115      -3.5031      2.00000
    116      -3.4313      2.00000
    117      -3.3903      2.00000
    118      -3.3903      2.00000
    119      -3.3695      2.00000
    120      -3.3695      2.00000
    121      -3.3116      2.00000
    122      -3.3116      2.00000
    123      -3.2930      2.00000
    124      -3.2930      2.00000
    125      -3.2799      2.00000
    126      -3.2794      2.00000
    127      -3.2794      2.00000
    128      -3.2467      2.00000
    129      -3.2458      2.00000
    130      -3.2444      2.00000
    131      -3.2444      2.00000
    132      -3.2401      2.00000
    133      -3.2376      2.00000
    134      -3.2376      2.00000
    135      -3.1605      2.00000
    136      -3.1605      2.00000
    137      -3.0626      2.00000
    138      -3.0512      2.00000
    139      -3.0512      2.00000
    140      -3.0377      2.00000
    141      -3.0348      2.00000
    142      -3.0347      2.00000
    143      -3.0303      2.00000
    144      -3.0279      2.00000
    145      -3.0279      2.00000
    146      -3.0255      2.00000
    147      -3.0104      2.00000
    148      -3.0103      2.00000
    149      -2.9645      2.00000
    150      -2.9510      2.00000
    151      -2.9485      2.00000
    152      -2.9485      2.00000
    153      -2.9389      2.00000
    154      -2.9389      2.00000
    155      -2.9371      2.00000
    156      -2.9312      2.00000
    157      -2.8885      2.00000
    158      -2.8884      2.00000
    159      -2.8716      2.00000
    160      -2.8613      2.00000
    161      -2.8613      2.00000
    162      -2.8495      2.00000
    163      -2.8477      2.00000
    164      -2.8477      2.00000
    165      -2.8454      2.00000
    166      -2.8104      2.00000
    167      -2.8104      2.00000
    168      -2.8032      2.00000
    169      -2.7910      2.00000
    170      -2.7820      2.00000
    171      -2.7820      2.00000
    172      -2.7812      2.00000
    173      -2.7381      2.00000
    174      -2.7381      2.00000
    175      -2.6913      2.00000
    176      -2.6913      2.00000
    177      -2.6528      2.00000
    178      -2.6527      2.00000
    179      -2.6339      2.00000
    180      -2.6229      2.00000
    181      -2.5956      2.00000
    182      -2.5956      2.00000
    183      -2.5744      2.00000
    184      -2.5547      2.00000
    185      -2.5546      2.00000
    186      -2.5374      2.00000
    187      -2.3513      2.00000
    188      -2.3513      2.00000
    189      -1.8695      2.00000
    190      -1.8695      2.00000
    191      -1.8437      2.00000
    192      -1.7856      2.00000
    193      -1.7681      2.00000
    194      -1.7680      2.00000
    195      -1.2161      2.00000
    196      -1.2161      2.00000
    197      -1.0965      2.00000
    198      -0.4751      2.00000
    199      -0.3662      2.00000
    200      -0.3661      2.00000
    201      -0.0634      2.00000
    202      -0.0236      2.00000
    203      -0.0236      2.00000
    204       0.1707      1.19863
    205       0.1708      0.94633
    206       0.5160      0.00000
    207       0.9847      0.00000
    208       2.1572      0.00000
    209       2.2063      0.00000
    210       2.2063      0.00000
    211       2.3767      0.00000
    212       2.3767      0.00000
    213       2.9695      0.00000
    214       3.5414      0.00000
    215       3.5549      0.00000
    216       3.7474      0.00000
    217       3.7474      0.00000
    218       3.7782      0.00000
    219       3.7782      0.00000
    220       4.3039      0.00000
    221       4.4160      0.00000
    222       4.5165      0.00000
    223       4.5450      0.00000
    224       4.5450      0.00000
    225       4.5607      0.00000
    226       4.5607      0.00000
    227       4.6642      0.00000
    228       4.6642      0.00000
    229       4.7314      0.00000
    230       4.7314      0.00000
    231       4.7589      0.00000
    232       4.8347      0.00000
    233       5.0066      0.00000
    234       5.3512      0.00000
    235       5.6715      0.00000
    236       6.1522      0.00000
    237       6.1522      0.00000
    238       6.2681      0.00000
    239       6.2894      0.00000
    240       6.2894      0.00000
    241       6.3283      0.00000
    242       6.4400      0.00000
    243       6.4500      0.00000
    244       6.4501      0.00000
    245       6.4591      0.00000
    246       6.5012      0.00000
    247       6.5013      0.00000
    248       6.7402      0.00000
    249       6.7747      0.00000
    250       6.7752      0.00000
    251       6.7966      0.00000
    252       6.8647      0.00000
    253       6.8669      0.00000
    254       7.0911      0.00000
    255       7.1096      0.00000
    256       7.1236      0.00000

 k-point     2 :       0.1250    0.0000    0.0000
  band No.  band energies     occupation 
      1     -18.2149      2.00000
      2      -7.2360      2.00000
      3      -6.7452      2.00000
      4      -5.9079      2.00000
      5      -5.6674      2.00000
      6      -5.6048      2.00000
      7      -5.5720      2.00000
      8      -5.5480      2.00000
      9      -5.5457      2.00000
     10      -5.5412      2.00000
     11      -5.5216      2.00000
     12      -5.5201      2.00000
     13      -5.5071      2.00000
     14      -5.5062      2.00000
     15      -5.4908      2.00000
     16      -5.4384      2.00000
     17      -5.4306      2.00000
     18      -5.4285      2.00000
     19      -5.4080      2.00000
     20      -5.3831      2.00000
     21      -5.3774      2.00000
     22      -5.2760      2.00000
     23      -5.2708      2.00000
[...]
  0.000   0.000   0.000   0.000   0.000   0.000   0.000   0.000   0.000   0.000   0.000   0.000   0.000   0.000   0.000   0.000
  0.000   0.000   0.000   0.000   0.000   0.000   0.000   0.000   0.000   0.000   0.000   0.000   0.000   0.000   0.000   0.000
  0.000   0.000   0.000   0.000   0.000   0.000   0.000   0.000   0.000   0.000   1.000   0.000   0.000   0.000   0.000   0.000
  0.000   0.000   0.000   0.000   0.000   0.000   0.000   0.000   0.000   0.000   0.000   0.000   0.000   0.000   0.000   0.000
  0.000   0.000   0.000   0.000   0.000   0.000   0.000   0.000   0.000   0.000   0.000   0.000   0.000   0.000   0.000   0.000
  0.000   0.000   0.000   0.000   0.000   0.000   0.000   0.000   0.000   0.000   0.000   0.000   0.000   0.000   0.000   0.000
  0.000   0.000   0.000   0.000   0.000   0.000   0.000   0.000   0.000   0.000   0.000   0.000   0.000   0.000   0.000   0.000
  0.000   0.000   0.000   0.000   0.000   0.000   0.000   0.000   0.000   0.000   0.000   0.000   0.000   0.000   0.000   0.000
  0.000   0.000   0.000   0.000   0.000   0.000   0.000   0.000   0.000   0.000   0.000   0.000   0.000   0.000   0.000   0.000
  0.000   0.000   0.000   0.000   0.000   0.000   0.000   0.000   0.000   0.000   0.000   0.000   0.000   0.000   0.000   0.000


------------------------ aborting loop because EDIFF is reached ----------------------------------------





 total charge

# of ion       s       p       d       tot
------------------------------------------
    1        0.414   0.204   9.177   9.796
    2        0.420   0.203   9.177   9.800
    3        0.420   0.203   9.177   9.800
    4        0.420   0.203   9.177   9.800
    5        0.414   0.206   9.176   9.796
    6        0.420   0.203   9.177   9.800
    7        0.420   0.203   9.177   9.800
    8        0.420   0.203   9.177   9.800
    9        0.414   0.204   9.179   9.796
   10        0.405   0.271   9.163   9.839
   11        0.410   0.267   9.168   9.844
   12        0.405   0.271   9.163   9.839
   13        0.410   0.267   9.168   9.844
   14        0.410   0.267   9.168   9.844
   15        0.400   0.271   9.166   9.837
   16        0.405   0.271   9.163   9.839
   17        0.400   0.271   9.166   9.837
   18        0.400   0.271   9.166   9.837
   19        0.403   0.270   9.165   9.838
   20        0.409   0.291   9.155   9.855
   21        0.409   0.291   9.155   9.855
   22        0.402   0.270   9.169   9.841
   23        0.409   0.291   9.155   9.855
   24        0.402   0.270   9.169   9.841
   25        0.403   0.270   9.165   9.838
   26        0.403   0.270   9.165   9.838
   27        0.402   0.270   9.169   9.841
   28        0.419   0.198   9.180   9.797
   29        0.400   0.203   9.187   9.790
   30        0.400   0.203   9.187   9.790
   31        0.400   0.203   9.187   9.790
   32        0.400   0.203   9.187   9.790
   33        0.400   0.203   9.187   9.790
   34        0.400   0.203   9.187   9.790
   35        0.414   0.201   9.179   9.794
   36        0.588   0.427   8.066   9.081
   37        1.536   3.521   0.000   5.057
   38        0.607   0.127   0.000   0.734
--------------------------------------------------
tot         17.010  12.445 329.098 358.553
 
    CHARGE:  cpu time    0.4614: real time    0.4615
    FORLOC:  cpu time    0.0213: real time    0.0213
    FORNL :  cpu time    2.1060: real time    2.1061
    STRESS:  cpu time    6.3470: real time    6.3471
    FORCOR:  cpu time    0.0738: real time    0.0738
    FORHAR:  cpu time    0.0319: real time    0.0319
    OFIELD:  cpu time    0.0004: real time    0.0004

  FORCE on cell =-STRESS in cart. coord.  units (eV):
  Direction    XX          YY          ZZ          XY          YZ          ZX
  --------------------------------------------------------------------------------------
  Alpha Z   672.49269   672.49269   672.49269
  Ewald  168136.36928168136.36935************     0.00004     0.00000     0.00004
  Hartree178227.84666178227.84669************     0.00002     0.00000     0.00002
  E(xc)   -2107.36137 -2107.36142 -2111.50691     0.00005    -0.00000    -0.00000
  Local  ************************357727.57002     0.00055    -0.00007    -0.00018
  n-local  -355.05616  -335.55653  -355.11583    11.07274    -0.36175     0.34915
  augment  3280.94068  3280.94095  3286.52349    -0.00024    -0.00000    -0.00003
  Kinetic  5062.47797  5068.29633  5055.43518     5.54178     1.00583    -0.30202
  Fock        0.00000     0.00000     0.00000     0.00000     0.00000     0.00000
  -------------------------------------------------------------------------------------
  Total      -7.31231    -7.31231    -0.84156    -0.00000     0.00000    -0.00000
  in kB      -6.93259    -6.93259    -0.79786    -0.00000     0.00000    -0.00000
  external pressure =       -4.89 kB  Pullay stress =        0.00 kB


 VOLUME and BASIS-vectors are now :
 -----------------------------------------------------------------------------
  energy-cutoff  :      500.00
  volume of cell :     1689.94
      direct lattice vectors                 reciprocal lattice vectors
     8.791366577  0.000000000  0.000000000     0.113747958 -0.065672414  0.000000000
     4.395683289  7.613546790  0.000000000     0.000000000  0.131344829  0.000000000
     0.000000000  0.000000000 25.247987336     0.000000000  0.000000000  0.039607117

  length of vectors
     8.791366577  8.791366577 25.247987336     0.131344829  0.131344829  0.039607117


 FORCES acting on ions
    electron-ion (+dipol)            ewald-force                    non-local-force                 convergence-correction
 -----------------------------------------------------------------------------------------------
   0.464E-04 -.280E-04 0.276E+04   -.954E-04 0.593E-04 -.276E+04   -.236E-17 0.159E-17 -.247E+01   -.107E-03 -.169E-03 -.223E+00
   0.452E+00 0.485E+00 0.276E+04   -.457E+00 -.407E+00 -.276E+04   0.125E-01 -.201E-01 -.166E+01   -.225E-02 -.400E-01 -.177E+00
   -.451E+00 0.485E+00 0.276E+04   0.457E+00 -.407E+00 -.276E+04   -.125E-01 -.201E-01 -.166E+01   0.171E-02 -.381E-01 -.177E+00
   0.645E+00 0.149E+00 0.276E+04   -.581E+00 -.192E+00 -.276E+04   -.112E-01 0.209E-01 -.166E+01   -.355E-01 0.182E-01 -.177E+00
   -.499E-05 -.183E-04 0.276E+04   0.981E-04 -.197E-05 -.276E+04   -.182E-18 0.110E-17 -.149E+01   0.624E-02 0.382E-02 -.101E+00
   -.645E+00 0.149E+00 0.276E+04   0.581E+00 -.192E+00 -.276E+04   0.112E-01 0.209E-01 -.166E+01   0.341E-01 0.192E-01 -.177E+00
   0.194E+00 -.633E+00 0.276E+04   -.124E+00 0.599E+00 -.276E+04   -.237E-01 -.739E-03 -.166E+01   -.317E-01 0.210E-01 -.177E+00
   -.194E+00 -.633E+00 0.276E+04   0.124E+00 0.599E+00 -.276E+04   0.237E-01 -.739E-03 -.166E+01   0.333E-01 0.200E-01 -.176E+00
   0.365E-04 -.128E-04 0.276E+04   0.792E-04 -.643E-04 -.276E+04   -.753E-18 0.245E-18 -.211E+01   -.667E-02 -.344E-02 -.199E+00
   0.588E+01 0.339E+01 0.959E+03   -.548E+01 -.316E+01 -.959E+03   -.370E+00 -.214E+00 -.866E+00   -.870E-02 -.500E-02 0.976E-01
   -.283E-04 0.357E+01 0.965E+03   0.411E-04 -.356E+01 -.965E+03   -.632E-13 -.962E-02 -.475E+00   0.629E-02 -.225E-01 0.182E+00
   -.588E+01 0.339E+01 0.959E+03   0.548E+01 -.316E+01 -.959E+03   0.370E+00 -.214E+00 -.866E+00   0.713E-02 -.393E-02 0.975E-01
   0.309E+01 -.178E+01 0.965E+03   -.309E+01 0.178E+01 -.965E+03   -.833E-02 0.481E-02 -.475E+00   -.164E-01 0.167E-01 0.182E+00
   -.309E+01 -.178E+01 0.965E+03   0.309E+01 0.178E+01 -.965E+03   0.833E-02 0.481E-02 -.475E+00   0.271E-01 0.159E-01 0.182E+00
   0.161E-04 0.120E+01 0.960E+03   -.108E-03 -.125E+01 -.959E+03   0.591E-13 0.900E-02 -.658E+00   -.166E-02 0.177E-01 0.646E-01
   -.737E-05 -.679E+01 0.959E+03   0.205E-04 0.632E+01 -.959E+03   0.281E-11 0.427E+00 -.866E+00   0.118E-03 0.806E-02 0.975E-01
   0.104E+01 -.602E+00 0.960E+03   -.108E+01 0.624E+00 -.959E+03   0.780E-02 -.450E-02 -.658E+00   0.145E-01 -.103E-01 0.646E-01
   -.104E+01 -.602E+00 0.960E+03   0.108E+01 0.624E+00 -.959E+03   -.780E-02 -.450E-02 -.658E+00   -.145E-01 -.837E-02 0.652E-01
   0.412E-04 0.456E+01 -.881E+03   -.131E-03 -.468E+01 0.880E+03   0.434E-12 0.660E-01 0.667E+00   -.648E-03 0.276E-01 0.695E-01
   0.144E+02 0.831E+01 -.835E+03   -.136E+02 -.785E+01 0.836E+03   -.822E+00 -.475E+00 -.924E+00   0.147E+00 0.848E-01 0.203E+00
   -.144E+02 0.831E+01 -.835E+03   0.136E+02 -.785E+01 0.836E+03   0.822E+00 -.475E+00 -.924E+00   -.147E+00 0.849E-01 0.202E+00
   0.656E+01 -.379E+01 -.867E+03   -.683E+01 0.394E+01 0.866E+03   0.233E+00 -.135E+00 0.673E+00   0.480E-01 -.276E-01 0.984E-01
   -.571E-04 -.166E+02 -.835E+03   0.444E-04 0.157E+02 0.836E+03   0.624E-11 0.950E+00 -.924E+00   0.528E-03 -.169E+00 0.202E+00
   -.656E+01 -.379E+01 -.867E+03   0.683E+01 0.394E+01 0.866E+03   -.233E+00 -.135E+00 0.673E+00   -.480E-01 -.276E-01 0.990E-01
   -.395E+01 -.228E+01 -.881E+03   0.405E+01 0.234E+01 0.880E+03   -.572E-01 -.330E-01 0.667E+00   -.233E-01 -.136E-01 0.696E-01
   0.395E+01 -.228E+01 -.881E+03   -.405E+01 0.234E+01 0.880E+03   0.572E-01 -.330E-01 0.667E+00   0.233E-01 -.145E-01 0.696E-01
   0.196E-04 0.757E+01 -.867E+03   0.110E-03 -.788E+01 0.866E+03   0.177E-11 0.269E+00 0.673E+00   -.553E-03 0.553E-01 0.984E-01
   0.543E-04 -.374E-04 -.270E+04   -.117E-03 0.786E-04 0.270E+04   0.116E-17 0.452E-17 0.185E+01   -.117E-02 -.813E-03 0.281E+00
   0.287E+02 0.497E+02 -.268E+04   -.288E+02 -.501E+02 0.268E+04   -.281E-01 0.198E+00 0.235E+01   0.662E-02 0.611E-01 0.191E+00
   -.287E+02 0.497E+02 -.268E+04   0.288E+02 -.501E+02 0.268E+04   0.281E-01 0.198E+00 0.235E+01   0.307E-02 0.628E-01 0.191E+00
   0.574E+02 0.416E-01 -.268E+04   -.577E+02 0.121E+00 0.268E+04   0.158E+00 -.124E+00 0.235E+01   0.565E-01 -.247E-01 0.191E+00
   -.574E+02 0.416E-01 -.268E+04   0.577E+02 0.121E+00 0.268E+04   -.158E+00 -.124E+00 0.235E+01   -.473E-01 -.238E-01 0.191E+00
   0.286E+02 -.497E+02 -.268E+04   -.290E+02 0.499E+02 0.268E+04   0.186E+00 -.749E-01 0.235E+01   0.564E-01 -.282E-01 0.191E+00
   -.286E+02 -.497E+02 -.268E+04   0.290E+02 0.499E+02 0.268E+04   -.186E+00 -.749E-01 0.235E+01   -.446E-01 -.290E-01 0.191E+00
   0.217E-04 -.103E-04 -.269E+04   0.107E-03 -.669E-04 0.269E+04   0.298E-17 0.127E-17 0.189E+01   -.779E-02 -.407E-02 0.256E+00
   0.268E-04 -.191E-04 -.219E+04   0.953E-04 0.113E-04 0.219E+04   -.539E-17 -.172E-17 0.330E+01   0.218E-02 0.136E-02 -.169E+00
   0.198E-03 -.958E-04 -.175E+04   0.218E-04 0.221E-06 0.173E+04   0.360E-17 -.455E-18 0.213E+02   0.347E-02 0.214E-02 -.225E+00
   0.782E-05 -.133E-04 -.347E+03   0.152E-05 0.184E-08 0.355E+03   -.989E-19 -.542E-19 -.823E+01   0.194E-03 0.119E-03 0.350E-01
 -----------------------------------------------------------------------------------------------
   0.648E-03 -.782E-03 -.153E+02   0.301E-13 0.104E-12 -.608E-11   0.288E-16 0.124E-15 0.134E+02   0.400E-01 0.265E-01 0.188E+01
 
 
 POSITION                                       TOTAL-FORCE (eV/Angst)
 -----------------------------------------------------------------------------------
      0.00000      0.00000      5.28219         0.000000      0.000000      0.075914
      2.93046      0.00000      5.28219         0.005323      0.018602      0.046702
      5.86091      0.00000      5.28219        -0.005323      0.018602      0.046702
      1.46523      2.53785      5.28219         0.018771     -0.004691      0.046702
      4.39568      2.53785      5.28219         0.000000      0.000000      0.030099
      7.32614      2.53785      5.28219        -0.018771     -0.004691      0.046702
      2.93046      5.07570      5.28219         0.013448     -0.013911      0.046702
      5.86091      5.07570      5.28219        -0.013448     -0.013911      0.046702
      8.79137      5.07570      5.28219         0.000000     -0.000000      0.051907
      1.46523      0.84595      7.67490         0.026352      0.015214     -0.004538
      4.39568      0.84595      7.67490        -0.000000     -0.032641     -0.104969
      7.32614      0.84595      7.67490        -0.026352      0.015214     -0.004538
      2.93046      3.38380      7.67490        -0.028268      0.016320     -0.104969
      5.86091      3.38380      7.67490         0.028268      0.016320     -0.104969
      8.79137      3.38380      7.67490        -0.000000     -0.018245     -0.021083
      4.39568      5.92165      7.67490        -0.000000     -0.030428     -0.004538
      7.32614      5.92165      7.67490        -0.015801      0.009123     -0.021083
     10.25659      5.92165      7.67490         0.015801      0.009123     -0.021083
      8.79137      1.70009     10.06101        -0.000000     -0.022717      0.015253
      2.92042      1.68610     10.02751         0.115922      0.066928     -0.000873
      5.87095      1.68610     10.02751        -0.115922      0.066928     -0.000873
     10.25445      4.23098     10.04520         0.014124     -0.008154      0.026770
      4.39568      4.24134     10.02751        -0.000000     -0.133855     -0.000873
      7.32828      4.23098     10.04520        -0.014124     -0.008154      0.026770
     11.71473      6.76350     10.06101         0.019673      0.011358      0.015253
      5.86800      6.76350     10.06101        -0.019673      0.011358      0.015253
      8.79137      6.76512     10.04520         0.000000      0.016309      0.026770
      0.00000      0.00000     12.42233         0.000000     -0.000000     -0.030538
      2.94927      0.03214     12.43461        -0.076661     -0.156012     -0.056424
      5.84210      0.03214     12.43461         0.076661     -0.156012     -0.056424
      1.50247      2.53807     12.43461        -0.173441      0.011615     -0.056424
      7.28890      2.53807     12.43461         0.173441      0.011615     -0.056424
      2.94888      5.04334     12.43461        -0.096780      0.144397     -0.056424
      5.84248      5.04334     12.43461         0.096780      0.144397     -0.056424
      8.79137      5.07570     12.41249         0.000000      0.000000     -0.006331
      4.39568      2.53785     12.25656         0.000000      0.000000      0.257985
      4.39568      2.53785     14.28734         0.000000     -0.000000     -0.000463
      4.39568      2.53785     15.25324         0.000000      0.000000     -0.051923
 -----------------------------------------------------------------------------------
    total drift:                                0.040666      0.025707      0.059409


--------------------------------------------------------------------------------------------------------



  FREE ENERGIE OF THE ION-ELECTRON SYSTEM (eV)
  ---------------------------------------------------
  free  energy   TOTEN  =      -104.25969511 eV

  energy  without entropy=     -104.25969511  energy(sigma->0) =     -104.25969511
 


--------------------------------------------------------------------------------------------------------


    POTLOK:  cpu time    0.0655: real time    0.0655


--------------------------------------------------------------------------------------------------------


 stress matrix after NEB project (eV)
     -7.31231     -0.00000     -0.00000
     -0.00000     -7.31231      0.00000
      0.00000      0.00000     -0.84156
  FORCES: max atom, RMS     0.051923    0.008423
  FORCE total and by dimension    0.051925    0.051923
  Stress total and by dimension   10.375360    7.312314
     LOOP+:  cpu time   99.0516: real time   99.0608
 -----------------------------------------------------------------------------
|                                                                             |
|           W    W    AA    RRRRR   N    N  II  N    N   GGGG   !!!           |
|           W    W   A  A   R    R  NN   N  II  NN   N  G    G  !!!           |
|           W    W  A    A  R    R  N N  N  II  N N  N  G       !!!           |
|           W WW W  AAAAAA  RRRRR   N  N N  II  N  N N  G  GGG   !            |
|           WW  WW  A    A  R   R   N   NN  II  N   NN  G    G                |
|           W    W  A    A  R    R  N    N  II  N    N   GGGG   !!!           |
|                                                                             |
|     Tetrahedron method does not include variations of the Fermi             |
|     occupations, so forces and stress will be inaccurate. We suggest        |
|     using a different smearing scheme ISMEAR = 1 or 2 for metals in         |
|     relaxations.                                                            |
|                                                                             |
 -----------------------------------------------------------------------------

    4ORBIT:  cpu time    0.0000: real time    0.0000



 total charge

# of ion       s       p       d       tot
------------------------------------------
    1        0.414   0.204   9.177   9.796
    2        0.420   0.203   9.177   9.800
    3        0.420   0.203   9.177   9.800
    4        0.420   0.203   9.177   9.800
    5        0.414   0.206   9.176   9.796
    6        0.420   0.203   9.177   9.800
    7        0.420   0.203   9.177   9.800
    8        0.420   0.203   9.177   9.800
    9        0.414   0.204   9.179   9.796
   10        0.405   0.271   9.163   9.839
   11        0.410   0.267   9.168   9.844
   12        0.405   0.271   9.163   9.839
   13        0.410   0.267   9.168   9.844
   14        0.410   0.267   9.168   9.844
   15        0.400   0.271   9.166   9.837
   16        0.405   0.271   9.163   9.839
   17        0.400   0.271   9.166   9.837
   18        0.400   0.271   9.166   9.837
   19        0.403   0.270   9.165   9.838
   20        0.409   0.291   9.155   9.855
   21        0.409   0.291   9.155   9.855
   22        0.402   0.270   9.169   9.841
   23        0.409   0.291   9.155   9.855
   24        0.402   0.270   9.169   9.841
   25        0.403   0.270   9.165   9.838
   26        0.403   0.270   9.165   9.838
   27        0.402   0.270   9.169   9.841
   28        0.419   0.198   9.180   9.797
   29        0.400   0.203   9.187   9.790
   30        0.400   0.203   9.187   9.790
   31        0.400   0.203   9.187   9.790
   32        0.400   0.203   9.187   9.790
   33        0.400   0.203   9.187   9.790
   34        0.400   0.203   9.187   9.790
   35        0.414   0.201   9.179   9.794
   36        0.588   0.427   8.066   9.081
   37        1.536   3.521   0.000   5.057
   38        0.607   0.127   0.000   0.734
--------------------------------------------------
tot         17.010  12.445 329.098 358.553
 
 BZINTS: Fermi energy:    0.279228;  402.000000 electrons
         Band energy:-0.153668E+04;  BLOECHL correction:   -0.045721

 total amount of memory used by VASP MPI-rank0   188399. kBytes
=======================================================================

   base      :      30000. kBytes
   nonlr-proj:      14783. kBytes
   fftplans  :       6755. kBytes
   grid      :      24615. kBytes
   one-center:        590. kBytes
   wavefun   :     111656. kBytes
 
  
  
 General timing and accounting informations for this job:
 ========================================================
  
                  Total CPU time used (sec):      107.529
                            User time (sec):      103.839
                          System time (sec):        3.690
                         Elapsed time (sec):      107.837
  
                   Maximum memory used (kb):      440932.
                   Average memory used (kb):          N/A
  
                          Minor page faults:        80885
                          Major page faults:            0
                 Voluntary context switches:         4105
