PROCAR new format
# of k-points:   10         # of bands:  256         # of ions:   38

 k-point     1 :    0.00000000 0.00000000 0.00000000     weight = 0.01562500

band     1 # energy  -18.21491072 # occ.  2.00000000
 
ion      s      p      d    tot
    1  0.000  0.000  0.000  0.000
    2  0.000  0.000  0.000  0.000
    3  0.000  0.000  0.000  0.000
    4  0.000  0.000  0.000  0.000
    5  0.000  0.000  0.000  0.000
    6  0.000  0.000  0.000  0.000
    7  0.000  0.000  0.000  0.000
    8  0.000  0.000  0.000  0.000
    9  0.000  0.000  0.000  0.000
   10  0.000  0.000  0.000  0.000
   11  0.000  0.000  0.000  0.000
   12  0.000  0.000  0.000  0.000
   13  0.000  0.000  0.000  0.000
   14  0.000  0.000  0.000  0.000
   15  0.000  0.000  0.000  0.000
   16  0.000  0.000  0.000  0.000
   17  0.000  0.000  0.000  0.000
   18  0.000  0.000  0.000  0.000
   19  0.000  0.000  0.000  0.000
   20  0.000  0.000  0.000  0.000
   21  0.000  0.000  0.000  0.000
   22  0.000  0.000  0.000  0.000
   23  0.000  0.000  0.000  0.000
   24  0.000  0.000  0.000  0.000
   25  0.000  0.000  0.000  0.000
   26  0.000  0.000  0.000  0.000
   27  0.000  0.000  0.000  0.000
   28  0.000  0.000  0.000  0.000
   29  0.000  0.000  0.000  0.000
   30  0.000  0.000  0.000  0.000
   31  0.000  0.000  0.000  0.000
   32  0.000  0.000  0.000  0.000
   33  0.000  0.000  0.000  0.000
   34  0.000  0.000  0.000  0.000
   35  0.000  0.000  0.000  0.000
   36  0.007  0.007  0.012  0.026
   37  0.732  0.017  0.000  0.749
   38  0.120  0.024  0.000  0.144
tot    0.859  0.049  0.012  0.920
 
band     2 # energy   -7.24205646 # occ.  2.00000000
 
ion      s      p      d    tot
    1  0.000  0.000  0.000  0.000
    2  0.000  0.000  0.000  0.000
    3  0.000  0.000  0.000  0.000
    4  0.000  0.000  0.000  0.000
    5  0.000  0.000  0.000  0.000
    6  0.000  0.000  0.000  0.000
    7  0.000  0.000  0.000  0.000
    8  0.000  0.000  0.000  0.000
    9  0.000  0.000  0.000  0.000
   10  0.002  0.000  0.000  0.002
   11  0.001  0.000  0.000  0.002
   12  0.002  0.000  0.000  0.002
   13  0.001  0.000  0.000  0.002
   14  0.001  0.000  0.000  0.002
   15  0.001  0.000  0.000  0.001
   16  0.002  0.000  0.000  0.002
   17  0.001  0.000  0.000  0.001
   18  0.001  0.000  0.000  0.001
   19  0.003  0.000  0.000  0.003
   20  0.007  0.001  0.004  0.012
   21  0.007  0.001  0.004  0.012
   22  0.002  0.000  0.000  0.003
   23  0.007  0.001  0.004  0.012
   24  0.002  0.000  0.000  0.003
   25  0.003  0.000  0.000  0.003
   26  0.003  0.000  0.000  0.003
   27  0.002  0.000  0.000  0.003
   28  0.001  0.000  0.000  0.001
   29  0.003  0.000  0.001  0.004
   30  0.003  0.000  0.001  0.004
   31  0.003  0.000  0.001  0.004
   32  0.003  0.000  0.001  0.004
   33  0.003  0.000  0.001  0.004
   34  0.003  0.000  0.001  0.004
   35  0.001  0.000  0.000  0.001
   36  0.094  0.014  0.103  0.212
   37  0.015  0.390  0.000  0.405
   38  0.135  0.014  0.000  0.148
tot    0.313  0.422  0.121  0.857
 
band     3 # energy   -6.78560273 # occ.  2.00000000
 
ion      s      p      d    tot
    1  0.006  0.001  0.000  0.007
    2  0.006  0.001  0.000  0.007
    3  0.006  0.001  0.000  0.007
    4  0.006  0.001  0.000  0.007
    5  0.006  0.001  0.000  0.007
    6  0.006  0.001  0.000  0.007
    7  0.006  0.001  0.000  0.007
    8  0.006  0.001  0.000  0.007
    9  0.006  0.001  0.000  0.007
   10  0.022  0.000  0.001  0.023
   11  0.023  0.000  0.000  0.023
   12  0.022  0.000  0.001  0.023
   13  0.023  0.000  0.000  0.023
   14  0.023  0.000  0.000  0.023
   15  0.023  0.000  0.000  0.024
   16  0.022  0.000  0.001  0.023
   17  0.023  0.000  0.000  0.024
   18  0.023  0.000  0.000  0.024
   19  0.019  0.000  0.000  0.020
   20  0.016  0.000  0.001  0.018
   21  0.016  0.000  0.001  0.018
   22  0.021  0.000  0.000  0.021
   23  0.016  0.000  0.001  0.018
   24  0.021  0.000  0.000  0.021
   25  0.019  0.000  0.000  0.020
   26  0.019  0.000  0.000  0.020
   27  0.021  0.000  0.000  0.021
   28  0.004  0.001  0.000  0.005
   29  0.004  0.001  0.000  0.004
   30  0.004  0.001  0.000  0.004
   31  0.004  0.001  0.000  0.004
   32  0.004  0.001  0.000  0.004
   33  0.004  0.001  0.000  0.004
   34  0.004  0.001  0.000  0.004
   35  0.005  0.001  0.000  0.005
   36  0.000  0.007  0.020  0.027
   37  0.003  0.056  0.000  0.059
   38  0.019  0.002  0.000  0.021
tot    0.482  0.077  0.029  0.589
 
band     4 # energy   -5.94815378 # occ.  2.00000000
 
ion      s      p      d    tot
    1  0.009  0.000  0.000  0.009
    2  0.008  0.000  0.000  0.009
    3  0.008  0.000  0.000  0.009
    4  0.008  0.000  0.000  0.009
    5  0.008  0.000  0.000  0.008
    6  0.008  0.000  0.000  0.009
    7  0.008  0.000  0.000  0.009
    8  0.008  0.000  0.000  0.009
    9  0.008  0.000  0.000  0.009
   10  0.011  0.001  0.013  0.025
   11  0.010  0.001  0.014  0.025
   12  0.011  0.001  0.013  0.025
   13  0.010  0.001  0.014  0.025
   14  0.010  0.001  0.014  0.025
   15  0.010  0.001  0.015  0.026
   16  0.011  0.001  0.013  0.025
   17  0.010  0.001  0.015  0.026
   18  0.010  0.001  0.015  0.026
   19  0.012  0.001  0.014  0.027
   20  0.011  0.001  0.012  0.024
   21  0.011  0.001  0.012  0.024
   22  0.013  0.001  0.015  0.029
   23  0.011  0.001  0.012  0.024
   24  0.013  0.001  0.015  0.029
   25  0.012  0.001  0.014  0.027
   26  0.012  0.001  0.014  0.027
   27  0.013  0.001  0.015  0.029
   28  0.009  0.000  0.000  0.009
   29  0.008  0.000  0.000  0.009
   30  0.008  0.000  0.000  0.009
   31  0.008  0.000  0.000  0.009
   32  0.008  0.000  0.000  0.009
   33  0.008  0.000  0.000  0.009
   34  0.008  0.000  0.000  0.009
   35  0.009  0.000  0.000  0.010
   36  0.007  0.002  0.009  0.018
   37  0.001  0.009  0.000  0.010
   38  0.003  0.000  0.000  0.003
tot    0.350  0.037  0.265  0.652
 
band     5 # energy   -5.69881570 # occ.  2.00000000
 
ion      s      p      d    tot
    1  0.010  0.000  0.020  0.030
    2  0.011  0.000  0.017  0.028
    3  0.011  0.000  0.017  0.028
    4  0.011  0.000  0.017  0.028
    5  0.010  0.000  0.016  0.026
    6  0.011  0.000  0.017  0.028
    7  0.011  0.000  0.017  0.028
    8  0.011  0.000  0.017  0.028
    9  0.012  0.000  0.017  0.029
   10  0.000  0.000  0.020  0.021
   11  0.001  0.000  0.018  0.019
   12  0.000  0.000  0.020  0.021
   13  0.001  0.000  0.018  0.019
   14  0.001  0.000  0.018  0.019
   15  0.000  0.000  0.020  0.021
   16  0.000  0.000  0.020  0.021
   17  0.000  0.000  0.020  0.021
   18  0.000  0.000  0.020  0.021
   19  0.001  0.000  0.014  0.015
   20  0.000  0.000  0.019  0.019
   21  0.000  0.000  0.019  0.019
   22  0.000  0.000  0.016  0.017
   23  0.000  0.000  0.019  0.019
   24  0.000  0.000  0.016  0.017
   25  0.001  0.000  0.014  0.015
   26  0.001  0.000  0.014  0.015
   27  0.000  0.000  0.016  0.017
   28  0.006  0.000  0.013  0.018
   29  0.008  0.000  0.012  0.020
   30  0.008  0.000  0.012  0.020
   31  0.008  0.000  0.012  0.020
   32  0.008  0.000  0.012  0.020
   33  0.008  0.000  0.012  0.020
   34  0.008  0.000  0.012  0.020
   35  0.007  0.000  0.011  0.018
   36  0.013  0.000  0.017  0.031
   37  0.000  0.003  0.000  0.003
   38  0.001  0.000  0.000  0.001
tot    0.179  0.008  0.595  0.781
 
band     6 # energy   -5.55521934 # occ.  2.00000000
 
ion      s      p      d    tot
    1  0.007  0.000  0.000  0.008
    2  0.003  0.000  0.011  0.014
    3  0.003  0.000  0.011  0.014
    4  0.003  0.000  0.011  0.014
    5  0.008  0.000  0.007  0.015
    6  0.003  0.000  0.011  0.013
    7  0.003  0.000  0.011  0.014
    8  0.003  0.000  0.011  0.013
    9  0.000  0.001  0.022  0.023
   10  0.000  0.000  0.054  0.054
   11  0.003  0.001  0.009  0.013
   12  0.000  0.000  0.053  0.054
   13  0.003  0.001  0.009  0.013
   14  0.003  0.001  0.009  0.013
   15  0.015  0.001  0.027  0.042
   16  0.000  0.000  0.053  0.054
   17  0.015  0.001  0.027  0.042
   18  0.014  0.001  0.027  0.042
   19  0.007  0.000  0.026  0.032
   20  0.005  0.000  0.013  0.019
   21  0.005  0.000  0.013  0.019
   22  0.003  0.001  0.017  0.020
   23  0.005  0.000  0.013  0.019
   24  0.003  0.001  0.017  0.020
   25  0.007  0.000  0.025  0.032
   26  0.007  0.000  0.026  0.032
   27  0.003  0.001  0.017  0.020
   28  0.001  0.001  0.012  0.014
   29  0.002  0.000  0.011  0.013
   30  0.002  0.000  0.011  0.013
   31  0.002  0.000  0.011  0.013
   32  0.002  0.000  0.011  0.013
   33  0.002  0.000  0.011  0.013
   34  0.002  0.000  0.011  0.013
   35  0.001  0.000  0.001  0.002
   36  0.015  0.003  0.010  0.028
   37  0.001  0.004  0.000  0.005
   38  0.001  0.000  0.000  0.002
tot    0.158  0.022  0.617  0.797
 
band     7 # energy   -5.55027754 # occ.  2.00000000
 
ion      s      p      d    tot
    1  0.000  0.000  0.001  0.001
    2  0.000  0.000  0.003  0.003
    3  0.002  0.001  0.006  0.008
    4  0.000  0.000  0.003  0.003
    5  0.000  0.000  0.009  0.009
    6  0.001  0.000  0.003  0.005
    7  0.002  0.001  0.006  0.008
    8  0.001  0.000  0.003  0.005
    9  0.000  0.000  0.005  0.005
   10  0.002  0.000  0.019  0.021
   11  0.006  0.000  0.062  0.069
   12  0.000  0.001  0.045  0.046
   13  0.006  0.000  0.061  0.068
   14  0.026  0.001  0.006  0.032
   15  0.004  0.001  0.019  0.024
   16  0.000  0.001  0.045  0.046
   17  0.004  0.001  0.019  0.024
   18  0.015  0.000  0.035  0.050
   19  0.001  0.000  0.041  0.042
   20  0.011  0.000  0.030  0.041
   21  0.003  0.001  0.016  0.020
   22  0.006  0.001  0.050  0.057
   23  0.003  0.001  0.016  0.020
   24  0.024  0.001  0.009  0.034
   25  0.003  0.000  0.015  0.018
   26  0.001  0.000  0.041  0.042
   27  0.006  0.001  0.050  0.057
   28  0.000  0.000  0.002  0.002
   29  0.002  0.000  0.004  0.006
   30  0.000  0.000  0.002  0.003
   31  0.002  0.000  0.004  0.006
   32  0.001  0.000  0.003  0.005
   33  0.000  0.000  0.002  0.003
   34  0.001  0.000  0.003  0.005
   35  0.000  0.000  0.010  0.010
   36  0.000  0.000  0.002  0.002
   37  0.000  0.000  0.000  0.000
   38  0.000  0.000  0.000  0.000
tot    0.131  0.017  0.651  0.800
 
band     8 # energy   -5.55027021 # occ.  2.00000000
 
ion      s      p      d    tot
    1  0.000  0.000  0.001  0.001
    2  0.002  0.001  0.005  0.007
    3  0.000  0.000  0.002  0.003
    4  0.002  0.001  0.005  0.007
    5  0.000  0.000  0.009  0.009
    6  0.001  0.000  0.005  0.006
    7  0.000  0.000  0.002  0.003
    8  0.001  0.000  0.005  0.006
    9  0.000  0.000  0.005  0.005
   10  0.000  0.001  0.054  0.054
   11  0.019  0.001  0.024  0.044
   12  0.001  0.000  0.028  0.030
   13  0.019  0.001  0.025  0.045
   14  0.000  0.000  0.080  0.081
   15  0.011  0.001  0.030  0.042
   16  0.001  0.000  0.028  0.030
   17  0.011  0.001  0.029  0.041
   18  0.000  0.002  0.013  0.015
   19  0.002  0.000  0.024  0.026
   20  0.000  0.001  0.011  0.013
   21  0.008  0.001  0.026  0.034
   22  0.018  0.001  0.023  0.042
   23  0.008  0.001  0.026  0.034
   24  0.000  0.000  0.064  0.064
   25  0.000  0.000  0.050  0.050
   26  0.002  0.000  0.024  0.026
   27  0.018  0.001  0.022  0.041
   28  0.000  0.000  0.002  0.002
   29  0.000  0.000  0.002  0.003
   30  0.002  0.001  0.004  0.006
   31  0.000  0.000  0.002  0.003
   32  0.001  0.000  0.003  0.004
   33  0.002  0.001  0.004  0.006
   34  0.001  0.000  0.003  0.004
   35  0.000  0.000  0.010  0.010
   36  0.000  0.000  0.002  0.002
   37  0.000  0.000  0.000  0.000
   38  0.000  0.000  0.000  0.000
tot    0.131  0.017  0.651  0.800
 
band     9 # energy   -5.54365604 # occ.  2.00000000
 
ion      s      p      d    tot
    1  0.000  0.000  0.008  0.009
    2  0.001  0.001  0.006  0.008
    3  0.000  0.000  0.003  0.004
    4  0.001  0.001  0.007  0.009
    5  0.000  0.000  0.000  0.000
    6  0.000  0.000  0.005  0.006
    7  0.000  0.000  0.003  0.003
    8  0.000  0.000  0.004  0.005
    9  0.000  0.000  0.007  0.007
   10  0.027  0.001  0.027  0.055
   11  0.000  0.001  0.029  0.031
   12  0.009  0.001  0.036  0.046
   13  0.000  0.001  0.031  0.032
   14  0.001  0.000  0.037  0.038
   15  0.003  0.000  0.097  0.101
   16  0.005  0.001  0.038  0.044
   17  0.005  0.000  0.083  0.089
   18  0.017  0.001  0.006  0.024
   19  0.003  0.001  0.022  0.026
   20  0.011  0.001  0.008  0.020
   21  0.003  0.000  0.030  0.034
   22  0.000  0.001  0.029  0.029
   23  0.002  0.000  0.034  0.037
   24  0.000  0.000  0.027  0.028
   25  0.014  0.001  0.020  0.035
   26  0.004  0.001  0.022  0.027
   27  0.000  0.001  0.029  0.030
   28  0.000  0.000  0.007  0.007
   29  0.000  0.000  0.003  0.003
   30  0.001  0.000  0.003  0.004
   31  0.000  0.000  0.002  0.003
   32  0.001  0.000  0.002  0.003
   33  0.001  0.000  0.003  0.004
   34  0.001  0.000  0.002  0.004
   35  0.000  0.000  0.002  0.002
   36  0.000  0.000  0.003  0.003
   37  0.000  0.000  0.000  0.000
   38  0.000  0.000  0.000  0.000
tot    0.115  0.016  0.677  0.808
 
band    10 # energy   -5.54365103 # occ.  2.00000000
 
ion      s      p      d    tot
    1  0.000  0.000  0.008  0.009
    2  0.000  0.000  0.003  0.003
    3  0.001  0.000  0.006  0.008
    4  0.000  0.000  0.003  0.003
    5  0.000  0.000  0.000  0.000
    6  0.001  0.001  0.004  0.006
    7  0.001  0.001  0.007  0.008
    8  0.001  0.001  0.005  0.007
    9  0.000  0.000  0.007  0.007
   10  0.000  0.001  0.040  0.041
   11  0.001  0.000  0.035  0.037
   12  0.019  0.001  0.031  0.051
   13  0.001  0.001  0.034  0.036
   14  0.000  0.001  0.027  0.029
   15  0.014  0.001  0.027  0.041
   16  0.022  0.001  0.030  0.053
   17  0.012  0.000  0.041  0.053
   18  0.000  0.000  0.118  0.119
   19  0.011  0.001  0.021  0.033
   20  0.000  0.000  0.041  0.041
   21  0.008  0.001  0.018  0.026
   22  0.000  0.000  0.028  0.028
   23  0.009  0.001  0.014  0.023
   24  0.000  0.001  0.029  0.030
   25  0.000  0.001  0.023  0.024
   26  0.010  0.001  0.021  0.032
   27  0.000  0.000  0.027  0.028
   28  0.000  0.000  0.007  0.007
   29  0.001  0.000  0.003  0.004
   30  0.000  0.000  0.002  0.003
   31  0.001  0.000  0.003  0.004
   32  0.000  0.000  0.003  0.003
   33  0.000  0.000  0.002  0.003
   34  0.000  0.000  0.003  0.003
   35  0.000  0.000  0.002  0.002
   36  0.000  0.000  0.003  0.003
   37  0.000  0.000  0.000  0.000
   38  0.000  0.000  0.000  0.000
tot    0.115  0.016  0.677  0.807
 
band    11 # energy   -5.53824495 # occ.  2.00000000
 
ion      s      p      d    tot
    1  0.004  0.001  0.003  0.008
    2  0.000  0.000  0.005  0.005
    3  0.000  0.000  0.005  0.005
    4  0.000  0.000  0.005  0.005
    5  0.002  0.001  0.012  0.015
    6  0.000  0.000  0.005  0.005
    7  0.000  0.000  0.005  0.005
    8  0.000  0.000  0.005  0.005
    9  0.000  0.000  0.000  0.000
   10  0.013  0.001  0.016  0.030
   11  0.007  0.000  0.078  0.085
   12  0.013  0.001  0.016  0.030
   13  0.007  0.000  0.078  0.085
   14  0.007  0.000  0.079  0.086
   15  0.002  0.001  0.033  0.036
   16  0.013  0.001  0.016  0.030
   17  0.002  0.001  0.033  0.036
   18  0.002  0.001  0.033  0.036
   19  0.007  0.001  0.011  0.018
   20  0.001  0.001  0.022  0.024
   21  0.001  0.001  0.022  0.024
   22  0.005  0.000  0.038  0.044
   23  0.001  0.001  0.022  0.024
   24  0.005  0.000  0.038  0.044
   25  0.007  0.001  0.011  0.018
   26  0.007  0.001  0.011  0.018
   27  0.005  0.000  0.038  0.044
   28  0.002  0.000  0.000  0.003
   29  0.000  0.000  0.004  0.004
   30  0.000  0.000  0.004  0.004
   31  0.000  0.000  0.004  0.004
   32  0.000  0.000  0.004  0.004
   33  0.000  0.000  0.004  0.004
   34  0.000  0.000  0.004  0.004
   35  0.002  0.001  0.007  0.010
   36  0.002  0.000  0.002  0.004
   37  0.000  0.001  0.000  0.002
   38  0.000  0.000  0.000  0.000
tot    0.120  0.017  0.672  0.810
 
band    12 # energy   -5.53175038 # occ.  2.00000000
 
ion      s      p      d    tot
    1  0.004  0.000  0.023  0.027
    2  0.004  0.000  0.012  0.016
    3  0.004  0.000  0.012  0.016
    4  0.004  0.000  0.012  0.016
    5  0.001  0.000  0.013  0.015
    6  0.004  0.000  0.012  0.016
    7  0.004  0.000  0.012  0.016
    8  0.004  0.000  0.012  0.016
    9  0.006  0.000  0.001  0.008
   10  0.002  0.001  0.037  0.039
   11  0.008  0.001  0.012  0.020
   12  0.002  0.001  0.037  0.039
   13  0.008  0.001  0.012  0.020
   14  0.008  0.001  0.011  0.020
   15  0.002  0.000  0.035  0.037
   16  0.002  0.001  0.037  0.039
   17  0.002  0.000  0.035  0.037
   18  0.002  0.000  0.035  0.037
   19  0.003  0.000  0.024  0.027
   20  0.003  0.001  0.009  0.013
   21  0.003  0.001  0.009  0.013
   22  0.000  0.000  0.025  0.025
   23  0.003  0.001  0.009  0.013
   24  0.000  0.000  0.025  0.025
   25  0.003  0.000  0.024  0.027
   26  0.003  0.000  0.024  0.027
   27  0.000  0.000  0.025  0.025
   28  0.007  0.000  0.015  0.022
   29  0.005  0.000  0.014  0.019
   30  0.005  0.000  0.014  0.019
   31  0.005  0.000  0.014  0.019
   32  0.005  0.000  0.014  0.019
   33  0.005  0.000  0.014  0.019
   34  0.005  0.000  0.014  0.019
   35  0.003  0.000  0.007  0.011
   36  0.008  0.000  0.011  0.019
   37  0.000  0.000  0.000  0.000
   38  0.000  0.000  0.000  0.000
tot    0.135  0.011  0.653  0.799
 
band    13 # energy   -5.51151094 # occ.  2.00000000
 
ion      s      p      d    tot
    1  0.000  0.000  0.007  0.008
    2  0.001  0.000  0.010  0.011
    3  0.001  0.000  0.010  0.011
    4  0.001  0.000  0.010  0.011
    5  0.000  0.000  0.001  0.001
    6  0.001  0.000  0.010  0.011
    7  0.001  0.000  0.010  0.011
    8  0.001  0.000  0.010  0.011
    9  0.008  0.000  0.009  0.017
   10  0.003  0.000  0.013  0.016
   11  0.000  0.000  0.029  0.030
   12  0.003  0.000  0.012  0.016
   13  0.000  0.000  0.029  0.030
   14  0.000  0.000  0.029  0.030
   15  0.000  0.000  0.038  0.038
   16  0.003  0.000  0.012  0.016
   17  0.000  0.000  0.038  0.038
   18  0.000  0.000  0.038  0.038
   19  0.003  0.001  0.007  0.010
   20  0.002  0.000  0.027  0.030
   21  0.003  0.000  0.027  0.030
   22  0.003  0.000  0.074  0.077
   23  0.003  0.000  0.027  0.030
   24  0.003  0.000  0.074  0.077
   25  0.003  0.001  0.007  0.010
   26  0.003  0.001  0.007  0.010
   27  0.003  0.000  0.074  0.077
   28  0.009  0.001  0.000  0.010
   29  0.003  0.000  0.013  0.016
   30  0.003  0.000  0.013  0.016
   31  0.003  0.000  0.013  0.016
   32  0.003  0.000  0.013  0.015
   33  0.003  0.000  0.013  0.015
   34  0.003  0.000  0.013  0.015
   35  0.004  0.000  0.031  0.035
   36  0.000  0.000  0.000  0.001
   37  0.000  0.000  0.000  0.000
   38  0.000  0.000  0.000  0.000
tot    0.075  0.007  0.751  0.833
 
band    14 # energy   -5.50321083 # occ.  2.00000000
 
ion      s      p      d    tot
    1  0.000  0.000  0.012  0.012
    2  0.002  0.000  0.007  0.010
    3  0.000  0.000  0.009  0.010
    4  0.002  0.000  0.007  0.010
    5  0.000  0.000  0.005  0.005
    6  0.003  0.001  0.006  0.010
    7  0.000  0.000  0.009  0.010
    8  0.003  0.001  0.006  0.010
    9  0.000  0.000  0.018  0.018
   10  0.002  0.000  0.031  0.034
   11  0.002  0.000  0.044  0.046
   12  0.001  0.000  0.027  0.028
   13  0.002  0.000  0.041  0.043
   14  0.008  0.000  0.007  0.016
   15  0.000  0.000  0.033  0.033
   16  0.000  0.000  0.027  0.027
   17  0.000  0.000  0.032  0.033
   18  0.002  0.000  0.031  0.033
   19  0.003  0.000  0.075  0.078
   20  0.002  0.000  0.032  0.034
   21  0.001  0.000  0.032  0.033
   22  0.002  0.000  0.032  0.034
   23  0.000  0.000  0.032  0.032
   24  0.007  0.000  0.037  0.044
   25  0.015  0.000  0.003  0.018
   26  0.004  0.000  0.069  0.073
   27  0.001  0.000  0.032  0.033
   28  0.000  0.001  0.008  0.008
   29  0.001  0.000  0.006  0.007
   30  0.002  0.001  0.004  0.007
   31  0.001  0.000  0.006  0.008
   32  0.000  0.000  0.009  0.010
   33  0.002  0.001  0.004  0.007
   34  0.000  0.000  0.009  0.010
   35  0.000  0.000  0.011  0.011
   36  0.000  0.000  0.003  0.003
   37  0.000  0.000  0.000  0.000
   38  0.000  0.000  0.000  0.000
tot    0.071  0.009  0.757  0.837
 
band    15 # energy   -5.50319862 # occ.  2.00000000
 
ion      s      p      d    tot
    1  0.000  0.000  0.012  0.012
    2  0.002  0.000  0.007  0.010
    3  0.004  0.000  0.006  0.010
    4  0.001  0.000  0.008  0.010
    5  0.000  0.000  0.005  0.005
    6  0.000  0.000  0.009  0.010
    7  0.004  0.000  0.006  0.010
    8  0.001  0.000  0.009  0.010
    9  0.000  0.000  0.018  0.018
   10  0.000  0.000  0.025  0.025
   11  0.006  0.000  0.017  0.024
   12  0.002  0.000  0.030  0.031
   13  0.006  0.000  0.020  0.026
   14  0.000  0.000  0.054  0.054
   15  0.001  0.000  0.031  0.033
   16  0.002  0.000  0.030  0.032
   17  0.001  0.000  0.032  0.033
   18  0.000  0.000  0.033  0.033
   19  0.011  0.000  0.023  0.035
   20  0.000  0.000  0.032  0.032
   21  0.001  0.000  0.032  0.034
   22  0.005  0.000  0.035  0.040
   23  0.001  0.000  0.032  0.034
   24  0.000  0.000  0.030  0.030
   25  0.000  0.000  0.095  0.095
   26  0.010  0.000  0.029  0.040
   27  0.005  0.000  0.036  0.041
   28  0.000  0.001  0.008  0.008
   29  0.001  0.001  0.007  0.009
   30  0.000  0.000  0.009  0.009
   31  0.001  0.001  0.006  0.009
   32  0.002  0.000  0.004  0.006
   33  0.000  0.000  0.009  0.009
   34  0.002  0.000  0.004  0.007
   35  0.000  0.000  0.011  0.011
   36  0.000  0.000  0.003  0.003
   37  0.000  0.000  0.000  0.000
   38  0.000  0.000  0.000  0.000
tot    0.071  0.009  0.757  0.837
 
band    16 # energy   -5.49652875 # occ.  2.00000000
 
ion      s      p      d    tot
    1  0.000  0.000  0.014  0.014
    2  0.002  0.000  0.009  0.010
    3  0.000  0.000  0.008  0.009
    4  0.002  0.000  0.008  0.010
    5  0.000  0.000  0.017  0.017
    6  0.002  0.000  0.006  0.008
    7  0.000  0.000  0.008  0.009
    8  0.002  0.000  0.006  0.008
    9  0.000  0.000  0.002  0.003
   10  0.000  0.000  0.074  0.074
   11  0.001  0.000  0.039  0.040
   12  0.003  0.000  0.029  0.032
   13  0.001  0.000  0.038  0.039
   14  0.000  0.000  0.027  0.027
   15  0.001  0.000  0.025  0.026
   16  0.004  0.000  0.025  0.029
   17  0.001  0.000  0.025  0.026
   18  0.000  0.000  0.025  0.025
   19  0.002  0.000  0.037  0.040
   20  0.000  0.000  0.085  0.085
   21  0.008  0.000  0.033  0.042
   22  0.003  0.000  0.029  0.032
   23  0.009  0.000  0.030  0.039
   24  0.000  0.000  0.063  0.063
   25  0.000  0.000  0.011  0.011
   26  0.002  0.000  0.036  0.038
   27  0.003  0.000  0.027  0.030
   28  0.000  0.000  0.008  0.008
   29  0.001  0.000  0.005  0.006
   30  0.002  0.000  0.004  0.006
   31  0.001  0.000  0.006  0.006
   32  0.000  0.000  0.007  0.008
   33  0.002  0.000  0.004  0.007
   34  0.000  0.000  0.007  0.008
   35  0.000  0.000  0.003  0.003
   36  0.000  0.001  0.006  0.006
   37  0.000  0.000  0.000  0.000
   38  0.000  0.000  0.000  0.000
tot    0.052  0.007  0.787  0.846
 
band    17 # energy   -5.49651219 # occ.  2.00000000
 
ion      s      p      d    tot
    1  0.000  0.000  0.014  0.014
    2  0.001  0.000  0.006  0.008
    3  0.003  0.000  0.006  0.009
    4  0.001  0.000  0.007  0.008
    5  0.000  0.000  0.017  0.017
    6  0.000  0.000  0.009  0.010
    7  0.003  0.000  0.007  0.010
    8  0.000  0.000  0.009  0.010
    9  0.000  0.000  0.002  0.003
   10  0.005  0.000  0.011  0.017
   11  0.000  0.000  0.030  0.031
   12  0.001  0.000  0.057  0.058
   13  0.000  0.000  0.031  0.032
   14  0.001  0.000  0.042  0.044
   15  0.000  0.000  0.025  0.026
   16  0.001  0.000  0.060  0.061
   17  0.000  0.000  0.025  0.026
   18  0.001  0.000  0.025  0.027
   19  0.001  0.000  0.019  0.020
   20  0.012  0.000  0.014  0.026
   21  0.003  0.000  0.065  0.069
   22  0.001  0.000  0.050  0.051
   23  0.003  0.000  0.069  0.072
   24  0.004  0.000  0.017  0.020
   25  0.003  0.000  0.045  0.048
   26  0.001  0.000  0.020  0.022
   27  0.001  0.000  0.052  0.053
   28  0.000  0.000  0.008  0.009
   29  0.001  0.001  0.006  0.007
   30  0.000  0.000  0.007  0.007
   31  0.001  0.001  0.005  0.007
   32  0.002  0.000  0.004  0.006
   33  0.000  0.000  0.007  0.007
   34  0.002  0.000  0.004  0.006
   35  0.000  0.000  0.003  0.003
   36  0.000  0.001  0.006  0.006
   37  0.000  0.000  0.000  0.000
   38  0.000  0.000  0.000  0.000
tot    0.052  0.007  0.787  0.846
 
band    18 # energy   -5.47602662 # occ.  2.00000000
 
ion      s      p      d    tot
    1  0.003  0.000  0.002  0.004
    2  0.000  0.000  0.012  0.012
    3  0.000  0.000  0.012  0.012
    4  0.000  0.000  0.012  0.012
    5  0.007  0.000  0.000  0.007
    6  0.000  0.000  0.012  0.012
    7  0.000  0.000  0.012  0.012
    8  0.000  0.000  0.012  0.012
    9  0.000  0.000  0.007  0.007
   10  0.001  0.000  0.030  0.030
   11  0.000  0.000  0.025  0.026
   12  0.001  0.000  0.030  0.030
   13  0.000  0.000  0.025  0.026
   14  0.000  0.000  0.025  0.026
   15  0.000  0.000  0.021  0.022
   16  0.001  0.000  0.030  0.030
   17  0.000  0.000  0.021  0.022
   18  0.000  0.000  0.021  0.022
   19  0.001  0.000  0.065  0.066
   20  0.008  0.000  0.059  0.067
   21  0.008  0.000  0.059  0.068
   22  0.008  0.001  0.002  0.010
   23  0.008  0.000  0.059  0.068
   24  0.008  0.001  0.002  0.010
   25  0.001  0.000  0.065  0.066
   26  0.001  0.000  0.065  0.066
   27  0.008  0.001  0.002  0.010
   28  0.001  0.000  0.003  0.004
   29  0.000  0.000  0.010  0.010
   30  0.000  0.000  0.010  0.010
   31  0.000  0.000  0.010  0.010
   32  0.000  0.000  0.010  0.010
   33  0.000  0.000  0.010  0.010
   34  0.000  0.000  0.010  0.010
   35  0.007  0.001  0.000  0.008
   36  0.000  0.002  0.002  0.004
   37  0.000  0.003  0.000  0.003
   38  0.001  0.000  0.000  0.001
tot    0.073  0.014  0.748  0.834
 
band    19 # energy   -5.34592824 # occ.  2.00000000
 
ion      s      p      d    tot
    1  0.001  0.000  0.008  0.009
    2  0.000  0.000  0.011  0.011
    3  0.000  0.000  0.011  0.011
    4  0.000  0.000  0.011  0.011
    5  0.004  0.001  0.000  0.005
    6  0.000  0.000  0.011  0.011
    7  0.000  0.000  0.011  0.011
    8  0.000  0.000  0.011  0.011
    9  0.001  0.000  0.006  0.006
   10  0.001  0.001  0.047  0.049
   11  0.000  0.000  0.023  0.023
   12  0.001  0.001  0.047  0.049
   13  0.000  0.000  0.023  0.023
   14  0.000  0.000  0.023  0.023
   15  0.002  0.000  0.038  0.041
   16  0.001  0.001  0.047  0.049
   17  0.002  0.000  0.038  0.041
   18  0.002  0.000  0.038  0.041
   19  0.002  0.000  0.041  0.043
   20  0.001  0.000  0.011  0.011
   21  0.001  0.000  0.010  0.011
   22  0.000  0.001  0.057  0.059
   23  0.001  0.000  0.010  0.011
   24  0.000  0.001  0.057  0.058
   25  0.002  0.000  0.041  0.043
   26  0.002  0.000  0.041  0.043
   27  0.000  0.001  0.057  0.058
   28  0.001  0.000  0.011  0.013
   29  0.000  0.000  0.010  0.011
   30  0.000  0.000  0.010  0.011
   31  0.000  0.000  0.010  0.011
   32  0.000  0.000  0.010  0.011
   33  0.000  0.000  0.010  0.011
   34  0.000  0.000  0.010  0.011
   35  0.005  0.001  0.004  0.010
   36  0.003  0.001  0.000  0.005
   37  0.000  0.000  0.000  0.001
   38  0.000  0.000  0.000  0.000
tot    0.034  0.017  0.805  0.857
 
band    20 # energy   -5.34138883 # occ.  2.00000000
 
ion      s      p      d    tot
    1  0.000  0.000  0.012  0.012
    2  0.000  0.000  0.010  0.010
    3  0.001  0.000  0.005  0.007
    4  0.000  0.000  0.010  0.011
    5  0.000  0.000  0.001  0.001
    6  0.002  0.001  0.008  0.010
    7  0.001  0.000  0.005  0.007
    8  0.002  0.001  0.008  0.010
    9  0.000  0.001  0.018  0.018
   10  0.002  0.001  0.043  0.046
   11  0.000  0.000  0.027  0.028
   12  0.001  0.000  0.021  0.022
   13  0.000  0.000  0.027  0.028
   14  0.000  0.001  0.023  0.024
   15  0.001  0.000  0.081  0.081
   16  0.000  0.000  0.020  0.021
   17  0.001  0.000  0.079  0.080
   18  0.002  0.000  0.041  0.044
   19  0.000  0.000  0.031  0.031
   20  0.002  0.001  0.034  0.037
   21  0.001  0.000  0.013  0.014
   22  0.001  0.000  0.071  0.072
   23  0.001  0.000  0.012  0.013
   24  0.003  0.000  0.042  0.045
   25  0.000  0.001  0.020  0.021
   26  0.000  0.000  0.030  0.031
   27  0.001  0.000  0.073  0.074
   28  0.000  0.000  0.001  0.001
   29  0.000  0.000  0.008  0.008
   30  0.001  0.001  0.006  0.008
   31  0.000  0.000  0.008  0.008
   32  0.001  0.000  0.005  0.006
   33  0.001  0.001  0.006  0.008
   34  0.001  0.000  0.005  0.006
   35  0.000  0.001  0.017  0.018
   36  0.000  0.001  0.005  0.005
   37  0.000  0.000  0.000  0.000
   38  0.000  0.000  0.000  0.000
tot    0.023  0.015  0.827  0.865
 
band    21 # energy   -5.34136338 # occ.  2.00000000
 
ion      s      p      d    tot
    1  0.000  0.000  0.012  0.013
    2  0.002  0.001  0.005  0.008
    3  0.001  0.001  0.010  0.011
    4  0.002  0.001  0.005  0.008
    5  0.000  0.000  0.001  0.001
    6  0.000  0.000  0.008  0.008
    7  0.001  0.001  0.010  0.011
    8  0.000  0.000  0.008  0.008
    9  0.000  0.001  0.018  0.018
   10  0.000  0.000  0.013  0.013
   11  0.000  0.001  0.024  0.025
   12  0.001  0.001  0.035  0.037
   13  0.000  0.001  0.024  0.025
   14  0.000  0.000  0.028  0.028
   15  0.002  0.000  0.053  0.055
   16  0.001  0.001  0.036  0.038