PROCAR new format
# of k-points:   10         # of bands:  252         # of ions:   37

 k-point     1 :    0.00000000 0.00000000 0.00000000     weight = 0.01562500

band     1 # energy  -13.38440629 # occ.  2.00000000
 
ion      s      p      d    tot
    1  0.000  0.000  0.000  0.000
    2  0.000  0.000  0.000  0.000
    3  0.000  0.000  0.000  0.000
    4  0.000  0.000  0.000  0.000
    5  0.000  0.000  0.000  0.000
    6  0.000  0.000  0.000  0.000
    7  0.000  0.000  0.000  0.000
    8  0.000  0.000  0.000  0.000
    9  0.000  0.000  0.000  0.000
   10  0.000  0.000  0.000  0.000
   11  0.000  0.000  0.000  0.000
   12  0.000  0.000  0.000  0.000
   13  0.000  0.000  0.000  0.000
   14  0.000  0.000  0.000  0.000
   15  0.000  0.000  0.000  0.000
   16  0.000  0.000  0.000  0.000
   17  0.000  0.000  0.000  0.000
   18  0.000  0.000  0.000  0.000
   19  0.000  0.000  0.000  0.000
   20  0.000  0.000  0.000  0.000
   21  0.000  0.000  0.000  0.000
   22  0.000  0.000  0.000  0.000
   23  0.000  0.000  0.000  0.000
   24  0.000  0.000  0.000  0.000
   25  0.000  0.000  0.000  0.000
   26  0.000  0.000  0.000  0.000
   27  0.000  0.000  0.000  0.000
   28  0.000  0.000  0.000  0.000
   29  0.000  0.000  0.000  0.001
   30  0.000  0.000  0.000  0.001
   31  0.000  0.000  0.000  0.001
   32  0.000  0.000  0.000  0.001
   33  0.000  0.000  0.000  0.001
   34  0.000  0.000  0.000  0.001
   35  0.000  0.000  0.000  0.000
   36  0.074  0.077  0.108  0.258
   37  0.627  0.021  0.000  0.647
tot    0.702  0.099  0.109  0.910
 
band     2 # energy   -8.14228755 # occ.  2.00000000
 
ion      s      p      d    tot
    1  0.007  0.001  0.000  0.007
    2  0.006  0.001  0.000  0.007
    3  0.006  0.001  0.000  0.007
    4  0.006  0.001  0.000  0.007
    5  0.007  0.001  0.000  0.007
    6  0.006  0.001  0.000  0.007
    7  0.006  0.001  0.000  0.007
    8  0.006  0.001  0.000  0.007
    9  0.006  0.001  0.000  0.007
   10  0.026  0.000  0.000  0.027
   11  0.027  0.000  0.000  0.028
   12  0.026  0.000  0.000  0.027
   13  0.027  0.000  0.000  0.028
   14  0.027  0.000  0.000  0.028
   15  0.026  0.000  0.000  0.027
   16  0.026  0.000  0.000  0.027
   17  0.026  0.000  0.000  0.027
   18  0.026  0.000  0.000  0.027
   19  0.024  0.000  0.000  0.024
   20  0.027  0.000  0.000  0.027
   21  0.027  0.000  0.000  0.027
   22  0.025  0.000  0.000  0.025
   23  0.027  0.000  0.000  0.027
   24  0.025  0.000  0.000  0.025
   25  0.024  0.000  0.000  0.024
   26  0.024  0.000  0.000  0.024
   27  0.025  0.000  0.000  0.025
   28  0.005  0.000  0.000  0.005
   29  0.005  0.001  0.000  0.005
   30  0.005  0.001  0.000  0.005
   31  0.005  0.001  0.000  0.005
   32  0.005  0.001  0.000  0.005
   33  0.005  0.001  0.000  0.005
   34  0.005  0.001  0.000  0.005
   35  0.005  0.000  0.000  0.005
   36  0.003  0.001  0.000  0.004
   37  0.001  0.000  0.000  0.001
tot    0.565  0.013  0.004  0.582
 
band     3 # energy   -6.94208411 # occ.  2.00000000
 
ion      s      p      d    tot
    1  0.017  0.000  0.001  0.019
    2  0.017  0.000  0.001  0.019
    3  0.017  0.000  0.001  0.019
    4  0.017  0.000  0.001  0.019
    5  0.017  0.000  0.001  0.019
    6  0.017  0.000  0.001  0.019
    7  0.017  0.000  0.001  0.019
    8  0.017  0.000  0.001  0.019
    9  0.017  0.000  0.001  0.019
   10  0.010  0.002  0.003  0.015
   11  0.010  0.002  0.003  0.014
   12  0.010  0.002  0.003  0.015
   13  0.010  0.002  0.003  0.014
   14  0.010  0.002  0.003  0.014
   15  0.010  0.002  0.003  0.014
   16  0.010  0.002  0.003  0.015
   17  0.010  0.002  0.003  0.014
   18  0.010  0.002  0.003  0.014
   19  0.015  0.001  0.004  0.020
   20  0.016  0.001  0.004  0.021
   21  0.016  0.001  0.004  0.021
   22  0.015  0.001  0.004  0.020
   23  0.016  0.001  0.004  0.021
   24  0.015  0.001  0.004  0.020
   25  0.015  0.001  0.004  0.020
   26  0.015  0.001  0.004  0.020
   27  0.015  0.001  0.004  0.020
   28  0.013  0.001  0.000  0.014
   29  0.012  0.001  0.000  0.013
   30  0.012  0.001  0.000  0.013
   31  0.012  0.001  0.000  0.013
   32  0.012  0.001  0.000  0.013
   33  0.012  0.001  0.000  0.013
   34  0.012  0.001  0.000  0.013
   35  0.013  0.001  0.000  0.014
   36  0.005  0.002  0.001  0.008
   37  0.002  0.000  0.000  0.002
tot    0.491  0.034  0.075  0.600
 
band     4 # energy   -6.02286706 # occ.  2.00000000
 
ion      s      p      d    tot
    1  0.000  0.001  0.005  0.006
    2  0.002  0.000  0.006  0.008
    3  0.002  0.000  0.006  0.008
    4  0.002  0.000  0.006  0.008
    5  0.000  0.000  0.001  0.002
    6  0.002  0.000  0.006  0.008
    7  0.002  0.000  0.006  0.008
    8  0.002  0.000  0.006  0.008
    9  0.021  0.001  0.000  0.023
   10  0.007  0.000  0.023  0.031
   11  0.013  0.003  0.008  0.024
   12  0.007  0.000  0.023  0.031
   13  0.013  0.003  0.008  0.024
   14  0.013  0.003  0.008  0.024
   15  0.019  0.002  0.012  0.033
   16  0.007  0.000  0.023  0.031
   17  0.019  0.002  0.012  0.033
   18  0.019  0.002  0.012  0.033
   19  0.000  0.001  0.024  0.025
   20  0.028  0.002  0.017  0.047
   21  0.028  0.002  0.017  0.047
   22  0.015  0.003  0.005  0.022
   23  0.028  0.002  0.017  0.047
   24  0.015  0.003  0.005  0.022
   25  0.001  0.001  0.024  0.025
   26  0.000  0.001  0.024  0.025
   27  0.015  0.003  0.005  0.022
   28  0.005  0.000  0.000  0.005
   29  0.001  0.000  0.005  0.007
   30  0.001  0.000  0.005  0.007
   31  0.001  0.000  0.005  0.007
   32  0.001  0.000  0.005  0.007
   33  0.001  0.000  0.005  0.007
   34  0.001  0.000  0.005  0.007
   35  0.010  0.001  0.000  0.011
   36  0.005  0.003  0.003  0.011
   37  0.001  0.001  0.000  0.002
tot    0.310  0.042  0.343  0.696
 
band     5 # energy   -6.00057654 # occ.  2.00000000
 
ion      s      p      d    tot
    1  0.028  0.000  0.016  0.044
    2  0.019  0.000  0.019  0.038
    3  0.019  0.000  0.019  0.038
    4  0.019  0.000  0.019  0.038
    5  0.017  0.000  0.021  0.038
    6  0.019  0.000  0.019  0.038
    7  0.019  0.000  0.019  0.038
    8  0.019  0.000  0.019  0.038
    9  0.012  0.000  0.020  0.032
   10  0.002  0.000  0.029  0.032
   11  0.008  0.000  0.025  0.033
   12  0.002  0.000  0.029  0.032
   13  0.008  0.000  0.025  0.033
   14  0.008  0.000  0.025  0.033
   15  0.017  0.001  0.021  0.038
   16  0.002  0.000  0.029  0.032
   17  0.017  0.001  0.021  0.039
   18  0.017  0.001  0.021  0.039
   19  0.002  0.000  0.005  0.007
   20  0.002  0.000  0.007  0.009
   21  0.003  0.000  0.006  0.009
   22  0.001  0.001  0.006  0.007
   23  0.003  0.000  0.006  0.009
   24  0.001  0.001  0.006  0.007
   25  0.002  0.000  0.005  0.007
   26  0.002  0.000  0.005  0.007
   27  0.001  0.001  0.006  0.007
   28  0.001  0.000  0.000  0.001
   29  0.000  0.000  0.000  0.001
   30  0.000  0.000  0.000  0.001
   31  0.000  0.000  0.000  0.001
   32  0.000  0.000  0.000  0.001
   33  0.000  0.000  0.000  0.001
   34  0.000  0.000  0.000  0.001
   35  0.000  0.000  0.000  0.000
   36  0.001  0.000  0.000  0.001
   37  0.000  0.000  0.000  0.000
tot    0.269  0.012  0.448  0.729
 
band     6 # energy   -5.99566303 # occ.  2.00000000
 
ion      s      p      d    tot
    1  0.000  0.000  0.006  0.006
    2  0.006  0.001  0.004  0.011
    3  0.005  0.001  0.003  0.008
    4  0.006  0.001  0.004  0.011
    5  0.000  0.001  0.009  0.010
    6  0.000  0.000  0.003  0.003
    7  0.005  0.001  0.003  0.008
    8  0.000  0.000  0.003  0.003
    9  0.000  0.000  0.002  0.002
   10  0.000  0.001  0.028  0.028
   11  0.044  0.002  0.015  0.060
   12  0.013  0.001  0.011  0.026
   13  0.044  0.002  0.014  0.060
   14  0.000  0.002  0.035  0.037
   15  0.009  0.001  0.012  0.021
   16  0.013  0.001  0.011  0.026
   17  0.009  0.001  0.012  0.022
   18  0.000  0.004  0.002  0.007
   19  0.001  0.001  0.011  0.013
   20  0.000  0.003  0.025  0.028
   21  0.040  0.001  0.015  0.056
   22  0.025  0.002  0.012  0.038
   23  0.040  0.002  0.015  0.056
   24  0.000  0.000  0.038  0.038
   25  0.000  0.003  0.004  0.007
   26  0.001  0.001  0.011  0.013
   27  0.025  0.002  0.012  0.038
   28  0.000  0.000  0.001  0.001
   29  0.000  0.000  0.002  0.003
   30  0.007  0.001  0.003  0.011
   31  0.000  0.000  0.002  0.003
   32  0.004  0.001  0.004  0.008
   33  0.007  0.001  0.003  0.011
   34  0.004  0.001  0.004  0.008
   35  0.000  0.000  0.006  0.006
   36  0.000  0.002  0.002  0.004
   37  0.000  0.000  0.000  0.000
tot    0.308  0.043  0.342  0.694
 
band     7 # energy   -5.99560806 # occ.  2.00000000
 
ion      s      p      d    tot
    1  0.000  0.000  0.006  0.006
    2  0.001  0.000  0.003  0.004
    3  0.003  0.001  0.003  0.007
    4  0.001  0.000  0.003  0.004
    5  0.000  0.001  0.009  0.010
    6  0.007  0.001  0.003  0.012
    7  0.002  0.001  0.003  0.007
    8  0.007  0.001  0.003  0.012
    9  0.000  0.000  0.002  0.002
   10  0.018  0.002  0.006  0.025
   11  0.015  0.002  0.028  0.045
   12  0.004  0.001  0.022  0.028
   13  0.015  0.002  0.028  0.045
   14  0.059  0.001  0.008  0.068
   15  0.003  0.003  0.005  0.012
   16  0.005  0.001  0.022  0.028
   17  0.003  0.003  0.005  0.011
   18  0.012  0.000  0.015  0.027
   19  0.000  0.003  0.006  0.009
   20  0.053  0.001  0.011  0.065
   21  0.013  0.003  0.022  0.037
   22  0.008  0.000  0.029  0.038
   23  0.013  0.003  0.022  0.038
   24  0.034  0.002  0.003  0.039
   25  0.002  0.000  0.013  0.015
   26  0.000  0.003  0.006  0.009
   27  0.009  0.001  0.029  0.038
   28  0.000  0.000  0.001  0.001
   29  0.007  0.001  0.003  0.012
   30  0.001  0.000  0.003  0.004
   31  0.007  0.001  0.004  0.012
   32  0.004  0.001  0.002  0.006
   33  0.001  0.000  0.003  0.004
   34  0.004  0.001  0.002  0.006
   35  0.000  0.000  0.006  0.006
   36  0.000  0.002  0.002  0.004
   37  0.000  0.000  0.000  0.000
tot    0.308  0.043  0.342  0.694
 
band     8 # energy   -5.97614556 # occ.  2.00000000
 
ion      s      p      d    tot
    1  0.006  0.001  0.002  0.009
    2  0.000  0.001  0.006  0.007
    3  0.000  0.001  0.006  0.007
    4  0.000  0.001  0.006  0.007
    5  0.018  0.002  0.000  0.020
    6  0.001  0.001  0.006  0.007
    7  0.000  0.001  0.006  0.007
    8  0.001  0.001  0.006  0.007
    9  0.000  0.000  0.002  0.002
   10  0.028  0.003  0.001  0.033
   11  0.017  0.000  0.024  0.042
   12  0.028  0.003  0.001  0.032
   13  0.017  0.000  0.024  0.042
   14  0.017  0.000  0.024  0.042
   15  0.000  0.001  0.022  0.023
   16  0.028  0.003  0.001  0.032
   17  0.000  0.001  0.022  0.023
   18  0.000  0.001  0.022  0.023
   19  0.026  0.003  0.005  0.033
   20  0.004  0.002  0.017  0.024
   21  0.004  0.002  0.017  0.024
   22  0.010  0.000  0.026  0.036
   23  0.004  0.002  0.017  0.024
   24  0.010  0.000  0.026  0.036
   25  0.026  0.002  0.005  0.033
   26  0.026  0.003  0.005  0.033
   27  0.010  0.000  0.026  0.036
   28  0.010  0.001  0.001  0.012
   29  0.000  0.000  0.004  0.004
   30  0.000  0.000  0.004  0.004
   31  0.000  0.000  0.004  0.004
   32  0.000  0.000  0.004  0.004
   33  0.000  0.000  0.004  0.004
   34  0.000  0.000  0.004  0.004
   35  0.005  0.001  0.002  0.008
   36  0.000  0.000  0.000  0.001
   37  0.000  0.000  0.000  0.000
tot    0.300  0.040  0.356  0.696
 
band     9 # energy   -5.95572297 # occ.  2.00000000
 
ion      s      p      d    tot
    1  0.000  0.001  0.006  0.007
    2  0.008  0.001  0.004  0.013
    3  0.007  0.001  0.003  0.011
    4  0.005  0.001  0.004  0.010
    5  0.000  0.000  0.002  0.002
    6  0.001  0.000  0.003  0.004
    7  0.004  0.001  0.003  0.008
    8  0.000  0.000  0.003  0.004
    9  0.000  0.001  0.010  0.011
   10  0.042  0.001  0.014  0.057
   11  0.000  0.003  0.012  0.014
   12  0.018  0.003  0.013  0.034
   13  0.000  0.002  0.012  0.014
   14  0.000  0.001  0.012  0.013
   15  0.006  0.000  0.040  0.047
   16  0.005  0.004  0.013  0.022
   17  0.022  0.001  0.028  0.050
   18  0.049  0.002  0.005  0.056
   19  0.006  0.001  0.033  0.040
   20  0.008  0.001  0.009  0.018
   21  0.003  0.001  0.016  0.021
   22  0.009  0.003  0.011  0.022
   23  0.001  0.001  0.021  0.022
   24  0.021  0.000  0.015  0.036
   25  0.049  0.002  0.005  0.056
   26  0.021  0.001  0.023  0.046
   27  0.002  0.004  0.008  0.014
   28  0.000  0.001  0.007  0.007
   29  0.000  0.000  0.002  0.002
   30  0.003  0.001  0.002  0.006
   31  0.000  0.000  0.002  0.002
   32  0.002  0.001  0.003  0.005
   33  0.004  0.001  0.002  0.007
   34  0.004  0.001  0.003  0.007
   35  0.000  0.000  0.002  0.002
   36  0.000  0.000  0.001  0.001
   37  0.000  0.000  0.000  0.000
tot    0.300  0.042  0.352  0.694
 
band    10 # energy   -5.95566003 # occ.  2.00000000
 
ion      s      p      d    tot
    1  0.000  0.001  0.006  0.007
    2  0.001  0.000  0.003  0.004
    3  0.001  0.001  0.004  0.005
    4  0.003  0.001  0.003  0.007
    5  0.000  0.000  0.002  0.002
    6  0.008  0.001  0.004  0.013
    7  0.004  0.001  0.004  0.009
    8  0.008  0.001  0.004  0.013
    9  0.000  0.001  0.010  0.011
   10  0.001  0.004  0.013  0.019
   11  0.000  0.001  0.012  0.013
   12  0.025  0.002  0.014  0.041
   13  0.000  0.002  0.012  0.014
   14  0.000  0.003  0.012  0.014
   15  0.045  0.002  0.008  0.055
   16  0.039  0.001  0.014  0.054
   17  0.030  0.001  0.021  0.052
   18  0.002  0.000  0.044  0.046
   19  0.045  0.002  0.008  0.055
   20  0.000  0.001  0.022  0.023
   21  0.005  0.001  0.014  0.020
   22  0.012  0.002  0.012  0.026
   23  0.007  0.001  0.010  0.018
   24  0.001  0.004  0.008  0.012
   25  0.002  0.001  0.035  0.038
   26  0.029  0.002  0.018  0.049
   27  0.019  0.001  0.014  0.034
   28  0.000  0.001  0.007  0.007
   29  0.004  0.001  0.003  0.008
   30  0.001  0.000  0.003  0.005
   31  0.004  0.001  0.002  0.008
   32  0.002  0.001  0.002  0.005
   33  0.000  0.000  0.002  0.003
   34  0.001  0.000  0.002  0.003
   35  0.000  0.000  0.002  0.002
   36  0.000  0.000  0.001  0.001
   37  0.000  0.000  0.000  0.000
tot    0.300  0.042  0.352  0.694
 
band    11 # energy   -5.81709953 # occ.  2.00000000
 
ion      s      p      d    tot
    1  0.001  0.000  0.000  0.001
    2  0.001  0.000  0.001  0.001
    3  0.001  0.000  0.001  0.001
    4  0.001  0.000  0.001  0.001
    5  0.002  0.000  0.000  0.002
    6  0.001  0.000  0.001  0.001
    7  0.001  0.000  0.001  0.001
    8  0.001  0.000  0.001  0.001
    9  0.000  0.000  0.001  0.001
   10  0.000  0.000  0.003  0.004
   11  0.001  0.000  0.001  0.003
   12  0.000  0.000  0.003  0.004
   13  0.001  0.000  0.001  0.003
   14  0.001  0.000  0.001  0.003
   15  0.002  0.000  0.003  0.006
   16  0.000  0.000  0.003  0.004
   17  0.002  0.000  0.003  0.006
   18  0.002  0.000  0.003  0.006
   19  0.004  0.001  0.018  0.023
   20  0.002  0.000  0.028  0.030
   21  0.002  0.000  0.028  0.030
   22  0.008  0.001  0.024  0.034
   23  0.002  0.000  0.028  0.030
   24  0.008  0.001  0.024  0.034
   25  0.004  0.001  0.018  0.023
   26  0.004  0.001  0.018  0.023
   27  0.008  0.001  0.024  0.034
   28  0.030  0.000  0.021  0.051
   29  0.025  0.000  0.022  0.047
   30  0.025  0.000  0.022  0.047
   31  0.025  0.000  0.022  0.047
   32  0.025  0.000  0.022  0.047
   33  0.025  0.000  0.022  0.047
   34  0.025  0.000  0.022  0.047
   35  0.029  0.000  0.022  0.051
   36  0.004  0.000  0.015  0.020
   37  0.001  0.000  0.000  0.001
tot    0.276  0.013  0.429  0.718
 
band    12 # energy   -5.51477916 # occ.  2.00000000
 
ion      s      p      d    tot
    1  0.014  0.002  0.002  0.019
    2  0.000  0.001  0.009  0.009
    3  0.000  0.001  0.009  0.009
    4  0.000  0.001  0.009  0.009
    5  0.000  0.000  0.002  0.002
    6  0.000  0.001  0.008  0.009
    7  0.000  0.001  0.008  0.009
    8  0.000  0.001  0.008  0.009
    9  0.018  0.001  0.000  0.019
   10  0.011  0.001  0.013  0.026
   11  0.002  0.000  0.045  0.047
   12  0.011  0.001  0.013  0.026
   13  0.002  0.000  0.045  0.047
   14  0.002  0.000  0.045  0.047
   15  0.004  0.001  0.023  0.028
   16  0.011  0.001  0.013  0.026
   17  0.004  0.001  0.023  0.028
   18  0.004  0.001  0.023  0.028
   19  0.004  0.001  0.013  0.019
   20  0.001  0.000  0.049  0.051
   21  0.001  0.000  0.049  0.050
   22  0.010  0.001  0.019  0.030
   23  0.001  0.000  0.049  0.050
   24  0.010  0.001  0.019  0.030
   25  0.004  0.001  0.014  0.019
   26  0.004  0.001  0.013  0.019
   27  0.010  0.001  0.019  0.030
   28  0.010  0.001  0.001  0.012
   29  0.000  0.000  0.005  0.006
   30  0.000  0.000  0.005  0.006
   31  0.000  0.000  0.005  0.006
   32  0.000  0.000  0.005  0.006
   33  0.000  0.000  0.005  0.006
   34  0.000  0.000  0.005  0.006
   35  0.008  0.001  0.002  0.011
   36  0.000  0.000  0.002  0.002
   37  0.000  0.000  0.000  0.000
tot    0.149  0.028  0.578  0.755
 
band    13 # energy   -5.50690804 # occ.  2.00000000
 
ion      s      p      d    tot
    1  0.000  0.001  0.004  0.005
    2  0.002  0.000  0.004  0.007
    3  0.008  0.001  0.004  0.013
    4  0.007  0.001  0.005  0.013
    5  0.000  0.001  0.011  0.013
    6  0.010  0.001  0.004  0.015
    7  0.003  0.001  0.005  0.009
    8  0.000  0.000  0.005  0.005
    9  0.000  0.000  0.009  0.009
   10  0.004  0.001  0.032  0.038
   11  0.003  0.000  0.047  0.049
   12  0.010  0.002  0.009  0.021
   13  0.022  0.001  0.012  0.035
   14  0.009  0.001  0.034  0.044
   15  0.000  0.001  0.012  0.013
   16  0.001  0.001  0.045  0.047
   17  0.002  0.000  0.023  0.025
   18  0.001  0.001  0.016  0.017
   19  0.001  0.001  0.015  0.017
   20  0.009  0.001  0.042  0.052
   21  0.021  0.002  0.008  0.031
   22  0.003  0.001  0.015  0.019
   23  0.003  0.000  0.061  0.064
   24  0.001  0.001  0.025  0.028
   25  0.003  0.001  0.017  0.021
   26  0.008  0.000  0.020  0.028
   27  0.000  0.001  0.031  0.032
   28  0.000  0.000  0.008  0.008
   29  0.001  0.001  0.004  0.005
   30  0.007  0.001  0.004  0.012
   31  0.008  0.001  0.004  0.013
   32  0.010  0.001  0.004  0.014
   33  0.005  0.001  0.004  0.010
   34  0.000  0.000  0.004  0.005
   35  0.000  0.000  0.003  0.003
   36  0.000  0.002  0.002  0.004
   37  0.000  0.000  0.000  0.000
tot    0.162  0.032  0.551  0.746
 
band    14 # energy   -5.50690150 # occ.  2.00000000
 
ion      s      p      d    tot
    1  0.000  0.001  0.004  0.005
    2  0.008  0.001  0.005  0.014
    3  0.002  0.001  0.005  0.008
    4  0.003  0.001  0.004  0.008
    5  0.000  0.001  0.011  0.013
    6  0.000  0.000  0.005  0.005
    7  0.007  0.001  0.004  0.012
    8  0.010  0.001  0.004  0.016
    9  0.000  0.000  0.009  0.009
   10  0.006  0.001  0.026  0.033
   11  0.020  0.001  0.015  0.036
   12  0.000  0.001  0.049  0.050
   13  0.001  0.000  0.050  0.051
   14  0.013  0.001  0.028  0.041
   15  0.002  0.000  0.022  0.024
   16  0.009  0.002  0.013  0.023
   17  0.000  0.001  0.011  0.012
   18  0.001  0.001  0.018  0.020
   19  0.007  0.000  0.020  0.027
   20  0.013  0.001  0.032  0.046
   21  0.001  0.000  0.066  0.067
   22  0.000  0.001  0.032  0.034
   23  0.020  0.002  0.013  0.034
   24  0.002  0.001  0.022  0.025
   25  0.005  0.001  0.018  0.023
   26  0.000  0.001  0.014  0.016
   27  0.003  0.001  0.016  0.020
   28  0.000  0.000  0.008  0.008
   29  0.010  0.001  0.004  0.014
   30  0.003  0.001  0.004  0.008
   31  0.002  0.001  0.004  0.007
   32  0.001  0.000  0.004  0.005
   33  0.005  0.001  0.004  0.010
   34  0.010  0.001  0.004  0.015
   35  0.000  0.000  0.003  0.003
   36  0.000  0.002  0.002  0.004
   37  0.000  0.000  0.000  0.000
tot    0.162  0.032  0.551  0.746
 
band    15 # energy   -5.49004278 # occ.  2.00000000
 
ion      s      p      d    tot
    1  0.007  0.000  0.001  0.008
    2  0.000  0.001  0.008  0.009
    3  0.000  0.001  0.008  0.009
    4  0.000  0.001  0.008  0.009
    5  0.018  0.002  0.001  0.021
    6  0.000  0.001  0.008  0.009
    7  0.000  0.001  0.008  0.009
    8  0.000  0.001  0.008  0.009
    9  0.004  0.001  0.002  0.006
   10  0.000  0.000  0.041  0.041
   11  0.008  0.002  0.009  0.018
   12  0.000  0.000  0.041  0.041
   13  0.008  0.002  0.009  0.018
   14  0.008  0.002  0.009  0.018
   15  0.008  0.001  0.026  0.035
   16  0.000  0.000  0.041  0.041
   17  0.008  0.001  0.026  0.035
   18  0.008  0.001  0.026  0.035
   19  0.010  0.000  0.037  0.048
   20  0.008  0.002  0.010  0.021
   21  0.008  0.002  0.010  0.021
   22  0.000  0.000  0.037  0.037
   23  0.008  0.002  0.010  0.021
   24  0.000  0.000  0.037  0.037
   25  0.010  0.001  0.038  0.048
   26  0.010  0.000  0.038  0.048
   27  0.000  0.000  0.037  0.037
   28  0.000  0.001  0.006  0.007
   29  0.000  0.000  0.005  0.006
   30  0.000  0.000  0.005  0.006
   31  0.000  0.000  0.005  0.006
   32  0.000  0.000  0.005  0.006
   33  0.000  0.000  0.005  0.006
   34  0.000  0.000  0.005  0.006
   35  0.002  0.000  0.000  0.002
   36  0.012  0.003  0.001  0.015
   37  0.001  0.002  0.000  0.003
tot    0.150  0.032  0.573  0.756
 
band    16 # energy   -5.46333371 # occ.  2.00000000
 
ion      s      p      d    tot
    1  0.000  0.001  0.014  0.015
    2  0.010  0.001  0.005  0.016
    3  0.002  0.000  0.005  0.008
    4  0.010  0.001  0.005  0.016
    5  0.000  0.000  0.005  0.005
    6  0.004  0.001  0.005  0.011
    7  0.001  0.000  0.005  0.007
    8  0.003  0.001  0.005  0.009
    9  0.000  0.001  0.007  0.009
   10  0.000  0.001  0.028  0.028
   11  0.001  0.001  0.020  0.022
   12  0.007  0.000  0.023  0.030
   13  0.001  0.001  0.020  0.022
   14  0.000  0.001  0.021  0.022
   15  0.013  0.002  0.017  0.032
   16  0.008  0.000  0.022  0.030
   17  0.011  0.002  0.024  0.037
   18  0.000  0.000  0.065  0.065
   19  0.013  0.001  0.017  0.031
   20  0.000  0.002  0.018  0.020
   21  0.000  0.001  0.021  0.022
   22  0.016  0.001  0.022  0.039
   23  0.000  0.000  0.022  0.023
   24  0.000  0.000  0.035  0.035
   25  0.000  0.000  0.065  0.066
   26  0.011  0.001  0.024  0.036
   27  0.019  0.001  0.020  0.039
   28  0.000  0.001  0.004  0.005
   29  0.005  0.001  0.004  0.010
   30  0.000  0.000  0.004  0.005
   31  0.006  0.001  0.004  0.011
   32  0.004  0.001  0.002  0.007
   33  0.000  0.000  0.004  0.004
   34  0.003  0.001  0.002  0.006
   35  0.000  0.001  0.008  0.008
   36  0.000  0.000  0.001  0.001
   37  0.000  0.000  0.000  0.000
tot    0.149  0.029  0.573  0.752
 
band    17 # energy   -5.46330561 # occ.  2.00000000
 
ion      s      p      d    tot
    1  0.000  0.001  0.014  0.015
    2  0.000  0.001  0.005  0.006
    3  0.008  0.001  0.005  0.014
    4  0.000  0.000  0.005  0.006
    5  0.000  0.000  0.005  0.005
    6  0.006  0.001  0.005  0.011
    7  0.009  0.001  0.005  0.015
    8  0.007  0.001  0.005  0.013
    9  0.000  0.001  0.007  0.009
   10  0.010  0.000  0.020  0.031
   11  0.000  0.001  0.021  0.022
   12  0.003  0.001  0.025  0.029
   13  0.000  0.001  0.020  0.022
   14  0.001  0.001  0.020  0.022
   15  0.003  0.000  0.054  0.057
   16  0.002  0.001  0.026  0.029
   17  0.005  0.001  0.047  0.052
   18  0.016  0.002  0.006  0.024
   19  0.003  0.001  0.054  0.058
   20  0.000  0.000  0.023  0.023
   21  0.000  0.001  0.020  0.021
   22  0.007  0.001  0.029  0.037
   23  0.000  0.001  0.019  0.021
   24  0.023  0.001  0.017  0.040
   25  0.016  0.001  0.005  0.023
   26  0.005  0.001  0.047  0.053
   27  0.004  0.000  0.031  0.036
   28  0.000  0.001  0.004  0.005
   29  0.001  0.000  0.003  0.004
   30  0.006  0.001  0.003  0.009
   31  0.000  0.000  0.003  0.004
   32  0.002  0.001  0.005  0.008
   33  0.006  0.001  0.003  0.010
   34  0.003  0.001  0.005  0.008
   35  0.000  0.001  0.008  0.008
   36  0.000  0.000  0.001  0.001
   37  0.000  0.000  0.000  0.000
tot    0.149  0.029  0.573  0.752
 
band    18 # energy   -5.12435918 # occ.  2.00000000
 
ion      s      p      d    tot
    1  0.000  0.000  0.014  0.014
    2  0.003  0.000  0.015  0.018
    3  0.001  0.000  0.014  0.015
    4  0.003  0.001  0.008  0.013
    5  0.000  0.000  0.029  0.029
    6  0.002  0.001  0.009  0.011
    7  0.009  0.001  0.011  0.021
    8  0.009  0.000  0.013  0.022
    9  0.000  0.001  0.008  0.009
   10  0.000  0.000  0.013  0.013
   11  0.000  0.000  0.047  0.047
   12  0.000  0.000  0.014  0.015
   13  0.000  0.000  0.044  0.044
   14  0.000  0.000  0.044  0.045
   15  0.000  0.000  0.024  0.024
   16  0.000  0.000  0.007  0.007
   17  0.000  0.000  0.042  0.043
   18  0.000  0.000  0.038  0.038
   19  0.000  0.000  0.011  0.011
   20  0.001  0.000  0.043  0.044
   21  0.001  0.000  0.046  0.047
   22  0.000  0.000  0.037  0.037
   23  0.000  0.000  0.032  0.032
   24  0.000  0.000  0.036  0.037
   25  0.000  0.000  0.012  0.012
   26  0.001  0.000  0.012  0.013
   27  0.000  0.000  0.036  0.036
   28  0.000  0.000  0.013  0.014
   29  0.001  0.001  0.011  0.013
   30  0.003  0.001  0.012  0.015
   31  0.011  0.001  0.009  0.021
   32  0.011  0.001  0.010  0.022
   33  0.005  0.001  0.006  0.012
   34  0.003  0.001  0.007  0.010
   35  0.000  0.000  0.018  0.018
   36  0.000  0.002  0.001  0.003
   37  0.000  0.001  0.000  0.001
tot    0.065  0.016  0.744  0.825
 
band    19 # energy   -5.12435256 # occ.  2.00000000
 
ion      s      p      d    tot
    1  0.000  0.000  0.014  0.014
    2  0.006  0.001  0.009  0.015
    3  0.008  0.001  0.010  0.018
    4  0.005  0.000  0.015  0.020
    5  0.000  0.000  0.029  0.029
    6  0.007  0.000  0.014  0.022
    7  0.000  0.000  0.012  0.012
    8  0.000  0.000  0.011  0.011
    9  0.000  0.001  0.008  0.009
   10  0.000  0.000  0.010  0.010
   11  0.000  0.000  0.043  0.044
   12  0.000  0.000  0.008  0.009
   13  0.000  0.000  0.046  0.047
   14  0.000  0.000  0.045  0.046
   15  0.000  0.000  0.045  0.046
   16  0.000  0.000  0.016  0.016
   17  0.000  0.000  0.027  0.028
   18  0.000  0.000  0.032  0.032
   19  0.001  0.000  0.012  0.013
   20  0.000  0.000  0.038  0.039
   21  0.000  0.000  0.035  0.035
   22  0.000  0.000  0.036  0.036
   23  0.001  0.000  0.049  0.050
   24  0.000  0.000  0.036  0.037
   25  0.000  0.000  0.011  0.012
   26  0.000  0.000  0.011  0.011
   27  0.000  0.000  0.037  0.037
   28  0.000  0.000  0.013  0.014
   29  0.010  0.001  0.007  0.018
   30  0.009  0.001  0.006  0.015
   31  0.000  0.001  0.009  0.010
   32  0.001  0.001  0.008  0.009
   33  0.006  0.001  0.012  0.019
   34  0.009  0.001  0.011  0.021
   35  0.000  0.000  0.018  0.018
   36  0.000  0.002  0.001  0.003
   37  0.000  0.001  0.000  0.001
tot    0.065  0.016  0.744  0.825
 
band    20 # energy   -5.11251177 # occ.  2.00000000
 
ion      s      p      d    tot
    1  0.013  0.000  0.003  0.016
    2  0.000  0.001  0.011  0.011
    3  0.000  0.001  0.011  0.011
    4  0.000  0.001  0.011  0.011
    5  0.002  0.000  0.014  0.016
    6  0.000  0.001  0.011  0.011
    7  0.000  0.001  0.011  0.011
    8  0.000  0.001  0.011  0.011
    9  0.005  0.001  0.003  0.009
   10  0.000  0.000  0.025  0.026
   11  0.000  0.000  0.048  0.048
   12  0.000  0.000  0.025  0.025
   13  0.000  0.000  0.048  0.048
   14  0.000  0.000  0.048  0.048
   15  0.000  0.000  0.035  0.036
   16  0.000  0.000  0.025  0.025
   17  0.000  0.000  0.035  0.036
   18  0.000  0.000  0.035  0.036
   19  0.000  0.000  0.023  0.023
   20  0.001  0.000  0.041  0.042
   21  0.001  0.000  0.041  0.042
   22  0.001  0.000  0.032  0.033
   23  0.001  0.000  0.041  0.042
   24  0.001  0.000  0.032  0.033
   25  0.000  0.000  0.023  0.023
   26  0.000  0.000  0.023  0.023
   27  0.001  0.000  0.032  0.033
   28  0.010  0.001  0.000  0.010
   29  0.000  0.001  0.011  0.012
   30  0.000  0.001  0.011  0.012
   31  0.000  0.001  0.011  0.012
   32  0.000  0.001  0.011  0.012
   33  0.000  0.001  0.011  0.012
   34  0.000  0.001  0.011  0.012
   35  0.011  0.000  0.003  0.014
   36  0.000  0.000  0.007  0.008
   37  0.000  0.001  0.000  0.001
tot    0.047  0.015  0.773  0.835
 
band    21 # energy   -5.09705930 # occ.  2.00000000
 
ion      s      p      d    tot
    1  0.000  0.000  0.009  0.009
    2  0.000  0.001  0.018  0.019
    3  0.000  0.001  0.018  0.019
    4  0.000  0.001  0.018  0.019
    5  0.021  0.001  0.000  0.022
    6  0.000  0.001  0.018  0.019
    7  0.000  0.001  0.018  0.019
    8  0.000  0.001  0.018  0.019
    9  0.018  0.000  0.011  0.029
   10  0.000  0.000  0.043  0.044
   11  0.000  0.001  0.033  0.033
   12  0.000  0.000  0.043  0.044
   13  0.000  0.001  0.033  0.033
   14  0.000  0.001  0.033  0.033
   15  0.000  0.000  0.034  0.035
   16  0.000  0.000  0.043  0.044
   17  0.000  0.000  0.034  0.035
   18  0.000  0.000  0.035  0.035
   19  0.001  0.000  0.027  0.028
   20  0.000  0.000  0.031  0.031
   21  0.000  0.000  0.031  0.031
   22  0.000  0.000  0.018  0.019
   23  0.000  0.000  0.031  0.031
   24  0.000  0.000  0.018  0.019
   25  0.001  0.000  0.027  0.028
   26  0.001  0.000  0.027  0.028
   27  0.000  0.000  0.018  0.019
   28  0.005  0.000  0.005  0.010
   29  0.000  0.000  0.010  0.010
   30  0.000  0.000  0.010  0.010
   31  0.000  0.000  0.010  0.010
   32  0.000  0.000  0.010  0.010
   33  0.000  0.000  0.010  0.010
   34  0.000  0.000  0.010  0.010
   35  0.000  0.000  0.003  0.003
   36  0.005  0.001  0.002  0.008