 vasp.6.2.0 18Jan21 (build Jun 12 2021 23:27:24) complex                        
  
 executed on             LinuxIFC date 2022.05.26  19:32:03
 running on   28 total cores
 distrk:  each k-point on   28 cores,    1 groups
 distr:  one band on NCORE=   1 cores,   28 groups


--------------------------------------------------------------------------------------------------------


 INCAR:
   ISMEAR = -5
   SIGMA = 0.1
   ISPIN = 1
   EDIFF = 1.d-5
   EDIFFG = -0.01
   NSW = 0
   NELM = 150
   ENCUT = 500
   ISIF = 2
   IBRION = 2
   LREAL = Auto
   ALGO = Fast
   ICHARG = 11
   LORBIT = 10
   LCHARG = .F.
   LWAVE = .F.

 POTCAR:    PAW_PBE Au 04Oct2007                  
 POTCAR:    PAW_PBE W 08Apr2002                   
 POTCAR:    PAW_PBE N 08Apr2002                   
 -----------------------------------------------------------------------------
|                                                                             |
|           W    W    AA    RRRRR   N    N  II  N    N   GGGG   !!!           |
|           W    W   A  A   R    R  NN   N  II  NN   N  G    G  !!!           |
|           W    W  A    A  R    R  N N  N  II  N N  N  G       !!!           |
|           W WW W  AAAAAA  RRRRR   N  N N  II  N  N N  G  GGG   !            |
|           WW  WW  A    A  R   R   N   NN  II  N   NN  G    G                |
|           W    W  A    A  R    R  N    N  II  N    N   GGGG   !!!           |
|                                                                             |
|     For optimal performance we recommend to set                             |
|       NCORE = 2 up to number-of-cores-per-socket                            |
|     NCORE specifies how many cores store one orbital (NPAR=cpu/NCORE).      |
|     This setting can greatly improve the performance of VASP for DFT.       |
|     The default, NCORE=1 might be grossly inefficient on modern             |
|     multi-core architectures or massively parallel machines. Do your        |
|     own testing! More info at https://www.vasp.at/wiki/index.php/NCORE      |
|     Unfortunately you need to use the default for GW and RPA                |
|     calculations (for HF NCORE is supported but not extensively tested      |
|     yet).                                                                   |
|                                                                             |
 -----------------------------------------------------------------------------

 POTCAR:    PAW_PBE Au 04Oct2007                  
   VRHFIN =Au: s1d10                                                                                
   LEXCH  = PE                                                                                      
   EATOM  =   926.0867 eV,   68.0654 Ry                                                             
                                                                                                    
   TITEL  = PAW_PBE Au 04Oct2007                                                                    
   LULTRA =        F    use ultrasoft PP ?                                                          
   IUNSCR =        1    unscreen: 0-lin 1-nonlin 2-no                                               
   RPACOR =    2.330    partial core radius                                                         
   POMASS =  196.966; ZVAL   =   11.000    mass and valenz                                          
   RCORE  =    2.500    outmost cutoff radius                                                       
   RWIGS  =    2.840; RWIGS  =    1.503    wigner-seitz radius (au A)                               
   ENMAX  =  229.943; ENMIN  =  172.457 eV                                                          
   ICORE  =        3    local potential                                                             
   LCOR   =        T    correct aug charges                                                         
   LPAW   =        T    paw PP                                                                      
   EAUG   =  356.670                                                                                
   DEXC   =    0.000                                                                                
   RMAX   =    2.562    core radius for proj-oper                                                   
   RAUG   =    1.300    factor for augmentation sphere                                              
   RDEP   =    2.598    radius for radial grids                                                     
   RDEPT  =    2.193    core radius for aug-charge                                                  
                                                                                                    
   Atomic configuration                                                                             
   16 entries                                                                                       
     n  l   j            E        occ.                                                              
     1  0  0.50    -80748.5001   2.0000                                                             
     2  0  0.50    -14244.7466   2.0000                                                             
     2  1  1.50    -12310.9591   6.0000                                                             
     3  0  0.50     -3362.1768   2.0000                                                             
     3  1  1.50     -2801.5463   6.0000                                                             
     3  2  2.50     -2203.8206  10.0000                                                             
     4  0  0.50      -729.8168   2.0000                                                             
     4  1  1.50      -546.0527   6.0000                                                             
     4  2  2.50      -325.7302  10.0000                                                             
     4  3  3.50       -81.1472  14.0000                                                             
     5  0  0.50      -108.3201   2.0000                                                             
     5  1  1.50       -59.7479   6.0000                                                             
     5  2  2.50        -6.8783  10.0000                                                             
     6  0  0.50        -5.7602   1.0000                                                             
     6  1  1.50        -6.8029   0.0000                                                             
     5  3  2.50        -1.3606   0.0000                                                             
   Description                                                                                      
     l       E           TYP  RCUT    TYP  RCUT                                                     
     2     -6.8782861     23  2.500                                                                 
     2     -8.2388687     23  2.500                                                                 
     0     -5.7601759     23  2.500                                                                 
     0     -0.8493231     23  2.500                                                                 
     1     -2.7211652     23  2.500                                                                 
     1     27.2116520     23  2.500                                                                 
     3     -1.3605826     23  2.500                                                                 
  local pseudopotential read in
  partial core-charges read in
  partial kinetic energy density read in
  atomic valenz-charges read in
  non local Contribution for L=           2  read in
    real space projection operators read in
  non local Contribution for L=           2  read in
    real space projection operators read in
  non local Contribution for L=           0  read in
    real space projection operators read in
  non local Contribution for L=           0  read in
    real space projection operators read in
  non local Contribution for L=           1  read in
    real space projection operators read in
  non local Contribution for L=           1  read in
    real space projection operators read in
    PAW grid and wavefunctions read in
 
   number of l-projection  operators is LMAX  =           6
   number of lm-projection operators is LMMAX =          18
 
 POTCAR:    PAW_PBE W 08Apr2002                   
   VRHFIN =W : 6s5d                                                                                 
   LEXCH  = PE                                                                                      
   EATOM  =   204.6103 eV,   15.0384 Ry                                                             
                                                                                                    
   TITEL  = PAW_PBE W 08Apr2002                                                                     
   LULTRA =        F    use ultrasoft PP ?                                                          
   IUNSCR =        1    unscreen: 0-lin 1-nonlin 2-no                                               
   RPACOR =    2.330    partial core radius                                                         
   POMASS =  183.850; ZVAL   =    6.000    mass and valenz                                          
   RCORE  =    2.750    outmost cutoff radius                                                       
   RWIGS  =    2.750; RWIGS  =    1.455    wigner-seitz radius (au A)                               
   ENMAX  =  223.057; ENMIN  =  167.293 eV                                                          
   RCLOC  =    2.147    cutoff for local pot                                                        
   LCOR   =        T    correct aug charges                                                         
   LPAW   =        T    paw PP                                                                      
   EAUG   =  373.438                                                                                
   DEXC   =    0.000                                                                                
   RMAX   =    2.801    core radius for proj-oper                                                   
   RAUG   =    1.300    factor for augmentation sphere                                              
   RDEP   =    2.886    radius for radial grids                                                     
   RDEPT  =    2.230    core radius for aug-charge                                                  
                                                                                                    
   Atomic configuration                                                                             
   16 entries                                                                                       
     n  l   j            E        occ.                                                              
     1  0  0.50    -69465.5836   2.0000                                                             
     2  0  0.50    -11986.2642   2.0000                                                             
     2  1  1.50    -10479.8616   6.0000                                                             
     3  0  0.50     -2759.0758   2.0000                                                             
     3  1  1.50     -2313.1857   6.0000                                                             
     3  2  2.50     -1801.1185  10.0000                                                             
     4  0  0.50      -567.6791   2.0000                                                             
     4  1  1.50      -421.4694   6.0000                                                             
     4  2  2.50      -236.3473  10.0000                                                             
     4  3  3.50       -31.2666  14.0000                                                             
     5  0  0.50       -77.1085   2.0000                                                             
     5  1  1.50       -41.3856   6.0000                                                             
     5  2  2.50        -3.3185   5.0000                                                             
     6  0  0.50        -5.1438   1.0000                                                             
     6  1  0.50        -3.8096   0.0000                                                             
     5  3  2.50        -1.3606   0.0000                                                             
   Description                                                                                      
     l       E           TYP  RCUT    TYP  RCUT                                                     
     2     -3.3185288     23  2.500                                                                 
     2     -1.5965414     23  2.500                                                                 
     0     -5.1438054     23  2.500                                                                 
     0      4.9117504     23  2.500                                                                 
     1      2.7211652     23  2.750                                                                 
     1     27.2116520     23  2.750                                                                 
  local pseudopotential read in
  partial core-charges read in
  partial kinetic energy density read in
  atomic valenz-charges read in
  non local Contribution for L=           2  read in
    real space projection operators read in
  non local Contribution for L=           2  read in
    real space projection operators read in
  non local Contribution for L=           0  read in
    real space projection operators read in
  non local Contribution for L=           0  read in
    real space projection operators read in
  non local Contribution for L=           1  read in
    real space projection operators read in
  non local Contribution for L=           1  read in
    real space projection operators read in
    PAW grid and wavefunctions read in
 
   number of l-projection  operators is LMAX  =           6
   number of lm-projection operators is LMMAX =          18
 
 POTCAR:    PAW_PBE N 08Apr2002                   
   VRHFIN =N: s2p3                                                                                  
   LEXCH  = PE                                                                                      
   EATOM  =   264.5486 eV,   19.4438 Ry                                                             
                                                                                                    
   TITEL  = PAW_PBE N 08Apr2002                                                                     
   LULTRA =        F    use ultrasoft PP ?                                                          
   IUNSCR =        1    unscreen: 0-lin 1-nonlin 2-no                                               
   RPACOR =    1.200    partial core radius                                                         
   POMASS =   14.001; ZVAL   =    5.000    mass and valenz                                          
   RCORE  =    1.500    outmost cutoff radius                                                       
   RWIGS  =    1.400; RWIGS  =    0.741    wigner-seitz radius (au A)                               
   ENMAX  =  400.000; ENMIN  =  300.000 eV                                                          
   ICORE  =        2    local potential                                                             
   LCOR   =        T    correct aug charges                                                         
   LPAW   =        T    paw PP                                                                      
   EAUG   =  627.112                                                                                
   DEXC   =    0.000                                                                                
   RMAX   =    1.529    core radius for proj-oper                                                   
   RAUG   =    1.300    factor for augmentation sphere                                              
   RDEP   =    1.514    radius for radial grids                                                     
   RDEPT  =    1.338    core radius for aug-charge                                                  
                                                                                                    
   Atomic configuration                                                                             
    4 entries                                                                                       
     n  l   j            E        occ.                                                              
     1  0  0.50      -384.7179   2.0000                                                             
     2  0  0.50       -18.5828   2.0000                                                             
     2  1  0.50        -7.0898   3.0000                                                             
     3  2  1.50        -6.8029   0.0000                                                             
   Description                                                                                      
     l       E           TYP  RCUT    TYP  RCUT                                                     
     0    -18.5828119     23  1.200                                                                 
     0    -13.5018863     23  1.200                                                                 
     1     -7.0897853     23  1.500                                                                 
     1      9.5240782     23  1.500                                                                 
     2     -6.8029130      7  1.500                                                                 
  local pseudopotential read in
  partial core-charges read in
  partial kinetic energy density read in
  atomic valenz-charges read in
  non local Contribution for L=           0  read in
    real space projection operators read in
  non local Contribution for L=           0  read in
    real space projection operators read in
  non local Contribution for L=           1  read in
    real space projection operators read in
  non local Contribution for L=           1  read in
    real space projection operators read in
    PAW grid and wavefunctions read in
 
   number of l-projection  operators is LMAX  =           4
   number of lm-projection operators is LMMAX =           8
 
 Optimization of the real space projectors (new method)

 maximal supplied QI-value         = 15.12
 optimisation between [QCUT,QGAM] = [ 11.34, 22.83] = [ 36.00,145.93] Ry 
 Optimized for a Real-space Cutoff    1.39 Angstroem

   l    n(q)    QCUT    max X(q) W(low)/X(q) W(high)/X(q)  e(spline) 
   2      9    11.338    60.898    0.39E-03    0.42E-03    0.21E-06
   2      9    11.338    58.894    0.40E-03    0.42E-03    0.22E-06
   0      9    11.338   109.617    0.13E-03    0.20E-04    0.13E-06
   0      9    11.338    75.026    0.13E-03    0.20E-04    0.13E-06
   1      9    11.338    16.344    0.33E-04    0.24E-03    0.18E-06
   1      9    11.338    10.160    0.26E-04    0.19E-03    0.15E-06
 Optimization of the real space projectors (new method)

 maximal supplied QI-value         = 13.61
 optimisation between [QCUT,QGAM] = [ 11.43, 22.86] = [ 36.58,146.31] Ry 
 Optimized for a Real-space Cutoff    1.56 Angstroem

   l    n(q)    QCUT    max X(q) W(low)/X(q) W(high)/X(q)  e(spline) 
   2     10    11.429   130.855    0.22E-03    0.64E-03    0.11E-05
   2     10    11.429   114.007    0.22E-03    0.64E-03    0.11E-05
   0     11    11.429    84.709    0.39E-04    0.67E-04    0.23E-06
   0     11    11.429    49.163    0.35E-04    0.62E-04    0.21E-06
   1     10    11.429    15.765    0.84E-04    0.15E-03    0.24E-06
   1     10    11.429    10.638    0.58E-04    0.12E-03    0.19E-06
 Optimization of the real space projectors (new method)

 maximal supplied QI-value         = 25.13
 optimisation between [QCUT,QGAM] = [ 11.31, 22.87] = [ 35.82,146.48] Ry 
 Optimized for a Real-space Cutoff    1.27 Angstroem

   l    n(q)    QCUT    max X(q) W(low)/X(q) W(high)/X(q)  e(spline) 
   0      9    11.310    79.467    0.75E-04    0.16E-03    0.36E-06
   0      9    11.310    66.151    0.74E-04    0.16E-03    0.36E-06
   1      8    11.310    17.416    0.35E-03    0.12E-03    0.95E-06
   1      8    11.310    12.382    0.37E-03    0.13E-03    0.98E-06
  PAW_PBE Au 04Oct2007                  :
 energy of atom  1       EATOM= -926.0867
 kinetic energy error for atom=    0.0042 (will be added to EATOM!!)
  PAW_PBE W 08Apr2002                   :
 energy of atom  2       EATOM= -204.6103
 kinetic energy error for atom=    0.0017 (will be added to EATOM!!)
  PAW_PBE N 08Apr2002                   :
 energy of atom  3       EATOM= -264.5486
 kinetic energy error for atom=    0.0138 (will be added to EATOM!!)
 
 
 POSCAR: Au-W-N
  positions in direct lattice
  velocities in cartesian coordinates
 exchange correlation table for  LEXCH =        8
   RHO(1)=    0.500       N(1)  =     2000
   RHO(2)=  100.500       N(2)  =     4000

 VTST: version 3.2, (02/03/18)

 CHAIN: initializing optimizer
 
 OPT: Using VASP Conjugate-Gradient optimizer
 CHAIN: Read ICHAIN            0
 
 POSCAR: Au-W-N
  positions in direct lattice
  velocities in cartesian coordinates
 


--------------------------------------------------------------------------------------------------------


 ion  position               nearest neighbor table
   1  0.000  0.000  0.238-  16 2.94  12 2.94   6 2.94   8 2.94   7 2.94   3 2.94  10 2.94   4 2.94
                             2 2.94
   2  0.333  0.000  0.238-   9 2.94  11 2.94  17 2.94  10 2.94   8 2.94   4 2.94   5 2.94   1 2.94
                             3 2.94
   3  0.667  0.000  0.238-   7 2.94  18 2.94  12 2.94   1 2.94  11 2.94   5 2.94   6 2.94   9 2.94
                             2 2.94
   4  0.000  0.333  0.238-  10 2.94   6 2.94   5 2.94  13 2.94   2 2.94  15 2.94   9 2.94   1 2.94
                             7 2.94
   5  0.333  0.333  0.238-  13 2.94   7 2.94  11 2.94   4 2.94   2 2.94  14 2.94   3 2.94   8 2.94
                             6 2.94
   6  0.667  0.333  0.238-  15 2.94  14 2.94   1 2.94  12 2.94   4 2.94   9 2.94   8 2.94   3 2.94
                             5 2.94
   7  0.000  0.667  0.238-  18 2.94   3 2.94  16 2.94   5 2.94   1 2.94  13 2.94   8 2.94   4 2.94
                             9 2.94
   8  0.333  0.667  0.238-   9 2.94  17 2.94   1 2.94   2 2.94  14 2.94  16 2.94   6 2.94   7 2.94
                             5 2.94
   9  0.667  0.667  0.238-   2 2.94   8 2.94  17 2.94   6 2.94  15 2.94   4 2.94   3 2.94  18 2.94
                             7 2.94
  10  0.111  0.111  0.346-  20 2.90  11 2.94  17 2.94   2 2.94   4 2.94   1 2.94  12 2.94  16 2.94
                            13 2.94  15 2.94  26 2.96  19 2.96
  11  0.444  0.111  0.346-  20 2.91  21 2.91  13 2.94   2 2.94  10 2.94  17 2.94   5 2.94   3 2.94
                            18 2.94  14 2.94  12 2.94  27 2.94
  12  0.778  0.111  0.346-  21 2.90  16 2.94  18 2.94   1 2.94  14 2.94  15 2.94   3 2.94   6 2.94
                            10 2.94  11 2.94  25 2.96  19 2.96
  13  0.111  0.444  0.346-  23 2.91  20 2.91   5 2.94  18 2.94  11 2.94   7 2.94   4 2.94  16 2.94
                            10 2.94  14 2.94  15 2.94  22 2.94
  14  0.444  0.444  0.346-  21 2.91  23 2.91  15 2.94   6 2.94  12 2.94   8 2.94  17 2.94   5 2.94
                            16 2.94  13 2.94  11 2.94  24 2.94
  15  0.778  0.444  0.346-  24 2.92  22 2.92  14 2.94   6 2.94  17 2.94  12 2.94   9 2.94   4 2.94
                            10 2.94  13 2.94  18 2.94  19 2.95
  16  0.111  0.778  0.346-  23 2.90  18 2.94  12 2.94   7 2.94   1 2.94   8 2.94  13 2.94  10 2.94
                            14 2.94  17 2.94  25 2.96  26 2.96
  17  0.444  0.778  0.346-  27 2.92  24 2.92   9 2.94  15 2.94   2 2.94  10 2.94  11 2.94   8 2.94
                            14 2.94  16 2.94  18 2.94  26 2.95
  18  0.778  0.778  0.346-  22 2.92  27 2.92  16 2.94   7 2.94  13 2.94  12 2.94   3 2.94  11 2.94
                             9 2.94  15 2.94  17 2.94  25 2.95
  19  0.888  0.224  0.455-  24 2.93  22 2.93  21 2.93  20 2.93  28 2.94  15 2.95  26 2.96  25 2.96
                            10 2.96  12 2.96  32 3.04  31 3.04
  20  0.222  0.222  0.452-  36 2.74  10 2.90  11 2.91  13 2.91  26 2.93  19 2.93  23 2.95  21 2.95
                            27 2.96  22 2.96  29 2.98  31 2.98
  21  0.557  0.222  0.452-  36 2.74  12 2.90  14 2.91  11 2.91  25 2.93  19 2.93  20 2.95  23 2.95
                            27 2.96  24 2.96  30 2.98  32 2.98
  22  0.886  0.557  0.454-  24 2.90  27 2.90  18 2.92  15 2.92  25 2.93  19 2.93  13 2.94  35 2.95
                            23 2.96  20 2.96  33 3.02  31 3.02
  23  0.222  0.557  0.452-  36 2.74  16 2.90  13 2.91  14 2.91  25 2.93  26 2.93  20 2.95  21 2.95
                            22 2.96  24 2.96  33 2.98  34 2.98
  24  0.557  0.557  0.454-  27 2.90  22 2.90  15 2.92  17 2.92  26 2.93  19 2.93  14 2.94  35 2.95
                            21 2.96  23 2.96  32 3.02  34 3.02
  25  0.888  0.888  0.455-  22 2.93  27 2.93  23 2.93  21 2.93  28 2.94  18 2.95  19 2.96  26 2.96
                            16 2.96  12 2.96  33 3.04  30 3.04
  26  0.224  0.888  0.455-  27 2.93  24 2.93  20 2.93  23 2.93  28 2.94  17 2.95  19 2.96  25 2.96
                            10 2.96  16 2.96  29 3.04  34 3.04
  27  0.557  0.886  0.454-  24 2.90  22 2.90  17 2.92  18 2.92  26 2.93  25 2.93  11 2.94  35 2.95
                            20 2.96  21 2.96  29 3.02  30 3.02
  28  0.000  0.000  0.563-  25 2.94  19 2.94  26 2.94  34 3.00  32 3.00  33 3.00  30 3.00  31 3.00
                            29 3.00
  29  0.334  0.013  0.566-  30 2.82  31 2.82  36 2.84  20 2.98  35 3.00  28 3.00  27 3.02  26 3.04
                            34 3.17
  30  0.653  0.013  0.566-  29 2.82  32 2.82  36 2.84  21 2.98  35 3.00  28 3.00  27 3.02  25 3.04
                            33 3.17
  31  0.013  0.334  0.566-  33 2.82  29 2.82  36 2.84  20 2.98  35 3.00  28 3.00  22 3.02  19 3.04
                            32 3.17
  32  0.653  0.334  0.566-  34 2.82  30 2.82  36 2.84  21 2.98  35 3.00  28 3.00  24 3.02  19 3.04
                            31 3.17
  33  0.013  0.653  0.566-  31 2.82  34 2.82  36 2.84  23 2.98  35 3.00  28 3.00  22 3.02  25 3.04
                            30 3.17
  34  0.334  0.653  0.566-  32 2.82  33 2.82  36 2.84  23 2.98  35 3.00  28 3.00  24 3.02  26 3.04
                            29 3.17
  35  0.667  0.667  0.563-  24 2.95  27 2.95  22 2.95  29 3.00  34 3.00  32 3.00  31 3.00  30 3.00
                            33 3.00
  36  0.333  0.333  0.549-  37 1.73  20 2.74  23 2.74  21 2.74  33 2.84  31 2.84  29 2.84  30 2.84
                            34 2.84  32 2.84
  37  0.333  0.333  0.627-  36 1.73
 
  LATTYP: Found a hexagonal cell.
 ALAT       =     8.8135128021
 C/A-ratio  =     2.5184286595
  
  Lattice vectors:
  
 A1 = (  -4.4067569092,  -7.6327256898,   0.0000000000)
 A2 = (   8.8135128021,   0.0000000000,   0.0000000000)
 A3 = (   0.0000000000,   0.0000000000,  22.1962032318)


Analysis of symmetry for initial positions (statically):
=====================================================================
 Subroutine PRICEL returns:
 Original cell was already a primitive cell.
 

 Routine SETGRP: Setting up the symmetry group for a 
 hexagonal supercell.


 Subroutine GETGRP returns: Found  6 space group operations
 (whereof  6 operations were pure point group operations)
 out of a pool of 24 trial point group operations.


The static configuration has the point symmetry C_3v.


Analysis of symmetry for dynamics (positions and initial velocities):
=====================================================================
 Subroutine PRICEL returns:
 Original cell was already a primitive cell.
 

 Routine SETGRP: Setting up the symmetry group for a 
 hexagonal supercell.


 Subroutine GETGRP returns: Found  6 space group operations
 (whereof  6 operations were pure point group operations)
 out of a pool of 24 trial point group operations.


The dynamic configuration has the point symmetry C_3v.


Analysis of constrained symmetry for selective dynamics:
=====================================================================
 Subroutine PRICEL returns:
 Original cell was already a primitive cell.
 

 Routine SETGRP: Setting up the symmetry group for a 
 hexagonal supercell.


 Subroutine GETGRP returns: Found  6 space group operations
 (whereof  6 operations were pure point group operations)
 out of a pool of 24 trial point group operations.


The constrained configuration has the point symmetry C_3v.


 Subroutine INISYM returns: Found  6 space group operations
 (whereof  6 operations are pure point group operations),
 and found     1 'primitive' translations


----------------------------------------------------------------------------------------

                                     Primitive cell                                     

  volume of cell :    1493.1636

  direct lattice vectors                    reciprocal lattice vectors
     8.813512802  0.000000000  0.000000000     0.113462137 -0.065507406  0.000000000
     4.406756909  7.632725690  0.000000000     0.000000000  0.131014796  0.000000000
     0.000000000  0.000000000 22.196203232     0.000000000  0.000000000  0.045052750

  length of vectors
     8.813512802  8.813512802 22.196203232     0.131014796  0.131014796  0.045052750

  position of ions in fractional coordinates (direct lattice)
     0.000000000  0.000000000  0.237895638
     0.333333343  0.000000000  0.237895638
     0.666666687  0.000000000  0.237895638
     1.000000000  0.333333343  0.237895638
     0.333333313  0.333333343  0.237895638
     0.666666687  0.333333343  0.237895638
     1.000000000  0.666666687  0.237895638
     0.333333343  0.666666687  0.237895638
     0.666666627  0.666666687  0.237895638
     0.111111119  0.111111112  0.345965207
     0.444444418  0.111111112  0.345965207
     0.777777791  0.111111112  0.345965207
     0.111111127  0.444444448  0.345965207
     0.444444478  0.444444448  0.345965207
     0.777777731  0.444444448  0.345965207
     0.111111090  0.777777791  0.345965207
     0.444444448  0.777777791  0.345965207
     0.777777851  0.777777791  0.345965207
     0.888108940  0.223782136  0.455069452
     0.221743954  0.221743939  0.452335038
     0.556512152  0.221743939  0.452335038
     0.886138604  0.556930728  0.453520865
     0.221743909  0.556512152  0.452335038
     0.556930728  0.556930728  0.453520865
     0.888108940  0.888108940  0.455069452
     0.223782166  0.888108940  0.455069452
     0.556930668  0.886138604  0.453520865
     0.000000000  0.000000000  0.563124211
     0.333684557  0.013163897  0.565613076
     0.653151576  0.013163897  0.565613076
     0.013163897  0.333684557  0.565613076
     0.653151576  0.333684557  0.565613076
     0.013163897  0.653151576  0.565613076
     0.333684557  0.653151576  0.565613076
     0.666666627  0.666666687  0.563100484
     0.333333313  0.333333343  0.548994823
     0.333333313  0.333333343  0.627136645

  ion indices of the primitive-cell ions
   primitive index   ion index
                 1           1
                 2           2
                 3           3
                 4           4
                 5           5
                 6           6
                 7           7
                 8           8
                 9           9
                10          10
                11          11
                12          12
                13          13
                14          14
                15          15
                16          16
                17          17
                18          18
                19          19
                20          20
                21          21
                22          22
                23          23
                24          24
                25          25
                26          26
                27          27
                28          28
                29          29
                30          30
                31          31
                32          32
                33          33
                34          34
                35          35
                36          36
                37          37

----------------------------------------------------------------------------------------

 
 
 KPOINTS: Automatic mesh                          

Automatic generation of k-mesh.
 Grid dimensions read from file:
 generate k-points for:    8    8    1

 Generating k-lattice:

  Cartesian coordinates                     Fractional coordinates (reciprocal lattice)
     0.014182767 -0.008188426  0.000000000     0.125000000 -0.000000000  0.000000000
     0.000000000  0.016376850  0.000000000     0.000000000  0.125000000  0.000000000
     0.000000000  0.000000000  0.045052750     0.000000000  0.000000000  1.000000000

  Length of vectors
     0.016376850  0.016376850  0.045052750

  Shift w.r.t. Gamma in fractional coordinates (k-lattice)
     0.000000000  0.000000000  0.000000000

 TETIRR: Found     36 inequivalent tetrahedra from      384
 
 Subroutine IBZKPT returns following result:
 ===========================================
 
 Found     10 irreducible k-points:
 
 Following reciprocal coordinates:
            Coordinates               Weight
  0.000000  0.000000  0.000000      1.000000
  0.125000 -0.000000  0.000000      6.000000
  0.250000 -0.000000  0.000000      6.000000
  0.375000  0.000000  0.000000      6.000000
  0.500000 -0.000000  0.000000      3.000000
  0.250000  0.125000  0.000000      6.000000
  0.375000  0.125000  0.000000     12.000000
  0.500000  0.125000  0.000000     12.000000
  0.500000  0.250000  0.000000      6.000000
 -0.375000  0.250000  0.000000      6.000000
 
 Following cartesian coordinates:
            Coordinates               Weight
  0.000000  0.000000  0.000000      1.000000
  0.014183 -0.008188  0.000000      6.000000
  0.028366 -0.016377  0.000000      6.000000
  0.042548 -0.024565  0.000000      6.000000
  0.056731 -0.032754  0.000000      3.000000
  0.028366 -0.000000  0.000000      6.000000
  0.042548 -0.008188  0.000000     12.000000
  0.056731 -0.016377  0.000000     12.000000
  0.056731 -0.000000  0.000000      6.000000
 -0.042548  0.057319  0.000000      6.000000
 


--------------------------------------------------------------------------------------------------------




 Dimension of arrays:
   k-points           NKPTS =     10   k-points in BZ     NKDIM =     10   number of bands    NBANDS=    252
   number of dos      NEDOS =    301   number of ions     NIONS =     37
   non local maximal  LDIM  =      6   non local SUM 2l+1 LMDIM =     18
   total plane-waves  NPLWV = 290304
   max r-space proj   IRMAX =   3166   max aug-charges    IRDMAX=  12088
   dimension x,y,z NGX =    48 NGY =   48 NGZ =  126
   dimension x,y,z NGXF=    96 NGYF=   96 NGZF=  252
   support grid    NGXF=    96 NGYF=   96 NGZF=  252
   ions per type =              35   1   1
   NGX,Y,Z   is equivalent  to a cutoff of   9.05,  9.05,  9.44 a.u.
   NGXF,Y,Z  is equivalent  to a cutoff of  18.11, 18.11, 18.87 a.u.

 SYSTEM =  unknown system                          
 POSCAR =  Au-W-N                                  

 Startparameter for this run:
   NWRITE =      2    write-flag & timer
   PREC   = normal    normal or accurate (medium, high low for compatibility)
   ISTART =      0    job   : 0-new  1-cont  2-samecut
   ICHARG =     11    charge: 1-file 2-atom 10-const
   ISPIN  =      1    spin polarized calculation?
   LNONCOLLINEAR =      F non collinear calculations
   LSORBIT =      F    spin-orbit coupling
   INIWAV =      1    electr: 0-lowe 1-rand  2-diag
   LASPH  =      F    aspherical Exc in radial PAW
   METAGGA=      F    non-selfconsistent MetaGGA calc.

 Electronic Relaxation 1
   ENCUT  =  500.0 eV  36.75 Ry    6.06 a.u.  16.07 16.07 40.47*2*pi/ulx,y,z
   ENINI  =  500.0     initial cutoff
   ENAUG  =  627.1 eV  augmentation charge cutoff
   NELM   =    150;   NELMIN=  2; NELMDL= -5     # of ELM steps 
   EDIFF  = 0.1E-04   stopping-criterion for ELM
   LREAL  =      T    real-space projection
   NLSPLINE    = F    spline interpolate recip. space projectors
   LCOMPAT=      F    compatible to vasp.4.4
   GGA_COMPAT  = T    GGA compatible to vasp.4.4-vasp.4.6
   LMAXPAW     = -100 max onsite density
   LMAXMIX     =    2 max onsite mixed and CHGCAR
   VOSKOWN=      0    Vosko Wilk Nusair interpolation
   ROPT   =   -0.00050  -0.00050  -0.00050
 Ionic relaxation
   EDIFFG = -.1E-01   stopping-criterion for IOM
   NSW    =      0    number of steps for IOM
   NBLOCK =      1;   KBLOCK =      1    inner block; outer block 
   IBRION =     -1    ionic relax: 0-MD 1-quasi-New 2-CG
   NFREE  =      1    steps in history (QN), initial steepest desc. (CG)
   ISIF   =      2    stress and relaxation
   IWAVPR =     10    prediction:  0-non 1-charg 2-wave 3-comb
   ISYM   =      2    0-nonsym 1-usesym 2-fastsym
   LCORR  =      T    Harris-Foulkes like correction to forces

   POTIM  = 0.5000    time-step for ionic-motion
   TEIN   =    0.0    initial temperature
   TEBEG  =    0.0;   TEEND  =   0.0 temperature during run
   SMASS  =  -3.00    Nose mass-parameter (am)
   estimated Nose-frequenzy (Omega)   =  0.10E-29 period in steps = 0.13E+47 mass=  -0.178E-26a.u.
   SCALEE = 1.0000    scale energy and forces
   NPACO  =    256;   APACO  = 16.0  distance and # of slots for P.C.
   PSTRESS=    0.0 pullay stress

  Mass of Ions in am
   POMASS = 196.97183.85 14.00
  Ionic Valenz
   ZVAL   =  11.00  6.00  5.00
  Atomic Wigner-Seitz radii
   RWIGS  =  -1.00 -1.00 -1.00
  virtual crystal weights 
   VCA    =   1.00  1.00  1.00
   NELECT =     396.0000    total number of electrons
   NUPDOWN=      -1.0000    fix difference up-down

 DOS related values:
   EMIN   =  10.00;   EMAX   =-10.00  energy-range for DOS
   EFERMI =   0.00
   ISMEAR =    -5;   SIGMA  =   0.10  broadening in eV -4-tet -1-fermi 0-gaus

 Electronic relaxation 2 (details)
   IALGO  =     68    algorithm
   LDIAG  =      T    sub-space diagonalisation (order eigenvalues)
   LSUBROT=      F    optimize rotation matrix (better conditioning)
   TURBO    =      0    0=normal 1=particle mesh
   IRESTART =      0    0=no restart 2=restart with 2 vectors
   NREBOOT  =      0    no. of reboots
   NMIN     =      0    reboot dimension
   EREF     =   0.00    reference energy to select bands
   IMIX   =      4    mixing-type and parameters
     AMIX     =   0.40;   BMIX     =  1.00
     AMIX_MAG =   1.60;   BMIX_MAG =  1.00
     AMIN     =   0.10
     WC   =   100.;   INIMIX=   1;  MIXPRE=   1;  MAXMIX= -45

 Intra band minimization:
   WEIMIN = 0.0000     energy-eigenvalue tresh-hold
   EBREAK =  0.99E-08  absolut break condition
   DEPER  =   0.30     relativ break condition  

   TIME   =   0.40     timestep for ELM

  volume/ion in A,a.u.               =      40.36       272.33
  Fermi-wavevector in a.u.,A,eV,Ry     =   1.051810  1.987633 15.052193  1.106305
  Thomas-Fermi vector in A             =   2.186868
 
 Write flags
   LWAVE        =      F    write WAVECAR
   LDOWNSAMPLE  =      F    k-point downsampling of WAVECAR
   LCHARG       =      F    write CHGCAR
   LVTOT        =      F    write LOCPOT, total local potential
   LVHAR        =      F    write LOCPOT, Hartree potential only
   LELF         =      F    write electronic localiz. function (ELF)
   LORBIT       =     10    0 simple, 1 ext, 2 COOP (PROOUT), +10 PAW based schemes


 Dipole corrections
   LMONO  =      F    monopole corrections only (constant potential shift)
   LDIPOL =      F    correct potential (dipole corrections)
   IDIPOL =      0    1-x, 2-y, 3-z, 4-all directions 
   EPSILON=  1.0000000 bulk dielectric constant

 Exchange correlation treatment:
   GGA     =    --    GGA type
   LEXCH   =     8    internal setting for exchange type
   VOSKOWN=      0    Vosko Wilk Nusair interpolation
   LHFCALC =     F    Hartree Fock is set to
   LHFONE  =     F    Hartree Fock one center treatment
   AEXX    =    0.0000 exact exchange contribution

 Linear response parameters
   LEPSILON=     F    determine dielectric tensor
   LRPA    =     F    only Hartree local field effects (RPA)
   LNABLA  =     F    use nabla operator in PAW spheres
   LVEL    =     F    velocity operator in full k-point grid
   LINTERFAST=   F  fast interpolation
   KINTER  =     0    interpolate to denser k-point grid
   CSHIFT  =0.1000    complex shift for real part using Kramers Kronig
   OMEGAMAX=  -1.0    maximum frequency
   DEG_THRESHOLD= 0.2000000E-02 threshold for treating states as degnerate
   RTIME   =   -0.100 relaxation time in fs
  (WPLASMAI=    0.000 imaginary part of plasma frequency in eV, 0.658/RTIME)
   DFIELD  = 0.0000000 0.0000000 0.0000000 field for delta impulse in time
 
 Orbital magnetization related:
   ORBITALMAG=     F  switch on orbital magnetization
   LCHIMAG   =     F  perturbation theory with respect to B field
   DQ        =  0.001000  dq finite difference perturbation B field
   LLRAUG    =     F  two centre corrections for induced B field



--------------------------------------------------------------------------------------------------------


 Static calculation
 charge density and potential remain constant during run
 non-spin polarized calculation
 RMM-DIIS sequential band-by-band and
  variant of blocked Davidson during initial phase
 perform sub-space diagonalisation
    before iterative eigenvector-optimisation
 no mixing
 using additional bands           54
 real space projection scheme for non local part
 use partial core corrections
 calculate Harris-corrections to forces 
   (improved forces if not selfconsistent)
 use gradient corrections 
 WARNING: stress and forces are not correct
  (second derivative of E(xc) not defined)
 use of overlap-Matrix (Vanderbilt PP)
 Fermi weights with tetrahedron method with Bloechl corrections


--------------------------------------------------------------------------------------------------------


  energy-cutoff  :      500.00
  volume of cell :     1493.16
      direct lattice vectors                 reciprocal lattice vectors
     8.813512802  0.000000000  0.000000000     0.113462137 -0.065507406  0.000000000
     4.406756909  7.632725690  0.000000000     0.000000000  0.131014796  0.000000000
     0.000000000  0.000000000 22.196203232     0.000000000  0.000000000  0.045052750

  length of vectors
     8.813512802  8.813512802 22.196203232     0.131014796  0.131014796  0.045052750


 
 k-points in units of 2pi/SCALE and weight: Automatic mesh                          
   0.00000000  0.00000000  0.00000000       0.016
   0.01418277 -0.00818843  0.00000000       0.094
   0.02836553 -0.01637685  0.00000000       0.094
   0.04254830 -0.02456528  0.00000000       0.094
   0.05673107 -0.03275370  0.00000000       0.047
   0.02836553 -0.00000000  0.00000000       0.094
   0.04254830 -0.00818843  0.00000000       0.188
   0.05673107 -0.01637685  0.00000000       0.188
   0.05673107 -0.00000000  0.00000000       0.094
  -0.04254830  0.05731898  0.00000000       0.094
 
 k-points in reciprocal lattice and weights: Automatic mesh                          
   0.00000000  0.00000000  0.00000000       0.016
   0.12500000 -0.00000000  0.00000000       0.094
   0.25000000 -0.00000000  0.00000000       0.094
   0.37500000  0.00000000  0.00000000       0.094
   0.50000000 -0.00000000  0.00000000       0.047
   0.25000000  0.12500000  0.00000000       0.094
   0.37500000  0.12500000  0.00000000       0.188
   0.50000000  0.12500000  0.00000000       0.188
   0.50000000  0.25000000  0.00000000       0.094
  -0.37500000  0.25000000  0.00000000       0.094
 
 position of ions in fractional coordinates (direct lattice) 
   0.00000000  0.00000000  0.23789564
   0.33333334  0.00000000  0.23789564
   0.66666669  0.00000000  0.23789564
   0.00000000  0.33333334  0.23789564
   0.33333331  0.33333334  0.23789564
   0.66666669  0.33333334  0.23789564
   0.00000000  0.66666669  0.23789564
   0.33333334  0.66666669  0.23789564
   0.66666663  0.66666669  0.23789564
   0.11111112  0.11111111  0.34596521
   0.44444442  0.11111111  0.34596521
   0.77777779  0.11111111  0.34596521
   0.11111113  0.44444445  0.34596521
   0.44444448  0.44444445  0.34596521
   0.77777773  0.44444445  0.34596521
   0.11111109  0.77777779  0.34596521
   0.44444445  0.77777779  0.34596521
   0.77777785  0.77777779  0.34596521
   0.88810894  0.22378214  0.45506945
   0.22174395  0.22174394  0.45233504
   0.55651215  0.22174394  0.45233504
   0.88613860  0.55693073  0.45352087
   0.22174391  0.55651215  0.45233504
   0.55693073  0.55693073  0.45352087
   0.88810894  0.88810894  0.45506945
   0.22378217  0.88810894  0.45506945
   0.55693067  0.88613860  0.45352087
   0.00000000  0.00000000  0.56312421
   0.33368456  0.01316390  0.56561308
   0.65315158  0.01316390  0.56561308
   0.01316390  0.33368456  0.56561308
   0.65315158  0.33368456  0.56561308
   0.01316390  0.65315158  0.56561308
   0.33368456  0.65315158  0.56561308
   0.66666663  0.66666669  0.56310048
   0.33333331  0.33333334  0.54899482
   0.33333331  0.33333334  0.62713664
 
 position of ions in cartesian coordinates  (Angst):
   0.00000000  0.00000000  5.28037993
   2.93783769  0.00000000  5.28037993
   5.87567538  0.00000000  5.28037993
   1.46891901  2.54424197  5.28037993
   4.40675643  2.54424197  5.28037993
   7.34459439  2.54424197  5.28037993
   2.93783803  5.08848395  5.28037993
   5.87567571  5.08848395  5.28037993
   8.81351288  5.08848395  5.28037993
   1.46891893  0.84808064  7.67911405
   4.40675623  0.84808064  7.67911405
   7.34459418  0.84808064  7.67911405
   2.93783798  3.39232256  7.67911405
   5.87567574  3.39232256  7.67911405
   8.81351263  3.39232256  7.67911405
   4.40675667  5.93656453  7.67911405
   7.34459449  5.93656453  7.67911405
  10.28243270  5.93656453  7.67911405
   8.81351299  1.70806766 10.10081404
   2.93151481  1.69251066 10.04012044
   5.88199861  1.69251066 10.04012044
  10.26425226  4.25089948 10.06644130
   4.40675655  4.24770460 10.04012044
   7.36277444  4.25089948 10.06644130
  11.74103972  6.77869192 10.10081404
   5.88598719  6.77869192 10.10081404
   8.81351299  6.76365289 10.06644130
   0.00000000  0.00000000 12.49921944
   2.99894321  0.10047641 12.55446278
   5.81456987  0.10047641 12.55446278
   1.58648690  2.54692269 12.55446278
   7.22702651  2.54692269 12.55446278
   2.99430039  4.98532682 12.55446278
   5.81921334  4.98532682 12.55446278
   8.81351288  5.08848395 12.49869278
   4.40675643  2.54424197 12.18560065
   4.40675643  2.54424197 13.92005242
 


--------------------------------------------------------------------------------------------------------


 k-point   1 :   0.0000 0.0000 0.0000  plane waves:   37827
 k-point   2 :   0.1250-0.0000 0.0000  plane waves:   37876
 k-point   3 :   0.2500-0.0000 0.0000  plane waves:   37924
 k-point   4 :   0.3750 0.0000 0.0000  plane waves:   37904
 k-point   5 :   0.5000-0.0000 0.0000  plane waves:   37912
 k-point   6 :   0.2500 0.1250 0.0000  plane waves:   37858
 k-point   7 :   0.3750 0.1250 0.0000  plane waves:   37928
 k-point   8 :   0.5000 0.1250 0.0000  plane waves:   37924
 k-point   9 :   0.5000 0.2500 0.0000  plane waves:   37926
 k-point  10 :  -0.3750 0.2500 0.0000  plane waves:   37916

 maximum and minimum number of plane-waves per node :     37928    37827

 maximum number of plane-waves:     37928
 maximum index in each direction: 
   IXMAX=   16   IYMAX=   16   IZMAX=   40
   IXMIN=  -16   IYMIN=  -16   IZMIN=  -40


 serial   3D FFT for wavefunctions
 parallel 3D FFT for charge:
    minimum data exchange during FFTs selected (reduces bandwidth)


 total amount of memory used by VASP MPI-rank0   122665. kBytes
=======================================================================

   base      :      30000. kBytes
   nonlr-proj:      14280. kBytes
   fftplans  :       4330. kBytes
   grid      :      17879. kBytes
   one-center:        575. kBytes
   wavefun   :      55601. kBytes
 
     INWAV:  cpu time    0.0000: real time    0.0000
 initial charge density was supplied:
 number of electron     396.0000000 magnetization 
 keeping initial charge density in first step


--------------------------------------------------------------------------------------------------------


 Maximum index for non-local projection operator         3035
 Maximum index for augmentation-charges          850 (set IRDMAX)


--------------------------------------------------------------------------------------------------------


 First call to EWALD:  gamma=   0.155
 Maximum number of real-space cells 4x 4x 2
 Maximum number of reciprocal cells 2x 2x 5

    FEWALD:  cpu time    0.0013: real time    0.0014


--------------------------------------- Iteration      1(   1)  ---------------------------------------


    POTLOK:  cpu time    0.0431: real time    0.0434
    SETDIJ:  cpu time    0.0050: real time    0.0051
     EDDAV:  cpu time    7.1588: real time    7.1605
 BZINTS: Fermi energy:   11.302657;  396.000000 electrons
         Band energy: 0.149131E+04;  BLOECHL correction:   -0.003968
       DOS:  cpu time    0.0105: real time    0.0106
    --------------------------------------------
      LOOP:  cpu time    7.2175: real time    7.2197

 eigenvalue-minimisations  :  5040
 total energy-change (2. order) : 0.2604971E+04  (-0.1798033E+05)
 number of electron     396.0000000 magnetization 
 augmentation part      396.0000000 magnetization 

 Free energy of the ion-electron system (eV)
  ---------------------------------------------------
  alpha Z        PSCENC =      1020.83890178
  Ewald energy   TEWEN  =     94906.42091922
  -Hartree energ DENC   =   -128969.49938595
  -exchange      EXHF   =         0.00000000
  -V(xc)+E(xc)   XCENC  =       489.33713940
  PAW double counting   =     36406.19743011   -35621.66678503
  entropy T*S    EENTRO =         0.00000000
  eigenvalues    EBANDS =      1491.31265789
  atomic energy  EATOM  =     32882.02968382
  Solvation  Ediel_sol  =         0.00000000
  ---------------------------------------------------
  free energy    TOTEN  =      2604.97056124 eV

  energy without entropy =     2604.97056124  energy(sigma->0) =     2604.97056124


--------------------------------------------------------------------------------------------------------




--------------------------------------- Iteration      1(   2)  ---------------------------------------


     EDDAV:  cpu time    7.7908: real time    7.7910
 BZINTS: Fermi energy:    1.383737;  396.000000 electrons
         Band energy:-0.110915E+04;  BLOECHL correction:   -0.052207
       DOS:  cpu time    0.0098: real time    0.0098
    --------------------------------------------
      LOOP:  cpu time    7.8007: real time    7.8009

 eigenvalue-minimisations  :  5628
 total energy-change (2. order) :-0.2600458E+04  (-0.2402374E+04)
 number of electron     396.0000000 magnetization 
 augmentation part      396.0000000 magnetization 

 Free energy of the ion-electron system (eV)
  ---------------------------------------------------
  alpha Z        PSCENC =      1020.83890178
  Ewald energy   TEWEN  =     94906.42091922
  -Hartree energ DENC   =   -128969.49938595
  -exchange      EXHF   =         0.00000000
  -V(xc)+E(xc)   XCENC  =       489.33713940
  PAW double counting   =     36406.19743011   -35621.66678503
  entropy T*S    EENTRO =         0.00000000
  eigenvalues    EBANDS =     -1109.14522397
  atomic energy  EATOM  =     32882.02968382
  Solvation  Ediel_sol  =         0.00000000
  ---------------------------------------------------
  free energy    TOTEN  =         4.51267939 eV

  energy without entropy =        4.51267939  energy(sigma->0) =        4.51267939


--------------------------------------------------------------------------------------------------------




--------------------------------------- Iteration      1(   3)  ---------------------------------------


     EDDAV:  cpu time    8.0681: real time    8.0682
 BZINTS: Fermi energy:    0.692181;  396.000000 electrons
         Band energy:-0.123645E+04;  BLOECHL correction:   -0.048889
       DOS:  cpu time    0.0096: real time    0.0096
    --------------------------------------------
      LOOP:  cpu time    8.0777: real time    8.0778

 eigenvalue-minimisations  :  5852
 total energy-change (2. order) :-0.1273083E+03  (-0.1228012E+03)
 number of electron     396.0000000 magnetization 
 augmentation part      396.0000000 magnetization 

 Free energy of the ion-electron system (eV)
  ---------------------------------------------------
  alpha Z        PSCENC =      1020.83890178
  Ewald energy   TEWEN  =     94906.42091922
  -Hartree energ DENC   =   -128969.49938595
  -exchange      EXHF   =         0.00000000
  -V(xc)+E(xc)   XCENC  =       489.33713940
  PAW double counting   =     36406.19743011   -35621.66678503
  entropy T*S    EENTRO =         0.00000000
  eigenvalues    EBANDS =     -1236.45357374
  atomic energy  EATOM  =     32882.02968382
  Solvation  Ediel_sol  =         0.00000000
  ---------------------------------------------------
  free energy    TOTEN  =      -122.79567039 eV

  energy without entropy =     -122.79567039  energy(sigma->0) =     -122.79567039


--------------------------------------------------------------------------------------------------------




--------------------------------------- Iteration      1(   4)  ---------------------------------------


     EDDAV:  cpu time    7.7673: real time    7.7674
 BZINTS: Fermi energy:    0.675075;  396.000000 electrons
         Band energy:-0.123915E+04;  BLOECHL correction:   -0.048312
       DOS:  cpu time    0.0098: real time    0.0098
    --------------------------------------------
      LOOP:  cpu time    7.7771: real time    7.7772

 eigenvalue-minimisations  :  5600
 total energy-change (2. order) :-0.2693661E+01  (-0.2685021E+01)
 number of electron     396.0000000 magnetization 
 augmentation part      396.0000000 magnetization 

 Free energy of the ion-electron system (eV)
  ---------------------------------------------------
  alpha Z        PSCENC =      1020.83890178
  Ewald energy   TEWEN  =     94906.42091922
  -Hartree energ DENC   =   -128969.49938595
  -exchange      EXHF   =         0.00000000
  -V(xc)+E(xc)   XCENC  =       489.33713940
  PAW double counting   =     36406.19743011   -35621.66678503
  entropy T*S    EENTRO =         0.00000000
  eigenvalues    EBANDS =     -1239.14723460
  atomic energy  EATOM  =     32882.02968382
  Solvation  Ediel_sol  =         0.00000000
  ---------------------------------------------------
  free energy    TOTEN  =      -125.48933124 eV

  energy without entropy =     -125.48933124  energy(sigma->0) =     -125.48933124


--------------------------------------------------------------------------------------------------------




--------------------------------------- Iteration      1(   5)  ---------------------------------------


     EDDAV:  cpu time    8.6430: real time    8.6432
 BZINTS: Fermi energy:    0.674757;  396.000000 electrons
         Band energy:-0.123924E+04;  BLOECHL correction:   -0.048294
       DOS:  cpu time    0.0100: real time    0.0100
    --------------------------------------------
      LOOP:  cpu time    8.6530: real time    8.6532

 eigenvalue-minimisations  :  6356
 total energy-change (2. order) :-0.9062203E-01  (-0.9060892E-01)
 number of electron     396.0000000 magnetization 
 augmentation part      396.0000000 magnetization 

 Free energy of the ion-electron system (eV)
  ---------------------------------------------------
  alpha Z        PSCENC =      1020.83890178
  Ewald energy   TEWEN  =     94906.42091922
  -Hartree energ DENC   =   -128969.49938595
  -exchange      EXHF   =         0.00000000
  -V(xc)+E(xc)   XCENC  =       489.33713940
  PAW double counting   =     36406.19743011   -35621.66678503
  entropy T*S    EENTRO =         0.00000000
  eigenvalues    EBANDS =     -1239.23785662
  atomic energy  EATOM  =     32882.02968382
  Solvation  Ediel_sol  =         0.00000000
  ---------------------------------------------------
  free energy    TOTEN  =      -125.57995327 eV

  energy without entropy =     -125.57995327  energy(sigma->0) =     -125.57995327


--------------------------------------------------------------------------------------------------------




--------------------------------------- Iteration      1(   6)  ---------------------------------------


    EDDIAG:  cpu time    1.4051: real time    1.4053
  RMM-DIIS:  cpu time    3.9907: real time    3.9908
    ORTHCH:  cpu time    0.2604: real time    0.2604
 BZINTS: Fermi energy:    0.674754;  396.000000 electrons
         Band energy:-0.123924E+04;  BLOECHL correction:   -0.048294
       DOS:  cpu time    0.0099: real time    0.0099
    --------------------------------------------
      LOOP:  cpu time    5.6662: real time    5.6664

 eigenvalue-minimisations  :  5136
 total energy-change (2. order) :-0.1847752E-02  (-0.1848327E-02)
 number of electron     396.0000000 magnetization 
 augmentation part      396.0000000 magnetization 

 Free energy of the ion-electron system (eV)
  ---------------------------------------------------
  alpha Z        PSCENC =      1020.83890178
  Ewald energy   TEWEN  =     94906.42091922
  -Hartree energ DENC   =   -128969.49938595
  -exchange      EXHF   =         0.00000000
  -V(xc)+E(xc)   XCENC  =       489.33713940
  PAW double counting   =     36406.19743011   -35621.66678503
  entropy T*S    EENTRO =         0.00000000
  eigenvalues    EBANDS =     -1239.23970437
  atomic energy  EATOM  =     32882.02968382
  Solvation  Ediel_sol  =         0.00000000
  ---------------------------------------------------
  free energy    TOTEN  =      -125.58180102 eV

  energy without entropy =     -125.58180102  energy(sigma->0) =     -125.58180102


--------------------------------------------------------------------------------------------------------




--------------------------------------- Iteration      1(   7)  ---------------------------------------


    EDDIAG:  cpu time    1.4080: real time    1.4081
  RMM-DIIS:  cpu time    5.2964: real time    5.2964
    ORTHCH:  cpu time    0.2607: real time    0.2607
 BZINTS: Fermi energy:    0.674753;  396.000000 electrons
         Band energy:-0.123924E+04;  BLOECHL correction:   -0.048293
       DOS:  cpu time    0.0100: real time    0.0100
    --------------------------------------------
      LOOP:  cpu time    6.9752: real time    6.9752

 eigenvalue-minimisations  :  6835
 total energy-change (2. order) :-0.5923703E-03  (-0.5891009E-03)
 number of electron     396.0000000 magnetization 
 augmentation part      396.0000000 magnetization 

 Free energy of the ion-electron system (eV)
  ---------------------------------------------------
  alpha Z        PSCENC =      1020.83890178
  Ewald energy   TEWEN  =     94906.42091922
  -Hartree energ DENC   =   -128969.49938595
  -exchange      EXHF   =         0.00000000
  -V(xc)+E(xc)   XCENC  =       489.33713940
  PAW double counting   =     36406.19743011   -35621.66678503
  entropy T*S    EENTRO =         0.00000000
  eigenvalues    EBANDS =     -1239.24029675
  atomic energy  EATOM  =     32882.02968382
  Solvation  Ediel_sol  =         0.00000000
  ---------------------------------------------------
  free energy    TOTEN  =      -125.58239339 eV

  energy without entropy =     -125.58239339  energy(sigma->0) =     -125.58239339


--------------------------------------------------------------------------------------------------------




--------------------------------------- Iteration      1(   8)  ---------------------------------------


    EDDIAG:  cpu time    1.4084: real time    1.4084
  RMM-DIIS:  cpu time    4.5439: real time    4.5439
    ORTHCH:  cpu time    0.2609: real time    0.2609
 BZINTS: Fermi energy:    0.674753;  396.000000 electrons
         Band energy:-0.123924E+04;  BLOECHL correction:   -0.048293
       DOS:  cpu time    0.0099: real time    0.0099
    --------------------------------------------
      LOOP:  cpu time    6.2231: real time    6.2231

 eigenvalue-minimisations  :  5804
 total energy-change (2. order) :-0.5060578E-04  (-0.4975244E-04)
 number of electron     396.0000000 magnetization 
 augmentation part      396.0000000 magnetization 

 Free energy of the ion-electron system (eV)
  ---------------------------------------------------
  alpha Z        PSCENC =      1020.83890178
  Ewald energy   TEWEN  =     94906.42091922
  -Hartree energ DENC   =   -128969.49938595
  -exchange      EXHF   =         0.00000000
  -V(xc)+E(xc)   XCENC  =       489.33713940
  PAW double counting   =     36406.19743011   -35621.66678503
  entropy T*S    EENTRO =         0.00000000
  eigenvalues    EBANDS =     -1239.24034735
  atomic energy  EATOM  =     32882.02968382
  Solvation  Ediel_sol  =         0.00000000
  ---------------------------------------------------
  free energy    TOTEN  =      -125.58244399 eV

  energy without entropy =     -125.58244399  energy(sigma->0) =     -125.58244399


--------------------------------------------------------------------------------------------------------




--------------------------------------- Iteration      1(   9)  ---------------------------------------


    EDDIAG:  cpu time    1.4065: real time    1.4066
  RMM-DIIS:  cpu time    3.2341: real time    3.2342
    ORTHCH:  cpu time    0.2607: real time    0.2607
 BZINTS: Fermi energy:    0.674753;  396.000000 electrons
         Band energy:-0.123924E+04;  BLOECHL correction:   -0.048293
       DOS:  cpu time    0.0103: real time    0.0103
    --------------------------------------------
      LOOP:  cpu time    4.9116: real time    4.9118

 eigenvalue-minimisations  :  3556
 total energy-change (2. order) :-0.4690883E-05  (-0.4554884E-05)
 number of electron     396.0000000 magnetization 
 augmentation part      396.0000000 magnetization 

 Free energy of the ion-electron system (eV)
  ---------------------------------------------------
  alpha Z        PSCENC =      1020.83890178
  Ewald energy   TEWEN  =     94906.42091922
  -Hartree energ DENC   =   -128969.49938595
  -exchange      EXHF   =         0.00000000
  -V(xc)+E(xc)   XCENC  =       489.33713940
  PAW double counting   =     36406.19743011   -35621.66678503
  entropy T*S    EENTRO =         0.00000000
  eigenvalues    EBANDS =     -1239.24035204
  atomic energy  EATOM  =     32882.02968382
  Solvation  Ediel_sol  =         0.00000000
  ---------------------------------------------------
  free energy    TOTEN  =      -125.58244869 eV

  energy without entropy =     -125.58244869  energy(sigma->0) =     -125.58244869


--------------------------------------------------------------------------------------------------------




 average (electrostatic) potential at core
  the test charge radii are     1.2098  1.1823  0.7089
  (the norm of the test charge is              1.0000)
       1 -72.3653       2 -72.3488       3 -72.3487       4 -72.3488       5 -72.3583
       6 -72.3485       7 -72.3487       8 -72.3485       9 -72.3501      10 -72.6983
      11 -72.6829      12 -72.6981      13 -72.6829      14 -72.6825      15 -72.6786
      16 -72.6981      17 -72.6786      18 -72.6788      19 -72.6237      20 -73.0345
      21 -73.0343      22 -72.6707      23 -73.0343      24 -72.6703      25 -72.6239
      26 -72.6237      27 -72.6707      28 -72.3370      29 -72.5062      30 -72.5063
      31 -72.5062      32 -72.5061      33 -72.5063      34 -72.5061      35 -72.3126
      36 -45.4850      37 -68.0316
 
 
 
 E-fermi :   0.6748     XC(G=0):  -6.1535     alpha+bet : -5.7793

 Fermi energy:         0.6747528445

 k-point     1 :       0.0000    0.0000    0.0000
  band No.  band energies     occupation 
      1     -12.4753      2.00000
      2      -8.1693      2.00000
      3      -7.0174      2.00000
      4      -6.0928      2.00000
      5      -6.0843      2.00000
      6      -6.0781      2.00000
      7      -6.0780      2.00000
      8      -6.0092      2.00000
      9      -5.9630      2.00000
     10      -5.9438      2.00000
     11      -5.9437      2.00000
     12      -5.5850      2.00000
     13      -5.5850      2.00000
     14      -5.5743      2.00000
     15      -5.5348      2.00000
     16      -5.4694      2.00000
     17      -5.4693      2.00000
     18      -5.2191      2.00000
     19      -5.2191      2.00000
     20      -5.2101      2.00000
     21      -5.1514      2.00000
     22      -5.1203      2.00000
     23      -5.1203      2.00000
     24      -5.0485      2.00000
     25      -5.0007      2.00000
     26      -5.0007      2.00000
     27      -4.9876      2.00000
     28      -4.9875      2.00000
     29      -4.9437      2.00000
     30      -4.8473      2.00000
     31      -4.8473      2.00000
     32      -4.8271      2.00000
     33      -4.8170      2.00000
     34      -4.8013      2.00000
     35      -4.8013      2.00000
     36      -4.7866      2.00000
     37      -4.7866      2.00000
     38      -4.7613      2.00000
     39      -4.7418      2.00000
     40      -4.7313      2.00000
     41      -4.7313      2.00000
     42      -4.3862      2.00000
     43      -4.3862      2.00000
     44      -4.3146      2.00000
     45      -4.2806      2.00000
     46      -4.2806      2.00000
     47      -4.2360      2.00000
     48      -4.2250      2.00000
     49      -4.2250      2.00000
     50      -4.1947      2.00000
     51      -4.1946      2.00000
     52      -4.1330      2.00000
     53      -4.1083      2.00000
     54      -4.1026      2.00000
     55      -4.0402      2.00000
     56      -3.8453      2.00000
     57      -3.8452      2.00000
     58      -3.8011      2.00000
     59      -3.7572      2.00000
     60      -3.7572      2.00000
     61      -3.7363      2.00000
     62      -3.7095      2.00000
     63      -3.6674      2.00000
     64      -3.6673      2.00000
     65      -3.6420      2.00000
     66      -3.6419      2.00000
     67      -3.5733      2.00000
     68      -3.5733      2.00000
     69      -3.5707      2.00000
     70      -3.5338      2.00000
     71      -3.5338      2.00000
     72      -3.5171      2.00000
     73      -3.5073      2.00000
     74      -3.5073      2.00000
     75      -3.4620      2.00000
     76      -3.4532      2.00000
     77      -3.4532      2.00000
     78      -3.4387      2.00000
     79      -3.4387      2.00000
     80      -3.4289      2.00000
     81      -3.4173      2.00000
     82      -3.4173      2.00000
     83      -3.3842      2.00000
     84      -3.3804      2.00000
     85      -3.3668      2.00000
     86      -3.3668      2.00000
     87      -3.3610      2.00000
     88      -3.3610      2.00000
     89      -3.2663      2.00000
     90      -3.2663      2.00000
     91      -3.2365      2.00000
     92      -3.2365      2.00000
     93      -3.2191      2.00000
     94      -3.1745      2.00000
     95      -3.1745      2.00000
     96      -2.9921      2.00000
     97      -2.9921      2.00000
     98      -2.9889      2.00000
     99      -2.9889      2.00000
    100      -2.8957      2.00000
    101      -2.8795      2.00000
    102      -2.8795      2.00000
    103      -2.8549      2.00000
    104      -2.8500      2.00000
    105      -2.8500      2.00000
    106      -2.7280      2.00000
    107      -2.7279      2.00000
    108      -2.6924      2.00000
    109      -2.6736      2.00000
    110      -2.6736      2.00000
    111      -2.6734      2.00000
    112      -2.6077      2.00000
    113      -2.6077      2.00000
    114      -2.5460      2.00000
    115      -2.5288      2.00000
    116      -2.5227      2.00000
    117      -2.4840      2.00000
    118      -2.4840      2.00000
    119      -2.3821      2.00000
    120      -2.3531      2.00000
    121      -2.3531      2.00000
    122      -2.3217      2.00000
    123      -2.3217      2.00000
    124      -2.3169      2.00000
    125      -2.2634      2.00000
    126      -2.2634      2.00000
    127      -2.2314      2.00000
    128      -2.2314      2.00000
    129      -2.1906      2.00000
    130      -2.1906      2.00000
    131      -2.1319      2.00000
    132      -2.0946      2.00000
    133      -2.0946      2.00000
    134      -2.0850      2.00000
    135      -2.0728      2.00000
    136      -2.0718      2.00000
    137      -2.0717      2.00000
    138      -2.0589      2.00000
    139      -2.0589      2.00000
    140      -1.9652      2.00000
    141      -1.9652      2.00000
    142      -1.9450      2.00000
    143      -1.9000      2.00000
    144      -1.9000      2.00000
    145      -1.8611      2.00000
    146      -1.8599      2.00000
    147      -1.8599      2.00000
    148      -1.8511      2.00000
    149      -1.8152      2.00000
    150      -1.8152      2.00000
    151      -1.8064      2.00000
    152      -1.7872      2.00000
    153      -1.7407      2.00000
    154      -1.7406      2.00000
    155      -1.7255      2.00000
    156      -1.7255      2.00000
    157      -1.7142      2.00000
    158      -1.6923      2.00000
    159      -1.6922      2.00000
    160      -1.6752      2.00000
    161      -1.6653      2.00000
    162      -1.6556      2.00000
    163      -1.6026      2.00000
    164      -1.6026      2.00000
    165      -1.5876      2.00000
    166      -1.5875      2.00000
    167      -1.5712      2.00000
    168      -1.5699      2.00000
    169      -1.5699      2.00000
    170      -1.5583      2.00000
    171      -1.5354      2.00000
    172      -1.5029      2.00000
    173      -1.5029      2.00000
    174      -1.5019      2.00000
    175      -1.4771      2.00000
    176      -1.4677      2.00000
    177      -1.4677      2.00000
    178      -1.4587      2.00000
    179      -1.4464      2.00000
    180      -1.4464      2.00000
    181      -1.4004      2.00000
    182      -1.4001      2.00000
    183      -1.4001      2.00000
    184      -1.3881      2.00000
    185      -1.3558      2.00000
    186      -1.3558      2.00000
    187      -1.2418      2.00000
    188      -1.2417      2.00000
    189      -1.2390      2.00000
    190      -1.1980      2.00000
    191      -1.1980      2.00000
    192      -1.1803      2.00000
    193      -1.0596      2.00000
    194      -1.0596      2.00000
    195      -0.3199      2.00000
    196      -0.0021      2.00000
    197       0.0305      2.00000
    198       0.0306      2.00000
    199       0.0884      2.00000
    200       0.2362      2.00000
    201       0.2362      2.00000
    202       0.9343      0.00000
    203       0.9343      0.00000
    204       1.1147      0.00000
    205       2.0101      0.00000
    206       2.1368      0.00000
    207       2.1369      0.00000
    208       2.1642      0.00000
    209       2.2466      0.00000
    210       2.2466      0.00000
    211       2.8902      0.00000
    212       2.8902      0.00000
    213       3.4516      0.00000
    214       3.4862      0.00000
    215       3.4862      0.00000
    216       3.6436      0.00000
    217       4.0104      0.00000
    218       4.0105      0.00000
    219       4.0169      0.00000
    220       4.3320      0.00000
    221       5.0089      0.00000
    222       5.2993      0.00000
    223       5.3106      0.00000
    224       5.3106      0.00000
    225       5.3727      0.00000
    226       5.3728      0.00000
    227       5.5251      0.00000
    228       5.6102      0.00000
    229       5.6102      0.00000
    230       5.7064      0.00000
    231       5.7064      0.00000
    232       5.7701      0.00000
    233       5.8922      0.00000
    234       6.0676      0.00000
    235       6.9393      0.00000
    236       6.9733      0.00000
    237       6.9738      0.00000
    238       6.9916      0.00000
    239       7.0596      0.00000
    240       7.0605      0.00000
    241       7.0753      0.00000
    242       7.1768      0.00000
    243       7.1914      0.00000
    244       7.1957      0.00000
    245       7.2149      0.00000
    246       7.2241      0.00000
    247       7.3245      0.00000
    248       7.4568      0.00000
    249       7.4765      0.00000
    250       7.4837      0.00000
    251       7.6228      0.00000
    252       7.6731      0.00000

 k-point     2 :       0.1250   -0.0000    0.0000
  band No.  band energies     occupation 
      1     -12.4752      2.00000
      2      -8.1187      2.00000
      3      -6.9686      2.00000
      4      -6.2842      2.00000
      5      -6.1074      2.00000
      6      -6.0978      2.00000
      7      -6.0402      2.00000
      8      -5.9631      2.00000
      9      -5.9173      2.00000
     10      -5.8764      2.00000
     11      -5.8651      2.00000
     12      -5.6107      2.00000
     13      -5.5738      2.00000
     14      -5.5628      2.00000
     15      -5.5229      2.00000
     16      -5.4744      2.00000
     17      -5.4459      2.00000
     18      -5.2401      2.00000
     19      -5.2059      2.00000
     20      -5.1974      2.00000
     21      -5.1528      2.00000
     22      -5.1085      2.00000
     23      -5.1001      2.00000
     24      -5.0830      2.00000
     25      -5.0327      2.00000
     26      -5.0223      2.00000
     27      -4.9487      2.00000
     28      -4.9402      2.00000
     29      -4.9048      2.00000
     30      -4.8753      2.00000
     31      -4.8752      2.00000
     32      -4.8568      2.00000
     33      -4.8380      2.00000
     34      -4.8292      2.00000
     35      -4.8167      2.00000
     36      -4.7923      2.00000
     37      -4.7392      2.00000
     38      -4.7262      2.00000
     39      -4.6990      2.00000
     40      -4.6510      2.00000
     41      -4.6420      2.00000
     42      -4.4311      2.00000
     43      -4.4079      2.00000
     44      -4.3482      2.00000
     45      -4.3316      2.00000
     46      -4.3178      2.00000
     47      -4.2979      2.00000
     48      -4.2475      2.00000
     49      -4.2022      2.00000
     50      -4.1881      2.00000
     51      -4.1560      2.00000
     52      -4.1121      2.00000
     53      -4.1003      2.00000
     54      -4.0676      2.00000
     55      -4.0353      2.00000
     56      -3.8860      2.00000
     57      -3.8576      2.00000
     58      -3.8123      2.00000
     59      -3.7820      2.00000
     60      -3.7610      2.00000
     61      -3.7452      2.00000
     62      -3.7317      2.00000
     63      -3.7130      2.00000
     64      -3.6947      2.00000
     65      -3.6874      2.00000
     66      -3.6668      2.00000
     67      -3.6423      2.00000
     68      -3.6267      2.00000
     69      -3.6227      2.00000
     70      -3.5868      2.00000
     71      -3.5702      2.00000
     72      -3.5659      2.00000
     73      -3.5332      2.00000
     74      -3.5327      2.00000
     75      -3.5205      2.00000
     76      -3.5093      2.00000
     77      -3.4802      2.00000
     78      -3.4498      2.00000
     79      -3.4457      2.00000
     80      -3.4266      2.00000
     81      -3.4101      2.00000
     82      -3.3890      2.00000
     83      -3.3840      2.00000
     84      -3.3553      2.00000
     85      -3.3401      2.00000
     86      -3.3181      2.00000
     87      -3.3120      2.00000
     88      -3.2533      2.00000
     89      -3.2495      2.00000
     90      -3.2352      2.00000
     91      -3.2059      2.00000
     92      -3.1978      2.00000
     93      -3.1911      2.00000
     94      -3.1533      2.00000
     95      -3.1474      2.00000
     96      -3.0893      2.00000
     97      -3.0880      2.00000
     98      -2.9943      2.00000
     99      -2.9714      2.00000
    100      -2.9697      2.00000
    101      -2.8982      2.00000
    102      -2.8583      2.00000
    103      -2.8504      2.00000
    104      -2.8449      2.00000
    105      -2.8344      2.00000
    106      -2.8273      2.00000
    107      -2.7607      2.00000
    108      -2.7049      2.00000
    109      -2.7049      2.00000
    110      -2.6734      2.00000
    111      -2.6653      2.00000
    112      -2.6469      2.00000
    113      -2.6314      2.00000
    114      -2.6199      2.00000
    115      -2.5926      2.00000
    116      -2.5862      2.00000
    117      -2.5553      2.00000
    118      -2.5524      2.00000
    119      -2.5223      2.00000
    120      -2.5084      2.00000
    121      -2.4591      2.00000
    122      -2.4345      2.00000
    123      -2.3487      2.00000
    124      -2.3311      2.00000
    125      -2.3186      2.00000
    126      -2.2906      2.00000
    127      -2.2893      2.00000
    128      -2.2602      2.00000
    129      -2.2534      2.00000
    130      -2.2129      2.00000
    131      -2.2112      2.00000
    132      -2.1936      2.00000
    133      -2.1862      2.00000
    134      -2.1822      2.00000
    135      -2.0979      2.00000
    136      -2.0941      2.00000
    137      -2.0646      2.00000
    138      -2.0455      2.00000
    139      -2.0220      2.00000
    140      -2.0203      2.00000
    141      -1.9989      2.00000
    142      -1.9977      2.00000
    143      -1.9809      2.00000
    144      -1.9365      2.00000
    145      -1.9005      2.00000
    146      -1.8875      2.00000
    147      -1.8556      2.00000
    148      -1.8398      2.00000
    149      -1.8167      2.00000
    150      -1.7915      2.00000
    151      -1.7908      2.00000
    152      -1.7653      2.00000
    153      -1.7577      2.00000
    154      -1.7424      2.00000
[...]
  0.000   0.000   0.000   0.000   0.000   0.000   0.000   0.000   0.000   0.000   0.000   0.000   0.000   0.000   0.000   0.000
  0.000   0.000   0.000   0.000   0.000   0.000   0.000   0.000   0.000   0.000   0.000   0.000   0.000   0.000   0.000   0.000
  0.000   0.000   0.000   0.000   0.000   0.000   0.000   0.000   0.000   0.000   0.000   0.000   0.000   0.000   0.000   0.000
  0.000   0.000   0.000   0.000   0.000   0.000   0.000   0.000   0.000   0.000   0.000   0.000   0.000   0.000   0.000   0.000
  0.000   0.000   0.000   0.000   0.000   0.000   0.000   0.000   0.000   0.000   0.000   0.000   0.000   0.000   0.000   0.000
  0.000   0.000   0.000   0.000   0.000   0.000   0.000   0.000   0.000   0.000   1.000   0.000   0.000   0.000   0.000   0.000
  0.000   0.000   0.000   0.000   0.000   0.000   0.000   0.000   0.000   0.000   0.000   0.000   0.000   0.000   0.000   0.000
  0.000   0.000   0.000   0.000   0.000   0.000   0.000   0.000   0.000   0.000   0.000   0.000   0.000   0.000   0.000   0.000
  0.000   0.000   0.000   0.000   0.000   0.000   0.000   0.000   0.000   0.000   0.000   0.000   0.000   0.000   0.000   0.000
  0.000   0.000   0.000   0.000   0.000   0.000   0.000   0.000   0.000   0.000   0.000   0.000   0.000   0.000   0.000   0.000
  0.000   0.000   0.000   0.000   0.000   0.000   0.000   0.000   0.000   0.000   0.000   0.000   0.000   0.000   0.000   0.000
  0.000   0.000   0.000   0.000   0.000   0.000   0.000   0.000   0.000   0.000   0.000   0.000   0.000   0.000   0.000   0.000
  0.000   0.000   0.000   0.000   0.000   0.000   0.000   0.000   0.000   0.000   0.000   0.000   0.000   0.000   0.000   0.000


------------------------ aborting loop because EDIFF is reached ----------------------------------------





 total charge

# of ion       s       p       d       tot
------------------------------------------
    1        0.547   0.239   8.765   9.552
    2        0.544   0.241   8.764   9.549
    3        0.544   0.241   8.764   9.549
    4        0.544   0.241   8.764   9.549
    5        0.541   0.242   8.763   9.545
    6        0.544   0.241   8.764   9.549
    7        0.544   0.241   8.764   9.549
    8        0.544   0.241   8.764   9.549
    9        0.541   0.241   8.766   9.547
   10        0.519   0.308   8.771   9.598
   11        0.519   0.311   8.776   9.605
   12        0.519   0.308   8.771   9.598
   13        0.519   0.311   8.776   9.605
   14        0.519   0.311   8.776   9.605
   15        0.514   0.309   8.772   9.595
   16        0.519   0.308   8.771   9.598
   17        0.514   0.309   8.772   9.595
   18        0.514   0.309   8.772   9.595
   19        0.517   0.294   8.775   9.586
   20        0.559   0.342   8.745   9.647
   21        0.559   0.342   8.745   9.647
   22        0.509   0.308   8.773   9.590
   23        0.559   0.342   8.745   9.647
   24        0.509   0.308   8.773   9.590
   25        0.517   0.294   8.775   9.586
   26        0.517   0.294   8.775   9.586
   27        0.509   0.308   8.773   9.590
   28        0.542   0.224   8.757   9.523
   29        0.566   0.248   8.748   9.562
   30        0.566   0.248   8.748   9.562
   31        0.566   0.248   8.748   9.562
   32        0.566   0.248   8.748   9.562
   33        0.566   0.248   8.748   9.562
   34        0.566   0.248   8.748   9.562
   35        0.538   0.227   8.754   9.519
   36        0.669   0.653   4.286   5.608
   37        1.344   2.219   0.000   3.563
--------------------------------------------------
tot         20.790  12.600 311.001 344.391
 
    CHARGE:  cpu time    0.3332: real time    0.3333
    FORLOC:  cpu time    0.0101: real time    0.0101
    FORNL :  cpu time    1.4558: real time    1.4559
    STRESS:  cpu time    4.3500: real time    4.3501
    FORCOR:  cpu time    0.0428: real time    0.0429
    FORHAR:  cpu time    0.0165: real time    0.0166
    OFIELD:  cpu time    0.0002: real time    0.0002

  FORCE on cell =-STRESS in cart. coord.  units (eV):
  Direction    XX          YY          ZZ          XY          YZ          ZX
  --------------------------------------------------------------------------------------
  Alpha Z  1020.83890  1020.83890  1020.83890
  Ewald  117411.97846117411.97887************    -0.00032    -0.00009    -0.00014
  Hartree126000.35393126000.35394************     0.00001    -0.00002    -0.00004
  E(xc)   -1774.36492 -1774.36491 -1784.16437    -0.00000     0.00000     0.00000
  Local  ************************255793.30092     0.00187     0.00003     0.00003
  n-local   -90.76747   -46.33098   -45.36689    22.77242    -1.63568     1.43292
  augment  2369.42823  2369.42969  2388.99476    -0.00126     0.00001     0.00007
  Kinetic  5509.07059  5517.28161  5567.28931     5.60474     0.41067     0.10331
  Fock        0.00000     0.00000     0.00000     0.00000     0.00000     0.00000
  -------------------------------------------------------------------------------------
  Total     -19.58258   -19.58258     2.49595    -0.00000    -0.00000    -0.00000
  in kB     -21.01228   -21.01228     2.67818    -0.00000    -0.00000    -0.00000
  external pressure =      -13.12 kB  Pullay stress =        0.00 kB


 VOLUME and BASIS-vectors are now :
 -----------------------------------------------------------------------------
  energy-cutoff  :      500.00
  volume of cell :     1493.16
      direct lattice vectors                 reciprocal lattice vectors
     8.813512802  0.000000000  0.000000000     0.113462137 -0.065507406  0.000000000
     4.406756909  7.632725690  0.000000000     0.000000000  0.131014796  0.000000000
     0.000000000  0.000000000 22.196203232     0.000000000  0.000000000  0.045052750

  length of vectors
     8.813512802  8.813512802 22.196203232     0.131014796  0.131014796  0.045052750


 FORCES acting on ions
    electron-ion (+dipol)            ewald-force                    non-local-force                 convergence-correction
 -----------------------------------------------------------------------------------------------
   -.195E-04 -.161E-04 0.247E+04   0.520E-04 0.433E-04 -.247E+04   -.336E-17 0.240E-17 -.595E+00   -.201E-03 -.130E-03 -.194E+00
   0.706E+00 0.209E+00 0.247E+04   -.770E+00 -.196E+00 -.247E+04   -.360E-01 0.189E-01 -.317E+00   0.102E+00 -.315E-01 -.213E+00
   -.706E+00 0.209E+00 0.247E+04   0.770E+00 -.196E+00 -.247E+04   0.360E-01 0.189E-01 -.317E+00   -.102E+00 -.295E-01 -.212E+00
   0.534E+00 0.507E+00 0.247E+04   -.555E+00 -.569E+00 -.247E+04   -.168E-02 -.406E-01 -.317E+00   0.240E-01 0.104E+00 -.213E+00
   0.864E-05 -.232E-04 0.247E+04   0.951E-04 0.175E-05 -.247E+04   0.314E-17 -.323E-17 -.354E+00   0.430E-02 0.262E-02 -.222E+00
   -.534E+00 0.507E+00 0.247E+04   0.555E+00 -.569E+00 -.247E+04   0.168E-02 -.406E-01 -.317E+00   -.256E-01 0.105E+00 -.212E+00
   -.172E+00 -.715E+00 0.247E+04   0.215E+00 0.765E+00 -.247E+04   0.344E-01 0.218E-01 -.317E+00   -.766E-01 -.738E-01 -.212E+00
   0.172E+00 -.716E+00 0.247E+04   -.215E+00 0.765E+00 -.247E+04   -.344E-01 0.218E-01 -.317E+00   0.785E-01 -.749E-01 -.212E+00
   0.195E-04 -.416E-04 0.247E+04   0.166E-03 -.200E-04 -.247E+04   0.170E-17 -.101E-18 -.500E+00   -.464E-02 -.240E-02 -.171E+00
   0.737E+01 0.425E+01 0.814E+03   -.727E+01 -.420E+01 -.813E+03   -.258E+00 -.149E+00 -.423E+00   0.120E+00 0.691E-01 0.103E-01
   0.141E-04 0.306E+01 0.821E+03   0.148E-03 -.316E+01 -.821E+03   0.138E-08 0.208E-01 -.407E+00   0.379E-02 0.945E-02 0.108E+00
   -.737E+01 0.425E+01 0.814E+03   0.727E+01 -.420E+01 -.813E+03   0.258E+00 -.149E+00 -.423E+00   -.121E+00 0.706E-01 0.994E-02
   0.265E+01 -.153E+01 0.821E+03   -.274E+01 0.158E+01 -.821E+03   0.180E-01 -.104E-01 -.407E+00   0.104E-01 -.117E-02 0.108E+00
   -.265E+01 -.153E+01 0.821E+03   0.274E+01 0.158E+01 -.821E+03   -.180E-01 -.104E-01 -.407E+00   -.255E-02 -.161E-02 0.108E+00
   0.311E-04 0.541E+01 0.819E+03   0.236E-03 -.573E+01 -.819E+03   0.294E-08 0.442E-01 -.356E+00   -.239E-02 0.203E+00 0.560E-01
   -.214E-04 -.851E+01 0.814E+03   0.163E-03 0.840E+01 -.813E+03   0.198E-07 0.297E+00 -.423E+00   0.297E-03 -.140E+00 0.993E-02
   0.469E+01 -.271E+01 0.819E+03   -.496E+01 0.286E+01 -.819E+03   0.383E-01 -.221E-01 -.356E+00   0.175E+00 -.103E+00 0.560E-01
   -.469E+01 -.271E+01 0.819E+03   0.496E+01 0.286E+01 -.819E+03   -.383E-01 -.221E-01 -.356E+00   -.175E+00 -.101E+00 0.557E-01
   -.435E-04 0.281E+01 -.871E+03   0.551E-04 -.321E+01 0.870E+03   0.148E-08 0.223E-01 0.699E+00   -.254E-03 0.306E+00 0.282E+00
   0.153E+01 0.884E+00 -.828E+03   -.136E+01 -.786E+00 0.828E+03   -.852E+00 -.492E+00 -.662E+00   0.332E+00 0.192E+00 0.501E+00
   -.153E+01 0.884E+00 -.828E+03   0.136E+01 -.786E+00 0.828E+03   0.852E+00 -.492E+00 -.662E+00   -.331E+00 0.194E+00 0.501E+00
   -.888E+01 0.513E+01 -.848E+03   0.831E+01 -.480E+01 0.847E+03   0.555E+00 -.320E+00 0.813E+00   0.812E-01 -.512E-01 0.219E+00
   -.104E-04 -.177E+01 -.828E+03   0.139E-03 0.157E+01 0.828E+03   0.655E-07 0.984E+00 -.662E+00   0.180E-02 -.384E+00 0.501E+00
   0.888E+01 0.513E+01 -.848E+03   -.831E+01 -.480E+01 0.847E+03   -.555E+00 -.320E+00 0.813E+00   -.881E-01 -.508E-01 0.219E+00
   -.243E+01 -.140E+01 -.871E+03   0.278E+01 0.160E+01 0.870E+03   -.193E-01 -.111E-01 0.699E+00   -.263E+00 -.152E+00 0.281E+00
   0.243E+01 -.140E+01 -.871E+03   -.278E+01 0.160E+01 0.870E+03   0.193E-01 -.111E-01 0.699E+00   0.265E+00 -.153E+00 0.282E+00
   0.111E-04 -.103E+02 -.848E+03   0.197E-03 0.959E+01 0.847E+03   0.427E-07 0.641E+00 0.813E+00   -.428E-02 0.959E-01 0.219E+00
   -.136E-04 -.125E-04 -.243E+04   0.300E-04 0.331E-04 0.243E+04   -.229E-17 -.108E-17 0.463E+00   0.131E-02 0.739E-03 0.426E+00
   0.274E+02 0.435E+02 -.244E+04   -.268E+02 -.428E+02 0.243E+04   -.104E+01 -.141E+01 0.607E+00   0.209E+00 0.279E+00 0.237E+00
   -.274E+02 0.435E+02 -.244E+04   0.268E+02 -.428E+02 0.243E+04   0.104E+01 -.141E+01 0.607E+00   -.215E+00 0.281E+00 0.237E+00
   0.514E+02 0.199E+01 -.244E+04   -.505E+02 -.181E+01 0.243E+04   -.174E+01 -.201E+00 0.607E+00   0.346E+00 0.414E-01 0.237E+00
   -.514E+02 0.199E+01 -.244E+04   0.505E+02 -.181E+01 0.243E+04   0.174E+01 -.201E+00 0.607E+00   -.353E+00 0.425E-01 0.236E+00
   0.240E+02 -.455E+02 -.244E+04   -.237E+02 0.446E+02 0.243E+04   -.697E+00 0.161E+01 0.607E+00   0.136E+00 -.326E+00 0.237E+00
   -.240E+02 -.455E+02 -.244E+04   0.237E+02 0.446E+02 0.243E+04   0.697E+00 0.161E+01 0.607E+00   -.140E+00 -.327E+00 0.236E+00
   0.348E-04 -.299E-04 -.244E+04   0.140E-03 -.489E-04 0.243E+04   0.572E-17 -.681E-17 0.550E+00   -.357E-02 -.177E-02 0.304E+00
   -.552E-05 -.111E-05 -.112E+04   0.638E-04 0.589E-05 0.113E+04   0.134E-17 0.157E-17 -.902E-01   0.137E-02 0.809E-03 0.137E+00
   0.106E-03 -.587E-04 -.133E+04   0.224E-04 0.139E-05 0.135E+04   -.275E-17 -.102E-17 -.210E+02   0.190E-02 0.115E-02 -.238E+00
 -----------------------------------------------------------------------------------------------
   -.697E-03 -.834E-03 0.174E+02   -.292E-13 -.577E-13 -.909E-12   -.107E-15 0.438E-15 -.207E+02   -.154E-01 -.828E-02 0.372E+01
 
 
 POSITION                                       TOTAL-FORCE (eV/Angst)
 -----------------------------------------------------------------------------------
      0.00000      0.00000      5.28038        -0.000000      0.000000     -0.103371
      2.93784      0.00000      5.28038         0.002203      0.000719     -0.061218
      5.87568      0.00000      5.28038        -0.002203      0.000719     -0.061218
      1.46892      2.54424      5.28038         0.001724      0.001548     -0.061218
      4.40676      2.54424      5.28038         0.000000      0.000000     -0.085162
      7.34459      2.54424      5.28038        -0.001724      0.001548     -0.061218
      2.93784      5.08848      5.28038        -0.000478     -0.002267     -0.061218
      5.87568      5.08848      5.28038         0.000478     -0.002267     -0.061218
      8.81351      5.08848      5.28038         0.000000      0.000000     -0.062999
      1.46892      0.84808      7.67911        -0.039662     -0.022899      0.123360
      4.40676      0.84808      7.67911        -0.000000     -0.075207      0.033193
      7.34459      0.84808      7.67911         0.039662     -0.022899      0.123360
      2.93784      3.39232      7.67911        -0.065131      0.037603      0.033193
      5.87568      3.39232      7.67911         0.065131      0.037603      0.033193
      8.81351      3.39232      7.67911        -0.000000     -0.065646      0.137757
      4.40676      5.93656      7.67911         0.000000      0.045797      0.123360
      7.34459      5.93656      7.67911        -0.056851      0.032823      0.137757
     10.28243      5.93656      7.67911         0.056851      0.032823      0.137757
      8.81351      1.70807     10.10081        -0.000000     -0.072404     -0.017466
      2.93151      1.69251     10.04012        -0.349853     -0.201988     -0.342576
      5.88200      1.69251     10.04012         0.349853     -0.201988     -0.342576
     10.26425      4.25090     10.06644         0.067036     -0.038703      0.018140
      4.40676      4.24770     10.04012         0.000000      0.403976     -0.342576
      7.36277      4.25090     10.06644        -0.067036     -0.038703      0.018140
     11.74104      6.77869     10.10081         0.062704      0.036202     -0.017466
      5.88599      6.77869     10.10081        -0.062704      0.036202     -0.017466
      8.81351      6.76365     10.06644         0.000000      0.077406      0.018140
      0.00000      0.00000     12.49922         0.000000      0.000000     -0.067914
      2.99894      0.10048     12.55446        -0.201776     -0.383419     -0.272523
      5.81457      0.10048     12.55446         0.201775     -0.383419     -0.272523
      1.58649      2.54692     12.55446        -0.432939      0.016967     -0.272523
      7.22703      2.54692     12.55446         0.432939      0.016967     -0.272523
      2.99430      4.98533     12.55446        -0.231163      0.366452     -0.272523
      5.81921      4.98533     12.55446         0.231163      0.366452     -0.272523
      8.81351      5.08848     12.49869        -0.000000      0.000000      0.054568
      4.40676      2.54424     12.18560        -0.000000      0.000000      2.414893
      4.40676      2.54424     13.92005         0.000000      0.000000     -0.004798
 -----------------------------------------------------------------------------------
    total drift:                               -0.016088     -0.009114      0.382997


--------------------------------------------------------------------------------------------------------



  FREE ENERGIE OF THE ION-ELECTRON SYSTEM (eV)
  ---------------------------------------------------
  free  energy   TOTEN  =      -125.58244869 eV

  energy  without entropy=     -125.58244869  energy(sigma->0) =     -125.58244869
 


--------------------------------------------------------------------------------------------------------


    POTLOK:  cpu time    0.0522: real time    0.0522


--------------------------------------------------------------------------------------------------------


 stress matrix after NEB project (eV)
    -19.58258     -0.00000     -0.00000
     -0.00000    -19.58258      0.00000
     -0.00000     -0.00000      2.49595
  FORCES: max atom, RMS     0.004798    0.000789
  FORCE total and by dimension    0.004798    0.004798
  Stress total and by dimension   27.806200   19.582582
     LOOP+:  cpu time   69.6099: real time   69.6207
 -----------------------------------------------------------------------------
|                                                                             |
|           W    W    AA    RRRRR   N    N  II  N    N   GGGG   !!!           |
|           W    W   A  A   R    R  NN   N  II  NN   N  G    G  !!!           |
|           W    W  A    A  R    R  N N  N  II  N N  N  G       !!!           |
|           W WW W  AAAAAA  RRRRR   N  N N  II  N  N N  G  GGG   !            |
|           WW  WW  A    A  R   R   N   NN  II  N   NN  G    G                |
|           W    W  A    A  R    R  N    N  II  N    N   GGGG   !!!           |
|                                                                             |
|     Tetrahedron method does not include variations of the Fermi             |
|     occupations, so forces and stress will be inaccurate. We suggest        |
|     using a different smearing scheme ISMEAR = 1 or 2 for metals in         |
|     relaxations.                                                            |
|                                                                             |
 -----------------------------------------------------------------------------

    4ORBIT:  cpu time    0.0000: real time    0.0000



 total charge

# of ion       s       p       d       tot
------------------------------------------
    1        0.547   0.239   8.765   9.552
    2        0.544   0.241   8.764   9.549
    3        0.544   0.241   8.764   9.549
    4        0.544   0.241   8.764   9.549
    5        0.541   0.242   8.763   9.545
    6        0.544   0.241   8.764   9.549
    7        0.544   0.241   8.764   9.549
    8        0.544   0.241   8.764   9.549
    9        0.541   0.241   8.766   9.547
   10        0.519   0.308   8.771   9.598
   11        0.519   0.311   8.776   9.605
   12        0.519   0.308   8.771   9.598
   13        0.519   0.311   8.776   9.605
   14        0.519   0.311   8.776   9.605
   15        0.514   0.309   8.772   9.595
   16        0.519   0.308   8.771   9.598
   17        0.514   0.309   8.772   9.595
   18        0.514   0.309   8.772   9.595
   19        0.517   0.294   8.775   9.586
   20        0.559   0.342   8.745   9.647
   21        0.559   0.342   8.745   9.647
   22        0.509   0.308   8.773   9.590
   23        0.559   0.342   8.745   9.647
   24        0.509   0.308   8.773   9.590
   25        0.517   0.294   8.775   9.586
   26        0.517   0.294   8.775   9.586
   27        0.509   0.308   8.773   9.590
   28        0.542   0.224   8.757   9.523
   29        0.566   0.248   8.748   9.562
   30        0.566   0.248   8.748   9.562
   31        0.566   0.248   8.748   9.562
   32        0.566   0.248   8.748   9.562
   33        0.566   0.248   8.748   9.562
   34        0.566   0.248   8.748   9.562
   35        0.538   0.227   8.754   9.519
   36        0.669   0.653   4.286   5.608
   37        1.344   2.219   0.000   3.563
--------------------------------------------------
tot         20.790  12.600 311.001 344.391
 
 BZINTS: Fermi energy:    0.674753;  396.000000 electrons
         Band energy:-0.123924E+04;  BLOECHL correction:   -0.048293

 total amount of memory used by VASP MPI-rank0   122665. kBytes
=======================================================================

   base      :      30000. kBytes
   nonlr-proj:      14280. kBytes
   fftplans  :       4330. kBytes
   grid      :      17879. kBytes
   one-center:        575. kBytes
   wavefun   :      55601. kBytes
 
  
  
 General timing and accounting informations for this job:
 ========================================================
  
                  Total CPU time used (sec):       76.961
                            User time (sec):       74.119
                          System time (sec):        2.842
                         Elapsed time (sec):       77.420
  
                   Maximum memory used (kb):      382052.
                   Average memory used (kb):          N/A
  
                          Minor page faults:        74129
                          Major page faults:            0
                 Voluntary context switches:         4795
