PROCAR new format
# of k-points:   10         # of bands:  252         # of ions:   37

 k-point     1 :    0.00000000 0.00000000 0.00000000     weight = 0.01562500

band     1 # energy  -12.47530202 # occ.  2.00000000
 
ion      s      p      d    tot
    1  0.000  0.000  0.000  0.000
    2  0.000  0.000  0.000  0.000
    3  0.000  0.000  0.000  0.000
    4  0.000  0.000  0.000  0.000
    5  0.000  0.000  0.000  0.000
    6  0.000  0.000  0.000  0.000
    7  0.000  0.000  0.000  0.000
    8  0.000  0.000  0.000  0.000
    9  0.000  0.000  0.000  0.000
   10  0.000  0.000  0.000  0.000
   11  0.000  0.000  0.000  0.000
   12  0.000  0.000  0.000  0.000
   13  0.000  0.000  0.000  0.000
   14  0.000  0.000  0.000  0.000
   15  0.000  0.000  0.000  0.000
   16  0.000  0.000  0.000  0.000
   17  0.000  0.000  0.000  0.000
   18  0.000  0.000  0.000  0.000
   19  0.000  0.000  0.000  0.000
   20  0.001  0.000  0.001  0.002
   21  0.001  0.000  0.001  0.002
   22  0.000  0.000  0.000  0.000
   23  0.001  0.000  0.001  0.002
   24  0.000  0.000  0.000  0.000
   25  0.000  0.000  0.000  0.000
   26  0.000  0.000  0.000  0.000
   27  0.000  0.000  0.000  0.000
   28  0.000  0.000  0.000  0.000
   29  0.000  0.000  0.000  0.001
   30  0.000  0.000  0.000  0.001
   31  0.000  0.000  0.000  0.001
   32  0.000  0.000  0.000  0.001
   33  0.000  0.000  0.000  0.001
   34  0.000  0.000  0.000  0.001
   35  0.000  0.000  0.000  0.000
   36  0.092  0.063  0.167  0.321
   37  0.609  0.020  0.000  0.629
tot    0.704  0.084  0.171  0.959
 
band     2 # energy   -8.16925034 # occ.  2.00000000
 
ion      s      p      d    tot
    1  0.006  0.001  0.000  0.007
    2  0.006  0.001  0.000  0.007
    3  0.006  0.001  0.000  0.007
    4  0.006  0.001  0.000  0.007
    5  0.006  0.001  0.000  0.007
    6  0.006  0.000  0.000  0.007
    7  0.006  0.001  0.000  0.007
    8  0.006  0.001  0.000  0.007
    9  0.006  0.000  0.000  0.006
   10  0.025  0.000  0.000  0.025
   11  0.027  0.000  0.000  0.027
   12  0.025  0.000  0.000  0.025
   13  0.027  0.000  0.000  0.027
   14  0.027  0.000  0.000  0.027
   15  0.024  0.000  0.000  0.025
   16  0.025  0.000  0.000  0.025
   17  0.024  0.000  0.000  0.025
   18  0.024  0.000  0.000  0.025
   19  0.022  0.000  0.000  0.023
   20  0.030  0.000  0.000  0.030
   21  0.030  0.000  0.000  0.030
   22  0.024  0.000  0.000  0.025
   23  0.030  0.000  0.000  0.030
   24  0.024  0.000  0.000  0.025
   25  0.022  0.000  0.000  0.023
   26  0.022  0.000  0.000  0.023
   27  0.024  0.000  0.000  0.025
   28  0.005  0.000  0.000  0.005
   29  0.005  0.001  0.000  0.006
   30  0.005  0.001  0.000  0.006
   31  0.005  0.001  0.000  0.006
   32  0.005  0.001  0.000  0.006
   33  0.005  0.001  0.000  0.006
   34  0.005  0.001  0.000  0.006
   35  0.005  0.000  0.000  0.005
   36  0.008  0.003  0.001  0.012
   37  0.003  0.000  0.000  0.003
tot    0.565  0.014  0.005  0.585
 
band     3 # energy   -7.01739408 # occ.  2.00000000
 
ion      s      p      d    tot
    1  0.016  0.000  0.001  0.018
    2  0.016  0.000  0.001  0.018
    3  0.016  0.000  0.001  0.018
    4  0.016  0.000  0.001  0.018
    5  0.016  0.000  0.001  0.017
    6  0.016  0.000  0.001  0.018
    7  0.016  0.000  0.001  0.018
    8  0.016  0.000  0.001  0.018
    9  0.017  0.001  0.001  0.018
   10  0.012  0.001  0.003  0.016
   11  0.011  0.001  0.003  0.015
   12  0.012  0.001  0.003  0.016
   13  0.011  0.001  0.003  0.015
   14  0.011  0.001  0.003  0.015
   15  0.012  0.001  0.002  0.016
   16  0.012  0.001  0.003  0.016
   17  0.012  0.001  0.002  0.016
   18  0.012  0.001  0.002  0.016
   19  0.010  0.001  0.003  0.014
   20  0.016  0.002  0.002  0.020
   21  0.016  0.002  0.002  0.020
   22  0.011  0.001  0.003  0.015
   23  0.016  0.002  0.002  0.020
   24  0.011  0.001  0.003  0.015
   25  0.010  0.001  0.003  0.014
   26  0.010  0.001  0.003  0.014
   27  0.011  0.001  0.003  0.015
   28  0.012  0.000  0.001  0.013
   29  0.015  0.001  0.001  0.017
   30  0.015  0.001  0.001  0.017
   31  0.015  0.001  0.001  0.017
   32  0.015  0.001  0.001  0.017
   33  0.015  0.001  0.001  0.017
   34  0.015  0.001  0.001  0.017
   35  0.012  0.000  0.001  0.013
   36  0.021  0.003  0.005  0.030
   37  0.004  0.000  0.000  0.004
tot    0.500  0.036  0.071  0.607
 
band     4 # energy   -6.09279577 # occ.  2.00000000
 
ion      s      p      d    tot
    1  0.000  0.000  0.003  0.004
    2  0.002  0.000  0.003  0.005
    3  0.002  0.000  0.003  0.005
    4  0.002  0.000  0.003  0.005
    5  0.001  0.000  0.001  0.001
    6  0.002  0.000  0.003  0.005
    7  0.002  0.000  0.003  0.005
    8  0.002  0.000  0.003  0.005
    9  0.013  0.001  0.000  0.013
   10  0.005  0.001  0.011  0.017
   11  0.003  0.002  0.005  0.010
   12  0.005  0.001  0.011  0.017
   13  0.003  0.002  0.005  0.010
   14  0.003  0.002  0.005  0.010
   15  0.010  0.001  0.003  0.014
   16  0.005  0.001  0.011  0.017
   17  0.010  0.001  0.003  0.014
   18  0.010  0.001  0.003  0.014
   19  0.001  0.001  0.021  0.023
   20  0.029  0.002  0.032  0.063
   21  0.029  0.002  0.032  0.063
   22  0.005  0.002  0.009  0.015
   23  0.029  0.002  0.032  0.063
   24  0.005  0.002  0.009  0.015
   25  0.001  0.001  0.021  0.023
   26  0.001  0.001  0.021  0.023
   27  0.005  0.002  0.009  0.015
   28  0.013  0.000  0.004  0.017
   29  0.013  0.000  0.011  0.024
   30  0.013  0.000  0.011  0.024
   31  0.013  0.000  0.011  0.024
   32  0.013  0.000  0.011  0.024
   33  0.013  0.000  0.011  0.024
   34  0.013  0.000  0.011  0.024
   35  0.027  0.000  0.005  0.033
   36  0.000  0.006  0.026  0.032
   37  0.001  0.002  0.000  0.003
tot    0.306  0.034  0.366  0.706
 
band     5 # energy   -6.08433084 # occ.  2.00000000
 
ion      s      p      d    tot
    1  0.007  0.000  0.000  0.008
    2  0.002  0.000  0.003  0.005
    3  0.002  0.000  0.003  0.005
    4  0.002  0.000  0.003  0.005
    5  0.006  0.000  0.001  0.008
    6  0.002  0.000  0.003  0.005
    7  0.002  0.000  0.003  0.005
    8  0.002  0.000  0.003  0.005
    9  0.001  0.001  0.003  0.004
   10  0.001  0.001  0.013  0.015
   11  0.004  0.001  0.004  0.009
   12  0.001  0.001  0.013  0.015
   13  0.004  0.001  0.004  0.009
   14  0.004  0.001  0.004  0.009
   15  0.013  0.001  0.004  0.019
   16  0.001  0.001  0.013  0.015
   17  0.013  0.001  0.004  0.019
   18  0.013  0.001  0.004  0.019
   19  0.012  0.000  0.015  0.028
   20  0.003  0.001  0.034  0.038
   21  0.003  0.001  0.034  0.038
   22  0.022  0.002  0.008  0.032
   23  0.003  0.001  0.034  0.038
   24  0.022  0.002  0.008  0.032
   25  0.012  0.000  0.015  0.028
   26  0.012  0.000  0.015  0.028
   27  0.022  0.002  0.008  0.032
   28  0.002  0.000  0.012  0.014
   29  0.012  0.001  0.015  0.028
   30  0.012  0.001  0.015  0.028
   31  0.012  0.001  0.015  0.028
   32  0.012  0.001  0.015  0.028
   33  0.012  0.001  0.015  0.028
   34  0.012  0.001  0.015  0.028
   35  0.002  0.001  0.009  0.011
   36  0.045  0.003  0.017  0.065
   37  0.004  0.000  0.000  0.004
tot    0.312  0.032  0.389  0.732
 
band     6 # energy   -6.07805088 # occ.  2.00000000
 
ion      s      p      d    tot
    1  0.000  0.000  0.007  0.007
    2  0.002  0.001  0.002  0.005
    3  0.000  0.000  0.003  0.003
    4  0.003  0.001  0.002  0.005
    5  0.000  0.001  0.005  0.006
    6  0.005  0.001  0.003  0.009
    7  0.001  0.000  0.003  0.003
    8  0.005  0.001  0.003  0.009
    9  0.000  0.000  0.001  0.001
   10  0.034  0.002  0.006  0.042
   11  0.010  0.003  0.021  0.033
   12  0.009  0.001  0.022  0.032
   13  0.012  0.003  0.020  0.035
   14  0.043  0.001  0.011  0.055
   15  0.000  0.002  0.006  0.008
   16  0.008  0.001  0.023  0.031
   17  0.000  0.002  0.006  0.008
   18  0.001  0.000  0.009  0.010
   19  0.003  0.003  0.005  0.011
   20  0.074  0.001  0.014  0.089
   21  0.020  0.002  0.034  0.056
   22  0.004  0.001  0.021  0.026
   23  0.017  0.002  0.035  0.054
   24  0.015  0.002  0.005  0.021
   25  0.011  0.000  0.013  0.024
   26  0.003  0.003  0.005  0.011
   27  0.004  0.001  0.022  0.026
   28  0.000  0.000  0.001  0.002
   29  0.007  0.002  0.006  0.015
   30  0.002  0.001  0.003  0.006
   31  0.007  0.002  0.006  0.015
   32  0.002  0.001  0.003  0.006
   33  0.002  0.001  0.003  0.006
   34  0.002  0.000  0.003  0.005
   35  0.000  0.000  0.004  0.004
   36  0.000  0.004  0.015  0.020
   37  0.000  0.000  0.000  0.000
tot    0.305  0.045  0.348  0.698
 
band     7 # energy   -6.07804517 # occ.  2.00000000
 
ion      s      p      d    tot
    1  0.000  0.000  0.007  0.007
    2  0.003  0.001  0.003  0.006
    3  0.005  0.001  0.002  0.008
    4  0.003  0.001  0.003  0.006
    5  0.000  0.001  0.005  0.006
    6  0.000  0.000  0.002  0.003
    7  0.005  0.001  0.002  0.008
    8  0.000  0.000  0.002  0.003
    9  0.000  0.000  0.001  0.001
   10  0.000  0.000  0.028  0.028
   11  0.033  0.001  0.014  0.048
   12  0.025  0.002  0.012  0.038
   13  0.032  0.002  0.014  0.047
   14  0.000  0.004  0.024  0.027
   15  0.000  0.001  0.008  0.010
   16  0.026  0.002  0.011  0.039
   17  0.000  0.001  0.008  0.009
   18  0.000  0.003  0.004  0.007
   19  0.009  0.001  0.011  0.020
   20  0.000  0.002  0.041  0.043
   21  0.054  0.001  0.022  0.077
   22  0.011  0.001  0.011  0.023
   23  0.057  0.001  0.021  0.079
   24  0.000  0.001  0.027  0.027
   25  0.000  0.004  0.002  0.007
   26  0.008  0.001  0.010  0.020
   27  0.012  0.001  0.010  0.023
   28  0.000  0.000  0.001  0.002
   29  0.000  0.000  0.002  0.003
   30  0.005  0.001  0.005  0.011
   31  0.000  0.000  0.003  0.003
   32  0.005  0.001  0.005  0.012
   33  0.006  0.001  0.005  0.012
   34  0.006  0.001  0.005  0.012
   35  0.000  0.000  0.004  0.004
   36  0.000  0.004  0.015  0.020
   37  0.000  0.000  0.000  0.000
tot    0.305  0.045  0.348  0.698
 
band     8 # energy   -6.00917434 # occ.  2.00000000
 
ion      s      p      d    tot
    1  0.023  0.000  0.018  0.042
    2  0.018  0.000  0.019  0.037
    3  0.018  0.000  0.019  0.037
    4  0.018  0.000  0.019  0.037
    5  0.014  0.000  0.020  0.034
    6  0.018  0.000  0.019  0.037
    7  0.018  0.000  0.019  0.037
    8  0.018  0.000  0.019  0.037
    9  0.019  0.000  0.017  0.036
   10  0.004  0.000  0.029  0.034
   11  0.013  0.001  0.024  0.037
   12  0.004  0.000  0.029  0.034
   13  0.013  0.001  0.024  0.037
   14  0.013  0.001  0.024  0.037
   15  0.008  0.001  0.025  0.033
   16  0.004  0.000  0.029  0.034
   17  0.008  0.001  0.025  0.033
   18  0.008  0.001  0.025  0.033
   19  0.003  0.000  0.005  0.008
   20  0.001  0.000  0.013  0.014
   21  0.001  0.000  0.013  0.014
   22  0.000  0.000  0.007  0.007
   23  0.001  0.000  0.013  0.014
   24  0.000  0.000  0.007  0.007
   25  0.003  0.000  0.005  0.008
   26  0.003  0.000  0.005  0.008
   27  0.000  0.000  0.007  0.007
   28  0.000  0.000  0.000  0.001
   29  0.000  0.000  0.000  0.000
   30  0.000  0.000  0.000  0.000
   31  0.000  0.000  0.000  0.000
   32  0.000  0.000  0.000  0.000
   33  0.000  0.000  0.000  0.000
   34  0.000  0.000  0.000  0.000
   35  0.000  0.000  0.000  0.000
   36  0.000  0.000  0.001  0.001
   37  0.000  0.000  0.000  0.000
tot    0.252  0.008  0.479  0.739
 
band     9 # energy   -5.96303433 # occ.  2.00000000
 
ion      s      p      d    tot
    1  0.007  0.001  0.001  0.010
    2  0.000  0.001  0.006  0.007
    3  0.000  0.001  0.006  0.007
    4  0.000  0.001  0.006  0.007
    5  0.017  0.002  0.001  0.019
    6  0.000  0.001  0.006  0.007
    7  0.000  0.001  0.006  0.007
    8  0.000  0.001  0.006  0.007
    9  0.000  0.000  0.002  0.002
   10  0.026  0.003  0.001  0.030
   11  0.018  0.001  0.024  0.043
   12  0.026  0.003  0.001  0.029
   13  0.018  0.001  0.024  0.043
   14  0.018  0.001  0.024  0.043
   15  0.000  0.001  0.021  0.023
   16  0.026  0.003  0.001  0.029
   17  0.000  0.001  0.021  0.023
   18  0.000  0.001  0.021  0.023
   19  0.020  0.002  0.006  0.028
   20  0.005  0.002  0.021  0.029
   21  0.005  0.002  0.021  0.029
   22  0.011  0.000  0.026  0.037
   23  0.005  0.002  0.021  0.029
   24  0.011  0.000  0.026  0.037
   25  0.020  0.002  0.006  0.028
   26  0.020  0.002  0.006  0.028
   27  0.011  0.000  0.026  0.037
   28  0.016  0.001  0.000  0.017
   29  0.001  0.000  0.004  0.005
   30  0.001  0.000  0.004  0.005
   31  0.001  0.000  0.004  0.005
   32  0.001  0.000  0.004  0.005
   33  0.001  0.000  0.004  0.005
   34  0.001  0.000  0.004  0.005
   35  0.002  0.001  0.005  0.007
   36  0.000  0.000  0.000  0.000
   37  0.000  0.000  0.000  0.000
tot    0.291  0.038  0.369  0.698
 
band    10 # energy   -5.94375641 # occ.  2.00000000
 
ion      s      p      d    tot
    1  0.000  0.001  0.003  0.004
    2  0.004  0.001  0.004  0.009
    3  0.008  0.001  0.004  0.013
    4  0.004  0.001  0.004  0.009
    5  0.000  0.000  0.005  0.005
    6  0.001  0.000  0.003  0.004
    7  0.008  0.001  0.004  0.013
    8  0.001  0.000  0.003  0.004
    9  0.000  0.001  0.011  0.012
   10  0.023  0.000  0.016  0.039
   11  0.003  0.001  0.022  0.026
   12  0.005  0.004  0.006  0.015
   13  0.002  0.001  0.022  0.026
   14  0.010  0.001  0.007  0.019
   15  0.016  0.001  0.032  0.049
   16  0.006  0.003  0.006  0.016
   17  0.015  0.001  0.032  0.049
   18  0.063  0.002  0.006  0.070
   19  0.010  0.001  0.027  0.038
   20  0.000  0.001  0.016  0.017
   21  0.000  0.002  0.013  0.015
   22  0.009  0.003  0.016  0.028
   23  0.000  0.002  0.013  0.015
   24  0.037  0.001  0.011  0.049
   25  0.038  0.002  0.003  0.043
   26  0.009  0.001  0.028  0.038
   27  0.010  0.003  0.016  0.028
   28  0.000  0.000  0.006  0.006
   29  0.000  0.000  0.002  0.002
   30  0.002  0.000  0.002  0.004
   31  0.000  0.000  0.002  0.002
   32  0.004  0.001  0.003  0.008
   33  0.002  0.000  0.002  0.004
   34  0.004  0.001  0.003  0.008
   35  0.000  0.001  0.004  0.005
   36  0.000  0.000  0.001  0.001
   37  0.000  0.000  0.000  0.000
tot    0.295  0.041  0.357  0.694
 
band    11 # energy   -5.94373211 # occ.  2.00000000
 
ion      s      p      d    tot
    1  0.000  0.001  0.003  0.004
    2  0.005  0.001  0.003  0.009
    3  0.000  0.000  0.004  0.004
    4  0.004  0.001  0.003  0.008
    5  0.000  0.000  0.005  0.005
    6  0.008  0.001  0.004  0.013
    7  0.000  0.000  0.004  0.004
    8  0.008  0.001  0.004  0.013
    9  0.000  0.001  0.011  0.012
   10  0.000  0.005  0.003  0.008
   11  0.008  0.001  0.012  0.021
   12  0.017  0.001  0.013  0.032
   13  0.008  0.001  0.012  0.021
   14  0.000  0.001  0.027  0.028
   15  0.046  0.001  0.015  0.063
   16  0.017  0.001  0.013  0.031
   17  0.048  0.001  0.014  0.064
   18  0.000  0.001  0.041  0.042
   19  0.028  0.002  0.012  0.041
   20  0.000  0.002  0.012  0.014
   21  0.000  0.001  0.015  0.017
   22  0.028  0.001  0.013  0.042
   23  0.000  0.001  0.015  0.016
   24  0.000  0.004  0.017  0.021
   25  0.000  0.000  0.036  0.036
   26  0.029  0.002  0.011  0.041
   27  0.027  0.001  0.013  0.042
   28  0.000  0.000  0.006  0.006
   29  0.004  0.001  0.002  0.007
   30  0.002  0.000  0.002  0.005
   31  0.004  0.001  0.002  0.007
   32  0.000  0.000  0.001  0.002
   33  0.002  0.000  0.002  0.005
   34  0.000  0.000  0.001  0.002
   35  0.000  0.001  0.004  0.005
   36  0.000  0.000  0.001  0.001
   37  0.000  0.000  0.000  0.000
tot    0.295  0.041  0.357  0.694
 
band    12 # energy   -5.58504326 # occ.  2.00000000
 
ion      s      p      d    tot
    1  0.000  0.001  0.004  0.005
    2  0.001  0.001  0.005  0.007
    3  0.009  0.001  0.004  0.015
    4  0.001  0.001  0.005  0.007
    5  0.000  0.001  0.009  0.011
    6  0.004  0.001  0.003  0.008
    7  0.009  0.001  0.004  0.015
    8  0.004  0.001  0.003  0.008
    9  0.000  0.000  0.007  0.007
   10  0.000  0.001  0.050  0.051
   11  0.020  0.001  0.019  0.040
   12  0.008  0.001  0.018  0.027
   13  0.020  0.001  0.019  0.040
   14  0.000  0.000  0.045  0.045
   15  0.002  0.000  0.018  0.020
   16  0.008  0.001  0.018  0.027
   17  0.002  0.000  0.018  0.020
   18  0.000  0.001  0.011  0.013
   19  0.002  0.000  0.016  0.018
   20  0.000  0.000  0.093  0.093
   21  0.012  0.001  0.028  0.042
   22  0.004  0.001  0.019  0.024
   23  0.012  0.001  0.029  0.042
   24  0.000  0.001  0.028  0.029
   25  0.000  0.001  0.010  0.010
   26  0.002  0.000  0.016  0.018
   27  0.004  0.001  0.019  0.024
   28  0.000  0.000  0.007  0.007
   29  0.005  0.001  0.006  0.012
   30  0.009  0.001  0.006  0.016
   31  0.005  0.001  0.006  0.012
   32  0.000  0.000  0.003  0.004
   33  0.009  0.001  0.006  0.016
   34  0.000  0.000  0.003  0.004
   35  0.000  0.000  0.002  0.002
   36  0.000  0.004  0.013  0.017
   37  0.000  0.000  0.000  0.000
tot    0.151  0.031  0.571  0.754
 
band    13 # energy   -5.58499880 # occ.  2.00000000
 
ion      s      p      d    tot
    1  0.000  0.001  0.004  0.005
    2  0.008  0.001  0.003  0.013
    3  0.000  0.000  0.004  0.005
    4  0.008  0.001  0.003  0.013
    5  0.000  0.001  0.009  0.011
    6  0.006  0.001  0.005  0.012
    7  0.000  0.000  0.004  0.005
    8  0.006  0.001  0.005  0.012
    9  0.000  0.000  0.007  0.007
   10  0.011  0.001  0.007  0.019
   11  0.007  0.000  0.036  0.043
   12  0.003  0.001  0.039  0.043
   13  0.007  0.000  0.036  0.044
   14  0.026  0.001  0.010  0.038
   15  0.001  0.001  0.013  0.015
   16  0.003  0.001  0.039  0.043
   17  0.001  0.001  0.013  0.015
   18  0.002  0.000  0.021  0.023
   19  0.001  0.000  0.012  0.013
   20  0.016  0.002  0.007  0.025
   21  0.004  0.000  0.071  0.076
   22  0.001  0.001  0.025  0.027
   23  0.004  0.000  0.071  0.076
   24  0.005  0.002  0.015  0.022
   25  0.003  0.000  0.018  0.021
   26  0.001  0.000  0.012  0.013
   27  0.001  0.001  0.025  0.027
   28  0.000  0.000  0.007  0.007
   29  0.004  0.001  0.004  0.010
   30  0.001  0.000  0.004  0.006
   31  0.004  0.001  0.004  0.009
   32  0.009  0.001  0.007  0.017
   33  0.001  0.000  0.004  0.006
   34  0.009  0.001  0.007  0.017
   35  0.000  0.000  0.002  0.002
   36  0.000  0.004  0.013  0.017
   37  0.000  0.000  0.000  0.000
tot    0.151  0.031  0.571  0.754
 
band    14 # energy   -5.57432397 # occ.  2.00000000
 
ion      s      p      d    tot
    1  0.011  0.001  0.000  0.013
    2  0.000  0.001  0.005  0.005
    3  0.000  0.001  0.005  0.005
    4  0.000  0.001  0.005  0.005
    5  0.007  0.001  0.002  0.009
    6  0.000  0.001  0.005  0.005
    7  0.000  0.001  0.005  0.005
    8  0.000  0.001  0.005  0.005
    9  0.000  0.000  0.001  0.001
   10  0.003  0.001  0.013  0.017
   11  0.010  0.001  0.015  0.026
   12  0.003  0.001  0.013  0.017
   13  0.010  0.001  0.015  0.026
   14  0.010  0.001  0.014  0.026
   15  0.002  0.000  0.033  0.035
   16  0.003  0.001  0.013  0.017
   17  0.002  0.000  0.033  0.035
   18  0.002  0.000  0.032  0.034
   19  0.011  0.002  0.003  0.016
   20  0.001  0.001  0.048  0.050
   21  0.001  0.001  0.048  0.050
   22  0.006  0.000  0.038  0.044
   23  0.001  0.001  0.048  0.050
   24  0.006  0.000  0.038  0.044
   25  0.011  0.002  0.003  0.016
   26  0.011  0.002  0.003  0.016
   27  0.006  0.000  0.038  0.044
   28  0.020  0.002  0.000  0.022
   29  0.000  0.001  0.013  0.014
   30  0.000  0.001  0.013  0.014
   31  0.000  0.001  0.013  0.014
   32  0.000  0.001  0.013  0.014
   33  0.000  0.001  0.013  0.014
   34  0.000  0.001  0.013  0.014
   35  0.000  0.000  0.003  0.004
   36  0.018  0.003  0.001  0.022
   37  0.001  0.000  0.000  0.001
tot    0.158  0.034  0.563  0.755
 
band    15 # energy   -5.53477695 # occ.  2.00000000
 
ion      s      p      d    tot
    1  0.002  0.001  0.003  0.006
    2  0.000  0.001  0.009  0.010
    3  0.000  0.001  0.009  0.010
    4  0.000  0.001  0.009  0.010
    5  0.010  0.001  0.000  0.011
    6  0.000  0.001  0.009  0.010
    7  0.000  0.001  0.009  0.010
    8  0.000  0.001  0.009  0.010
    9  0.021  0.002  0.001  0.025
   10  0.008  0.000  0.039  0.047
   11  0.001  0.000  0.036  0.038
   12  0.008  0.000  0.039  0.047
   13  0.001  0.000  0.036  0.038
   14  0.001  0.000  0.036  0.038
   15  0.016  0.002  0.006  0.025
   16  0.008  0.000  0.039  0.047
   17  0.016  0.002  0.006  0.025
   18  0.016  0.002  0.006  0.025
   19  0.001  0.000  0.027  0.029
   20  0.005  0.002  0.033  0.040
   21  0.005  0.002  0.033  0.040
   22  0.005  0.001  0.015  0.021
   23  0.005  0.002  0.033  0.040
   24  0.005  0.001  0.015  0.021
   25  0.001  0.000  0.027  0.029
   26  0.001  0.000  0.027  0.029
   27  0.005  0.001  0.015  0.021
   28  0.001  0.000  0.001  0.002
   29  0.000  0.000  0.004  0.004
   30  0.000  0.000  0.004  0.004
   31  0.000  0.000  0.004  0.004
   32  0.000  0.000  0.004  0.004
   33  0.000  0.000  0.004  0.004
   34  0.000  0.000  0.004  0.004
   35  0.008  0.001  0.002  0.011
   36  0.009  0.004  0.001  0.015
   37  0.002  0.001  0.000  0.003
tot    0.165  0.036  0.556  0.756
 
band    16 # energy   -5.46935082 # occ.  2.00000000
 
ion      s      p      d    tot
    1  0.000  0.001  0.013  0.014
    2  0.008  0.001  0.004  0.013
    3  0.001  0.000  0.005  0.006
    4  0.008  0.001  0.004  0.013
    5  0.000  0.000  0.006  0.006
    6  0.005  0.001  0.005  0.010
    7  0.001  0.000  0.005  0.006
    8  0.005  0.001  0.005  0.010
    9  0.000  0.001  0.005  0.006
   10  0.000  0.001  0.032  0.033
   11  0.000  0.001  0.020  0.021
   12  0.010  0.000  0.021  0.031
   13  0.000  0.001  0.020  0.021
   14  0.000  0.001  0.016  0.017
   15  0.010  0.002  0.019  0.031
   16  0.010  0.000  0.021  0.031
   17  0.010  0.002  0.019  0.031
   18  0.000  0.000  0.060  0.060
   19  0.014  0.001  0.020  0.035
   20  0.000  0.002  0.024  0.026
   21  0.000  0.001  0.027  0.028
   22  0.016  0.001  0.020  0.037
   23  0.000  0.001  0.027  0.028
   24  0.000  0.001  0.028  0.029
   25  0.000  0.000  0.067  0.067
   26  0.014  0.001  0.020  0.035
   27  0.016  0.001  0.020  0.037
   28  0.000  0.001  0.005  0.006
   29  0.005  0.001  0.004  0.010
   30  0.000  0.001  0.006  0.007
   31  0.005  0.001  0.004  0.010
   32  0.005  0.001  0.003  0.009
   33  0.000  0.001  0.006  0.007
   34  0.005  0.001  0.003  0.009
   35  0.000  0.001  0.008  0.009
   36  0.000  0.000  0.004  0.004
   37  0.000  0.000  0.000  0.000
tot    0.147  0.028  0.575  0.751
 
band    17 # energy   -5.46932725 # occ.  2.00000000
 
ion      s      p      d    tot
    1  0.000  0.001  0.013  0.014
    2  0.001  0.001  0.005  0.006
    3  0.009  0.001  0.004  0.014
    4  0.001  0.001  0.005  0.006
    5  0.000  0.000  0.006  0.006
    6  0.004  0.001  0.004  0.009
    7  0.008  0.001  0.004  0.014
    8  0.004  0.001  0.004  0.009
    9  0.000  0.001  0.005  0.006
   10  0.013  0.000  0.017  0.030
   11  0.000  0.001  0.017  0.018
   12  0.003  0.000  0.028  0.032
   13  0.000  0.001  0.017  0.018
   14  0.000  0.001  0.022  0.023
   15  0.003  0.001  0.046  0.050
   16  0.003  0.000  0.028  0.032
   17  0.003  0.001  0.046  0.050
   18  0.013  0.002  0.006  0.021
   19  0.005  0.001  0.051  0.056
   20  0.000  0.000  0.028  0.028
   21  0.000  0.002  0.025  0.026
   22  0.005  0.001  0.025  0.031
   23  0.000  0.002  0.025  0.026
   24  0.022  0.001  0.017  0.040
   25  0.019  0.001  0.004  0.024
   26  0.005  0.001  0.051  0.057
   27  0.005  0.001  0.025  0.031
   28  0.000  0.001  0.005  0.006
   29  0.002  0.001  0.005  0.008
   30  0.007  0.001  0.002  0.010
   31  0.002  0.001  0.005  0.008
   32  0.002  0.001  0.006  0.008
   33  0.007  0.001  0.002  0.010
   34  0.002  0.001  0.006  0.008
   35  0.000  0.001  0.008  0.009
   36  0.000  0.000  0.004  0.004
   37  0.000  0.000  0.000  0.000
tot    0.147  0.028  0.575  0.751
 
band    18 # energy   -5.21909596 # occ.  2.00000000
 
ion      s      p      d    tot
    1  0.000  0.000  0.016  0.016
    2  0.003  0.001  0.006  0.010
    3  0.001  0.000  0.008  0.010
    4  0.003  0.001  0.006  0.010
    5  0.000  0.001  0.013  0.014
    6  0.008  0.001  0.007  0.016
    7  0.001  0.000  0.008  0.010
    8  0.008  0.001  0.007  0.016
    9  0.000  0.001  0.004  0.005
   10  0.000  0.001  0.023  0.024
   11  0.000  0.000  0.044  0.045
   12  0.000  0.000  0.010  0.010
   13  0.000  0.000  0.044  0.045
   14  0.002  0.000  0.042  0.044
   15  0.000  0.000  0.007  0.008
   16  0.000  0.000  0.010  0.010
   17  0.000  0.000  0.007  0.008
   18  0.001  0.000  0.011  0.012
   19  0.000  0.000  0.007  0.007
   20  0.002  0.000  0.112  0.114
   21  0.000  0.001  0.068  0.069
   22  0.000  0.000  0.020  0.021
   23  0.000  0.001  0.068  0.069
   24  0.002  0.000  0.013  0.015
   25  0.000  0.000  0.016  0.016
   26  0.000  0.000  0.007  0.007
   27  0.000  0.000  0.020  0.021
   28  0.000  0.001  0.002  0.003
   29  0.011  0.001  0.025  0.037
   30  0.003  0.000  0.014  0.017
   31  0.011  0.001  0.025  0.037
   32  0.002  0.001  0.010  0.013
   33  0.003  0.000  0.014  0.017
   34  0.002  0.001  0.010  0.013
   35  0.000  0.000  0.018  0.018
   36  0.000  0.004  0.023  0.027
   37  0.000  0.000  0.000  0.000
tot    0.066  0.020  0.747  0.832
 
band    19 # energy   -5.21906487 # occ.  2.00000000
 
ion      s      p      d    tot
    1  0.000  0.000  0.016  0.016
    2  0.005  0.000  0.008  0.014
    3  0.007  0.001  0.006  0.014
    4  0.005  0.000  0.008  0.014
    5  0.000  0.001  0.013  0.014
    6  0.000  0.000  0.007  0.008
    7  0.007  0.001  0.006  0.014
    8  0.000  0.000  0.007  0.008
    9  0.000  0.001  0.004  0.005
   10  0.000  0.000  0.006  0.006
   11  0.001  0.000  0.043  0.045
   12  0.000  0.000  0.019  0.019
   13  0.001  0.000  0.043  0.045
   14  0.000  0.000  0.045  0.045
   15  0.000  0.000  0.010  0.010
   16  0.000  0.000  0.019  0.019
   17  0.000  0.000  0.010  0.010
   18  0.000  0.000  0.006  0.006
   19  0.000  0.000  0.013  0.013
   20  0.000  0.001  0.053  0.054
   21  0.001  0.001  0.097  0.099
   22  0.001  0.000  0.016  0.017
   23  0.001  0.001  0.097  0.099
   24  0.000  0.000  0.022  0.023
   25  0.000  0.000  0.005  0.005
   26  0.000  0.000  0.013  0.013
   27  0.001  0.000  0.016  0.017
   28  0.000  0.001  0.002  0.003
   29  0.000  0.000  0.007  0.008
   30  0.008  0.001  0.018  0.027
   31  0.000  0.000  0.007  0.008
   32  0.008  0.001  0.023  0.032
   33  0.008  0.001  0.018  0.027
   34  0.008  0.001  0.023  0.032
   35  0.000  0.000  0.018  0.018
   36  0.000  0.004  0.023  0.027
   37  0.000  0.000  0.000  0.000
tot    0.066  0.020  0.747  0.832
 
band    20 # energy   -5.21007807 # occ.  2.00000000
 
ion      s      p      d    tot
    1  0.011  0.000  0.004  0.016
    2  0.000  0.001  0.015  0.016
    3  0.000  0.001  0.015  0.016
    4  0.000  0.001  0.015  0.016
    5  0.002  0.000  0.001  0.004
    6  0.000  0.001  0.015  0.016
    7  0.000  0.001  0.015  0.016
    8  0.000  0.001  0.015  0.016
    9  0.022  0.001  0.002  0.025
   10  0.001  0.000  0.014  0.016
   11  0.000  0.000  0.017  0.017
   12  0.001  0.000  0.014  0.016
   13  0.000  0.000  0.017  0.017
   14  0.000  0.000  0.017  0.017
   15  0.000  0.000  0.030  0.031
   16  0.001  0.000  0.014  0.016
   17  0.000  0.000  0.030  0.031
   18  0.000  0.000  0.031  0.031
   19  0.000  0.000  0.028  0.029
   20  0.000  0.000  0.035  0.036
   21  0.000  0.000  0.036  0.036
   22  0.000  0.000  0.030  0.030
   23  0.000  0.000  0.036  0.036
   24  0.000  0.000  0.030  0.030
   25  0.000  0.000  0.028  0.029
   26  0.000  0.000  0.028  0.029
   27  0.000  0.000  0.030  0.030
   28  0.001  0.000  0.013  0.014
   29  0.000  0.001  0.023  0.025
   30  0.000  0.001  0.024  0.025
   31  0.000  0.001  0.023  0.025
   32  0.000  0.001  0.023  0.025
   33  0.000  0.001  0.024  0.025
   34  0.000  0.001  0.023  0.025
   35  0.019  0.001  0.000  0.020
   36  0.012  0.000  0.013  0.025
   37  0.000  0.000  0.000  0.000
tot    0.075  0.017  0.731  0.823
 
band    21 # energy   -5.15144530 # occ.  2.00000000
 
ion      s      p      d    tot
    1  0.001  0.000  0.000  0.001
    2  0.000  0.000  0.007  0.007
    3  0.000  0.000  0.007  0.007
    4  0.000  0.000  0.007  0.007
    5  0.002  0.000  0.009  0.010
    6  0.000  0.000  0.007  0.007
    7  0.000  0.000  0.007  0.007
    8  0.000  0.000  0.007  0.007
    9  0.001  0.000  0.008  0.009
   10  0.000  0.000  0.015  0.016
   11  0.000  0.000  0.036  0.036
   12  0.000  0.000  0.015  0.016
   13  0.000  0.000  0.036  0.036
   14  0.000  0.000  0.036  0.036
   15  0.000  0.000  0.032  0.033
   16  0.000  0.000  0.015  0.016
   17  0.000  0.000  0.032  0.033
   18  0.000  0.000  0.032  0.033
   19  0.000  0.000  0.024  0.024
   20  0.001  0.000  0.053  0.054
   21  0.001  0.000  0.053  0.054
   22  0.001  0.000  0.032  0.033
   23  0.001  0.000  0.053  0.054
   24  0.001  0.000  0.032  0.033
   25  0.000  0.000  0.024  0.024
   26  0.000  0.000  0.024  0.024
   27  0.001  0.000  0.032  0.033
   28  0.019  0.000  0.005  0.024
   29  0.000  0.000  0.021  0.022
   30  0.000  0.000  0.021  0.022
   31  0.000  0.000  0.021  0.022
   32  0.000  0.000  0.021  0.022
   33  0.000  0.000  0.021  0.022
   34  0.000  0.000  0.021  0.022
   35  0.011  0.000  0.006  0.017
   36  0.006  0.003  0.003  0.011