PROCAR new format
# of k-points:   10         # of bands:  252         # of ions:   39

 k-point     1 :    0.00000000 0.00000000 0.00000000     weight = 0.01562500

band     1 # energy  -24.47706497 # occ.  2.00000000
 
ion      s      p      d    tot
    1  0.000  0.000  0.000  0.000
    2  0.000  0.000  0.000  0.000
    3  0.000  0.000  0.000  0.000
    4  0.000  0.000  0.000  0.000
    5  0.000  0.000  0.000  0.000
    6  0.000  0.000  0.000  0.000
    7  0.000  0.000  0.000  0.000
    8  0.000  0.000  0.000  0.000
    9  0.000  0.000  0.000  0.000
   10  0.000  0.000  0.000  0.000
   11  0.000  0.000  0.000  0.000
   12  0.000  0.000  0.000  0.000
   13  0.000  0.000  0.000  0.000
   14  0.000  0.000  0.000  0.000
   15  0.000  0.000  0.000  0.000
   16  0.000  0.000  0.000  0.000
   17  0.000  0.000  0.000  0.000
   18  0.000  0.000  0.000  0.000
   19  0.000  0.000  0.000  0.000
   20  0.000  0.000  0.000  0.000
   21  0.000  0.000  0.000  0.000
   22  0.000  0.000  0.000  0.000
   23  0.000  0.000  0.000  0.000
   24  0.000  0.000  0.000  0.000
   25  0.000  0.000  0.000  0.000
   26  0.000  0.000  0.000  0.000
   27  0.000  0.000  0.000  0.000
   28  0.000  0.000  0.000  0.000
   29  0.000  0.000  0.000  0.000
   30  0.000  0.000  0.000  0.000
   31  0.000  0.000  0.000  0.000
   32  0.000  0.000  0.000  0.000
   33  0.000  0.000  0.000  0.000
   34  0.000  0.000  0.000  0.000
   35  0.000  0.000  0.000  0.000
   36  0.000  0.000  0.000  0.001
   37  0.084  0.062  0.000  0.145
   38  0.724  0.010  0.000  0.733
   39  0.058  0.012  0.000  0.070
tot    0.865  0.084  0.000  0.949
 
band     2 # energy  -15.08703735 # occ.  2.00000000
 
ion      s      p      d    tot
    1  0.000  0.000  0.000  0.000
    2  0.000  0.000  0.000  0.000
    3  0.000  0.000  0.000  0.000
    4  0.000  0.000  0.000  0.000
    5  0.000  0.000  0.000  0.000
    6  0.000  0.000  0.000  0.000
    7  0.000  0.000  0.000  0.000
    8  0.000  0.000  0.000  0.000
    9  0.000  0.000  0.000  0.000
   10  0.000  0.000  0.000  0.000
   11  0.000  0.000  0.000  0.000
   12  0.000  0.000  0.000  0.000
   13  0.000  0.000  0.000  0.000
   14  0.000  0.000  0.000  0.000
   15  0.000  0.000  0.000  0.000
   16  0.000  0.000  0.000  0.000
   17  0.000  0.000  0.000  0.000
   18  0.000  0.000  0.000  0.000
   19  0.000  0.000  0.000  0.000
   20  0.000  0.000  0.000  0.000
   21  0.000  0.000  0.000  0.000
   22  0.000  0.000  0.000  0.000
   23  0.000  0.000  0.000  0.000
   24  0.000  0.000  0.000  0.000
   25  0.000  0.000  0.000  0.000
   26  0.000  0.000  0.000  0.000
   27  0.000  0.000  0.000  0.000
   28  0.000  0.000  0.000  0.000
   29  0.000  0.000  0.000  0.000
   30  0.000  0.000  0.000  0.000
   31  0.000  0.000  0.000  0.000
   32  0.000  0.000  0.000  0.000
   33  0.000  0.000  0.000  0.000
   34  0.000  0.000  0.000  0.000
   35  0.000  0.000  0.000  0.000
   36  0.003  0.003  0.005  0.011
   37  0.157  0.050  0.000  0.207
   38  0.021  0.527  0.000  0.548
   39  0.203  0.033  0.000  0.236
tot    0.385  0.613  0.005  1.003
 
band     3 # energy   -8.52915061 # occ.  2.00000000
 
ion      s      p      d    tot
    1  0.005  0.000  0.000  0.005
    2  0.005  0.000  0.000  0.005
    3  0.005  0.000  0.000  0.005
    4  0.005  0.000  0.000  0.005
    5  0.005  0.000  0.000  0.005
    6  0.005  0.000  0.000  0.005
    7  0.005  0.000  0.000  0.005
    8  0.005  0.000  0.000  0.005
    9  0.004  0.000  0.000  0.005
   10  0.020  0.000  0.000  0.021
   11  0.021  0.000  0.000  0.021
   12  0.020  0.000  0.000  0.021
   13  0.021  0.000  0.000  0.021
   14  0.021  0.000  0.000  0.021
   15  0.019  0.000  0.000  0.020
   16  0.020  0.000  0.000  0.021
   17  0.019  0.000  0.000  0.020
   18  0.019  0.000  0.000  0.020
   19  0.020  0.000  0.000  0.021
   20  0.028  0.000  0.001  0.029
   21  0.028  0.000  0.001  0.029
   22  0.020  0.000  0.000  0.021
   23  0.028  0.000  0.001  0.029
   24  0.020  0.000  0.000  0.021
   25  0.020  0.000  0.000  0.021
   26  0.020  0.000  0.000  0.021
   27  0.020  0.000  0.000  0.021
   28  0.005  0.000  0.000  0.005
   29  0.006  0.000  0.000  0.006
   30  0.006  0.000  0.000  0.006
   31  0.006  0.000  0.000  0.006
   32  0.006  0.000  0.000  0.006
   33  0.006  0.000  0.000  0.006
   34  0.006  0.000  0.000  0.006
   35  0.004  0.000  0.000  0.005
   36  0.044  0.006  0.049  0.100
   37  0.029  0.030  0.000  0.058
   38  0.002  0.009  0.000  0.010
   39  0.002  0.000  0.000  0.003
tot    0.550  0.053  0.054  0.656
 
band     4 # energy   -8.06493210 # occ.  2.00000000
 
ion      s      p      d    tot
    1  0.003  0.000  0.000  0.004
    2  0.004  0.000  0.000  0.004
    3  0.004  0.000  0.000  0.004
    4  0.004  0.000  0.000  0.004
    5  0.003  0.000  0.000  0.004
    6  0.004  0.000  0.000  0.004
    7  0.004  0.000  0.000  0.004
    8  0.004  0.000  0.000  0.004
    9  0.004  0.000  0.000  0.004
   10  0.008  0.000  0.001  0.009
   11  0.009  0.000  0.000  0.009
   12  0.008  0.000  0.001  0.009
   13  0.009  0.000  0.000  0.009
   14  0.009  0.000  0.000  0.009
   15  0.010  0.000  0.000  0.010
   16  0.008  0.000  0.001  0.009
   17  0.010  0.000  0.000  0.010
   18  0.010  0.000  0.000  0.010
   19  0.002  0.000  0.000  0.003
   20  0.000  0.001  0.004  0.006
   21  0.000  0.001  0.004  0.006
   22  0.003  0.000  0.000  0.003
   23  0.000  0.001  0.004  0.006
   24  0.003  0.000  0.000  0.003
   25  0.002  0.000  0.000  0.003
   26  0.002  0.000  0.000  0.003
   27  0.003  0.000  0.000  0.003
   28  0.000  0.000  0.000  0.000
   29  0.000  0.000  0.001  0.001
   30  0.000  0.000  0.001  0.001
   31  0.000  0.000  0.001  0.001
   32  0.000  0.000  0.001  0.001
   33  0.000  0.000  0.001  0.001
   34  0.000  0.000  0.001  0.001
   35  0.000  0.000  0.000  0.000
   36  0.105  0.061  0.259  0.424
   37  0.149  0.144  0.000  0.293
   38  0.009  0.038  0.000  0.047
   39  0.010  0.001  0.000  0.011
tot    0.405  0.253  0.281  0.939
 
band     5 # energy   -7.23027668 # occ.  2.00000000
 
ion      s      p      d    tot
    1  0.000  0.000  0.000  0.000
    2  0.000  0.000  0.000  0.000
    3  0.000  0.000  0.000  0.000
    4  0.000  0.000  0.000  0.000
    5  0.000  0.000  0.000  0.000
    6  0.000  0.000  0.000  0.000
    7  0.000  0.000  0.000  0.000
    8  0.000  0.000  0.000  0.000
    9  0.000  0.000  0.000  0.000
   10  0.000  0.000  0.000  0.000
   11  0.000  0.000  0.000  0.000
   12  0.000  0.000  0.000  0.000
   13  0.000  0.000  0.000  0.000
   14  0.000  0.000  0.000  0.000
   15  0.000  0.000  0.000  0.000
   16  0.000  0.000  0.000  0.000
   17  0.000  0.000  0.000  0.000
   18  0.000  0.000  0.000  0.000
   19  0.000  0.000  0.000  0.000
   20  0.000  0.000  0.000  0.000
   21  0.000  0.000  0.000  0.000
   22  0.000  0.000  0.000  0.000
   23  0.000  0.000  0.000  0.000
   24  0.000  0.000  0.000  0.000
   25  0.000  0.000  0.000  0.000
   26  0.000  0.000  0.000  0.000
   27  0.000  0.000  0.000  0.000
   28  0.000  0.000  0.000  0.000
   29  0.001  0.000  0.001  0.002
   30  0.000  0.000  0.000  0.000
   31  0.001  0.000  0.001  0.002
   32  0.001  0.000  0.001  0.002
   33  0.000  0.000  0.000  0.000
   34  0.001  0.000  0.001  0.002
   35  0.000  0.000  0.000  0.000
   36  0.000  0.003  0.029  0.032
   37  0.000  0.123  0.000  0.123
   38  0.000  0.519  0.000  0.519
   39  0.000  0.007  0.000  0.007
tot    0.003  0.654  0.034  0.691
 
band     6 # energy   -7.23009771 # occ.  2.00000000
 
ion      s      p      d    tot
    1  0.000  0.000  0.000  0.000
    2  0.000  0.000  0.000  0.000
    3  0.000  0.000  0.000  0.000
    4  0.000  0.000  0.000  0.000
    5  0.000  0.000  0.000  0.000
    6  0.000  0.000  0.000  0.000
    7  0.000  0.000  0.000  0.000
    8  0.000  0.000  0.000  0.000
    9  0.000  0.000  0.000  0.000
   10  0.000  0.000  0.000  0.000
   11  0.000  0.000  0.000  0.000
   12  0.000  0.000  0.000  0.000
   13  0.000  0.000  0.000  0.000
   14  0.000  0.000  0.000  0.000
   15  0.000  0.000  0.000  0.000
   16  0.000  0.000  0.000  0.000
   17  0.000  0.000  0.000  0.000
   18  0.000  0.000  0.000  0.000
   19  0.000  0.000  0.000  0.000
   20  0.000  0.000  0.000  0.000
   21  0.000  0.000  0.000  0.000
   22  0.000  0.000  0.000  0.000
   23  0.000  0.000  0.000  0.000
   24  0.000  0.000  0.000  0.000
   25  0.000  0.000  0.000  0.000
   26  0.000  0.000  0.000  0.000
   27  0.000  0.000  0.000  0.000
   28  0.000  0.000  0.000  0.000
   29  0.000  0.000  0.001  0.001
   30  0.001  0.000  0.001  0.002
   31  0.000  0.000  0.001  0.001
   32  0.000  0.000  0.000  0.001
   33  0.001  0.000  0.001  0.002
   34  0.000  0.000  0.000  0.001
   35  0.000  0.000  0.000  0.000
   36  0.000  0.003  0.029  0.032
   37  0.000  0.123  0.000  0.123
   38  0.000  0.519  0.000  0.519
   39  0.000  0.007  0.000  0.007
tot    0.003  0.654  0.034  0.691
 
band     7 # energy   -7.20058917 # occ.  2.00000000
 
ion      s      p      d    tot
    1  0.017  0.000  0.001  0.019
    2  0.016  0.000  0.001  0.017
    3  0.016  0.000  0.001  0.017
    4  0.016  0.000  0.001  0.017
    5  0.015  0.000  0.001  0.017
    6  0.016  0.000  0.001  0.017
    7  0.016  0.000  0.001  0.017
    8  0.016  0.000  0.001  0.017
    9  0.015  0.000  0.001  0.017
   10  0.009  0.001  0.002  0.012
   11  0.008  0.002  0.002  0.012
   12  0.009  0.001  0.002  0.012
   13  0.008  0.002  0.002  0.012
   14  0.008  0.002  0.002  0.012
   15  0.006  0.002  0.003  0.011
   16  0.009  0.001  0.002  0.012
   17  0.006  0.002  0.003  0.011
   18  0.006  0.002  0.003  0.011
   19  0.017  0.001  0.004  0.022
   20  0.011  0.001  0.005  0.017
   21  0.011  0.001  0.005  0.017
   22  0.020  0.001  0.004  0.024
   23  0.011  0.001  0.005  0.017
   24  0.020  0.001  0.004  0.024
   25  0.017  0.001  0.004  0.022
   26  0.017  0.001  0.004  0.022
   27  0.020  0.001  0.004  0.024
   28  0.015  0.001  0.000  0.016
   29  0.012  0.001  0.001  0.013
   30  0.012  0.001  0.001  0.013
   31  0.012  0.001  0.001  0.013
   32  0.012  0.001  0.001  0.013
   33  0.012  0.001  0.001  0.013
   34  0.012  0.001  0.001  0.013
   35  0.015  0.001  0.000  0.016
   36  0.000  0.009  0.034  0.043
   37  0.013  0.011  0.000  0.025
   38  0.001  0.002  0.000  0.003
   39  0.001  0.000  0.000  0.001
tot    0.469  0.054  0.109  0.632
 
band     8 # energy   -6.33398340 # occ.  2.00000000
 
ion      s      p      d    tot
    1  0.010  0.000  0.022  0.032
    2  0.017  0.000  0.017  0.034
    3  0.017  0.000  0.017  0.034
    4  0.017  0.000  0.017  0.034
    5  0.011  0.000  0.015  0.026
    6  0.017  0.000  0.017  0.034
    7  0.017  0.000  0.017  0.034
    8  0.017  0.000  0.017  0.034
    9  0.035  0.000  0.012  0.047
   10  0.012  0.001  0.020  0.033
   11  0.015  0.002  0.015  0.032
   12  0.012  0.001  0.020  0.032
   13  0.015  0.002  0.015  0.032
   14  0.015  0.002  0.015  0.032
   15  0.000  0.001  0.023  0.023
   16  0.012  0.001  0.020  0.032
   17  0.000  0.001  0.023  0.023
   18  0.000  0.001  0.023  0.023
   19  0.000  0.001  0.005  0.006
   20  0.007  0.001  0.005  0.013
   21  0.007  0.001  0.005  0.013
   22  0.003  0.001  0.001  0.005
   23  0.007  0.001  0.005  0.013
   24  0.003  0.001  0.001  0.005
   25  0.000  0.001  0.005  0.006
   26  0.000  0.001  0.005  0.006
   27  0.003  0.001  0.001  0.005
   28  0.006  0.000  0.001  0.006
   29  0.004  0.000  0.003  0.006
   30  0.004  0.000  0.003  0.006
   31  0.004  0.000  0.003  0.006
   32  0.004  0.000  0.003  0.006
   33  0.004  0.000  0.003  0.006
   34  0.004  0.000  0.003  0.006
   35  0.008  0.000  0.001  0.009
   36  0.000  0.002  0.001  0.003
   37  0.000  0.000  0.000  0.000
   38  0.000  0.000  0.000  0.000
   39  0.000  0.000  0.000  0.000
tot    0.307  0.022  0.374  0.703
 
band     9 # energy   -6.31169692 # occ.  2.00000000
 
ion      s      p      d    tot
    1  0.000  0.000  0.009  0.009
    2  0.004  0.001  0.004  0.008
    3  0.007  0.001  0.003  0.011
    4  0.004  0.001  0.004  0.008
    5  0.000  0.001  0.007  0.008
    6  0.000  0.000  0.003  0.004
    7  0.007  0.001  0.003  0.011
    8  0.000  0.000  0.003  0.003
    9  0.000  0.000  0.001  0.001
   10  0.000  0.000  0.038  0.038
   11  0.038  0.001  0.015  0.055
   12  0.029  0.002  0.013  0.043
   13  0.039  0.001  0.014  0.055
   14  0.000  0.004  0.024  0.027
   15  0.001  0.001  0.011  0.013
   16  0.028  0.002  0.013  0.043
   17  0.001  0.001  0.011  0.013
   18  0.000  0.003  0.005  0.008
   19  0.008  0.001  0.011  0.020
   20  0.000  0.002  0.034  0.036
   21  0.046  0.002  0.015  0.062
   22  0.012  0.001  0.010  0.024
   23  0.045  0.002  0.015  0.062
   24  0.000  0.000  0.027  0.027
   25  0.000  0.004  0.003  0.007
   26  0.008  0.001  0.011  0.020
   27  0.012  0.001  0.011  0.024
   28  0.000  0.000  0.001  0.001
   29  0.000  0.000  0.002  0.003
   30  0.004  0.001  0.003  0.008
   31  0.000  0.000  0.002  0.003
   32  0.005  0.001  0.003  0.009
   33  0.004  0.001  0.003  0.008
   34  0.005  0.001  0.003  0.009
   35  0.000  0.000  0.004  0.004
   36  0.000  0.002  0.007  0.010
   37  0.000  0.000  0.000  0.000
   38  0.000  0.000  0.000  0.000
   39  0.000  0.000  0.000  0.000
tot    0.307  0.044  0.345  0.696
 
band    10 # energy   -6.31167675 # occ.  2.00000000
 
ion      s      p      d    tot
    1  0.000  0.000  0.009  0.009
    2  0.003  0.001  0.003  0.007
    3  0.001  0.000  0.003  0.004
    4  0.003  0.001  0.003  0.007
    5  0.000  0.001  0.007  0.008
    6  0.007  0.001  0.004  0.011
    7  0.001  0.000  0.003  0.004
    8  0.007  0.001  0.004  0.012
    9  0.000  0.000  0.001  0.001
   10  0.038  0.002  0.004  0.044
   11  0.013  0.003  0.020  0.037
   12  0.009  0.001  0.030  0.040
   13  0.013  0.003  0.021  0.036
   14  0.052  0.001  0.012  0.064
   15  0.000  0.003  0.007  0.010
   16  0.010  0.001  0.029  0.040
   17  0.000  0.003  0.007  0.010
   18  0.001  0.000  0.013  0.014
   19  0.003  0.003  0.006  0.012
   20  0.061  0.001  0.009  0.071
   21  0.015  0.002  0.028  0.045
   22  0.004  0.001  0.022  0.026
   23  0.016  0.002  0.028  0.045
   24  0.016  0.002  0.005  0.023
   25  0.011  0.000  0.014  0.025
   26  0.003  0.003  0.006  0.011
   27  0.004  0.001  0.021  0.026
   28  0.000  0.000  0.001  0.001
   29  0.006  0.001  0.003  0.011
   30  0.002  0.001  0.003  0.005
   31  0.006  0.001  0.003  0.011
   32  0.001  0.000  0.002  0.004
   33  0.002  0.001  0.003  0.005
   34  0.001  0.000  0.002  0.004
   35  0.000  0.000  0.004  0.004
   36  0.000  0.002  0.007  0.010
   37  0.000  0.000  0.000  0.000
   38  0.000  0.000  0.000  0.000
   39  0.000  0.000  0.000  0.000
tot    0.307  0.044  0.345  0.696
 
band    11 # energy   -6.29016466 # occ.  2.00000000
 
ion      s      p      d    tot
    1  0.019  0.001  0.001  0.021
    2  0.003  0.000  0.008  0.011
    3  0.003  0.000  0.008  0.011
    4  0.003  0.000  0.008  0.011
    5  0.004  0.000  0.006  0.010
    6  0.003  0.000  0.008  0.011
    7  0.003  0.000  0.008  0.011
    8  0.003  0.000  0.008  0.011
    9  0.001  0.001  0.007  0.010
   10  0.003  0.000  0.032  0.035
   11  0.000  0.001  0.020  0.022
   12  0.003  0.000  0.032  0.035
   13  0.000  0.001  0.020  0.022
   14  0.000  0.001  0.020  0.022
   15  0.033  0.002  0.006  0.041
   16  0.003  0.000  0.032  0.035
   17  0.033  0.002  0.006  0.041
   18  0.033  0.002  0.006  0.041
   19  0.006  0.001  0.018  0.025
   20  0.019  0.000  0.018  0.037
   21  0.019  0.000  0.018  0.037
   22  0.007  0.002  0.015  0.024
   23  0.019  0.000  0.018  0.037
   24  0.007  0.002  0.014  0.024
   25  0.006  0.001  0.018  0.025
   26  0.006  0.001  0.018  0.025
   27  0.007  0.002  0.015  0.024
   28  0.001  0.000  0.001  0.002
   29  0.002  0.000  0.005  0.007
   30  0.002  0.000  0.005  0.007
   31  0.002  0.000  0.005  0.007
   32  0.002  0.000  0.005  0.007
   33  0.002  0.000  0.005  0.007
   34  0.002  0.000  0.005  0.007
   35  0.011  0.001  0.001  0.012
   36  0.000  0.007  0.000  0.007
   37  0.002  0.002  0.000  0.004
   38  0.000  0.001  0.000  0.001
   39  0.000  0.000  0.000  0.000
tot    0.270  0.035  0.418  0.723
 
band    12 # energy   -6.28245568 # occ.  2.00000000
 
ion      s      p      d    tot
    1  0.004  0.001  0.001  0.007
    2  0.000  0.001  0.006  0.007
    3  0.000  0.001  0.006  0.007
    4  0.000  0.001  0.006  0.007
    5  0.020  0.002  0.000  0.022
    6  0.000  0.001  0.006  0.007
    7  0.000  0.001  0.006  0.007
    8  0.000  0.001  0.006  0.007
    9  0.000  0.000  0.003  0.003
   10  0.023  0.003  0.003  0.029
   11  0.022  0.001  0.020  0.043
   12  0.023  0.003  0.003  0.028
   13  0.022  0.001  0.020  0.043
   14  0.022  0.001  0.020  0.043
   15  0.002  0.001  0.026  0.029
   16  0.023  0.003  0.003  0.028
   17  0.002  0.001  0.026  0.029
   18  0.002  0.001  0.026  0.029
   19  0.022  0.002  0.010  0.033
   20  0.010  0.003  0.012  0.025
   21  0.010  0.003  0.012  0.025
   22  0.007  0.000  0.026  0.032
   23  0.010  0.003  0.012  0.025
   24  0.007  0.000  0.026  0.032
   25  0.022  0.002  0.010  0.033
   26  0.022  0.002  0.010  0.033
   27  0.007  0.000  0.026  0.032
   28  0.013  0.001  0.000  0.015
   29  0.000  0.000  0.004  0.005
   30  0.000  0.000  0.004  0.005
   31  0.000  0.000  0.004  0.005
   32  0.000  0.000  0.004  0.005
   33  0.000  0.000  0.004  0.005
   34  0.000  0.000  0.004  0.005
   35  0.002  0.001  0.003  0.005
   36  0.001  0.000  0.000  0.001
   37  0.000  0.000  0.000  0.000
   38  0.000  0.000  0.000  0.000
   39  0.000  0.000  0.000  0.000
tot    0.298  0.040  0.358  0.697
 
band    13 # energy   -6.27035476 # occ.  2.00000000
 
ion      s      p      d    tot
    1  0.000  0.001  0.003  0.004
    2  0.004  0.001  0.004  0.009
    3  0.008  0.001  0.004  0.013
    4  0.004  0.001  0.004  0.010
    5  0.000  0.000  0.004  0.004
    6  0.001  0.000  0.003  0.004
    7  0.008  0.001  0.004  0.013
    8  0.000  0.000  0.003  0.004
    9  0.000  0.001  0.011  0.012
   10  0.025  0.000  0.017  0.042
   11  0.002  0.001  0.020  0.023
   12  0.006  0.004  0.007  0.017
   13  0.002  0.001  0.020  0.024
   14  0.008  0.001  0.008  0.017
   15  0.016  0.001  0.033  0.051
   16  0.007  0.003  0.007  0.017
   17  0.015  0.001  0.034  0.050
   18  0.062  0.002  0.005  0.070
   19  0.011  0.001  0.028  0.039
   20  0.000  0.001  0.012  0.013
   21  0.000  0.002  0.010  0.012
   22  0.009  0.003  0.015  0.027
   23  0.000  0.002  0.010  0.012
   24  0.037  0.001  0.012  0.050
   25  0.041  0.002  0.003  0.046
   26  0.010  0.001  0.029  0.039
   27  0.010  0.003  0.015  0.028
   28  0.000  0.000  0.006  0.007
   29  0.000  0.000  0.002  0.003
   30  0.003  0.001  0.002  0.005
   31  0.000  0.000  0.002  0.002
   32  0.004  0.001  0.003  0.008
   33  0.003  0.001  0.002  0.005
   34  0.004  0.001  0.003  0.008
   35  0.000  0.001  0.004  0.005
   36  0.000  0.000  0.001  0.001
   37  0.000  0.000  0.000  0.000
   38  0.000  0.001  0.000  0.001
   39  0.000  0.000  0.000  0.000
tot    0.301  0.042  0.351  0.694
 
band    14 # energy   -6.27033203 # occ.  2.00000000
 
ion      s      p      d    tot
    1  0.000  0.001  0.003  0.004
    2  0.004  0.001  0.003  0.008
    3  0.001  0.000  0.004  0.005
    4  0.004  0.001  0.003  0.008
    5  0.000  0.000  0.004  0.004
    6  0.008  0.001  0.004  0.013
    7  0.001  0.000  0.004  0.005
    8  0.008  0.001  0.004  0.013
    9  0.000  0.001  0.011  0.012
   10  0.000  0.005  0.004  0.009
   11  0.006  0.001  0.012  0.019
   12  0.019  0.001  0.014  0.034
   13  0.006  0.001  0.012  0.019
   14  0.000  0.001  0.024  0.026
   15  0.046  0.001  0.015  0.063
   16  0.019  0.001  0.013  0.033
   17  0.048  0.001  0.014  0.064
   18  0.000  0.001  0.043  0.044
   19  0.030  0.002  0.012  0.043
   20  0.000  0.002  0.010  0.012
   21  0.000  0.001  0.012  0.013
   22  0.028  0.001  0.013  0.043
   23  0.000  0.001  0.012  0.013
   24  0.000  0.004  0.016  0.020
   25  0.000  0.000  0.037  0.037
   26  0.031  0.002  0.011  0.044
   27  0.027  0.001  0.013  0.042
   28  0.000  0.000  0.006  0.007
   29  0.005  0.001  0.002  0.008
   30  0.002  0.001  0.003  0.005
   31  0.005  0.001  0.002  0.008
   32  0.000  0.000  0.002  0.002
   33  0.002  0.001  0.003  0.005
   34  0.001  0.000  0.002  0.002
   35  0.000  0.001  0.004  0.005
   36  0.000  0.000  0.001  0.001
   37  0.000  0.000  0.000  0.000
   38  0.000  0.001  0.000  0.001
   39  0.000  0.000  0.000  0.000
tot    0.301  0.042  0.351  0.694
 
band    15 # energy   -6.17879664 # occ.  2.00000000
 
ion      s      p      d    tot
    1  0.003  0.000  0.000  0.003
    2  0.000  0.000  0.002  0.003
    3  0.000  0.000  0.002  0.003
    4  0.000  0.000  0.002  0.003
    5  0.004  0.000  0.000  0.004
    6  0.000  0.000  0.002  0.003
    7  0.000  0.000  0.002  0.003
    8  0.000  0.000  0.002  0.003
    9  0.002  0.001  0.001  0.004
   10  0.001  0.000  0.010  0.011
   11  0.003  0.001  0.002  0.007
   12  0.001  0.000  0.010  0.011
   13  0.003  0.001  0.002  0.007
   14  0.003  0.001  0.002  0.007
   15  0.008  0.001  0.006  0.015
   16  0.001  0.000  0.010  0.011
   17  0.008  0.001  0.006  0.015
   18  0.008  0.001  0.006  0.015
   19  0.003  0.001  0.016  0.021
   20  0.000  0.000  0.029  0.029
   21  0.000  0.000  0.029  0.029
   22  0.013  0.002  0.017  0.032
   23  0.000  0.000  0.029  0.029
   24  0.013  0.002  0.017  0.032
   25  0.003  0.001  0.016  0.021
   26  0.003  0.001  0.016  0.021
   27  0.013  0.002  0.017  0.032
   28  0.023  0.000  0.019  0.043
   29  0.022  0.000  0.017  0.039
   30  0.022  0.000  0.017  0.039
   31  0.022  0.000  0.017  0.039
   32  0.022  0.000  0.017  0.039
   33  0.022  0.000  0.017  0.039
   34  0.022  0.000  0.017  0.039
   35  0.020  0.000  0.018  0.038
   36  0.008  0.000  0.028  0.036
   37  0.001  0.001  0.000  0.003
   38  0.000  0.000  0.000  0.000
   39  0.000  0.000  0.000  0.000
tot    0.282  0.019  0.422  0.724
 
band    16 # energy   -5.82493607 # occ.  2.00000000
 
ion      s      p      d    tot
    1  0.016  0.002  0.002  0.020
    2  0.000  0.001  0.008  0.009
    3  0.000  0.001  0.008  0.009
    4  0.000  0.001  0.008  0.009
    5  0.000  0.000  0.002  0.002
    6  0.000  0.001  0.008  0.009
    7  0.000  0.001  0.008  0.009
    8  0.000  0.001  0.008  0.009
    9  0.016  0.001  0.000  0.017
   10  0.010  0.002  0.012  0.024
   11  0.003  0.000  0.041  0.044
   12  0.010  0.002  0.012  0.024
   13  0.003  0.000  0.041  0.044
   14  0.003  0.000  0.041  0.044
   15  0.002  0.001  0.026  0.030
   16  0.010  0.002  0.012  0.024
   17  0.002  0.001  0.026  0.030
   18  0.002  0.001  0.026  0.030
   19  0.005  0.001  0.011  0.018
   20  0.001  0.000  0.048  0.049
   21  0.001  0.000  0.048  0.049
   22  0.012  0.001  0.021  0.034
   23  0.001  0.000  0.048  0.049
   24  0.012  0.001  0.021  0.034
   25  0.005  0.001  0.012  0.018
   26  0.005  0.001  0.011  0.018
   27  0.012  0.001  0.021  0.034
   28  0.012  0.001  0.000  0.014
   29  0.000  0.001  0.006  0.006
   30  0.000  0.001  0.006  0.006
   31  0.000  0.001  0.006  0.006
   32  0.000  0.001  0.006  0.006
   33  0.000  0.001  0.006  0.006
   34  0.000  0.001  0.006  0.006
   35  0.007  0.001  0.003  0.011
   36  0.001  0.000  0.001  0.002
   37  0.000  0.000  0.000  0.000
   38  0.000  0.000  0.000  0.000
   39  0.000  0.000  0.000  0.000
tot    0.152  0.029  0.572  0.753
 
band    17 # energy   -5.81919754 # occ.  2.00000000
 
ion      s      p      d    tot
    1  0.000  0.001  0.004  0.005
    2  0.001  0.001  0.005  0.006
    3  0.009  0.001  0.005  0.015
    4  0.000  0.001  0.005  0.006
    5  0.000  0.001  0.011  0.012
    6  0.005  0.001  0.004  0.010
    7  0.009  0.001  0.005  0.015
    8  0.005  0.001  0.004  0.010
    9  0.000  0.000  0.009  0.009
   10  0.000  0.001  0.051  0.052
   11  0.016  0.001  0.021  0.037
   12  0.007  0.002  0.020  0.028
   13  0.016  0.001  0.021  0.038
   14  0.000  0.000  0.051  0.051
   15  0.002  0.000  0.020  0.022
   16  0.007  0.002  0.019  0.028
   17  0.002  0.000  0.020  0.022
   18  0.000  0.001  0.011  0.012
   19  0.006  0.000  0.019  0.025
   20  0.000  0.000  0.071  0.071
   21  0.017  0.001  0.022  0.041
   22  0.003  0.001  0.019  0.023
   23  0.018  0.001  0.022  0.040
   24  0.000  0.001  0.035  0.036
   25  0.000  0.001  0.012  0.013
   26  0.006  0.000  0.019  0.025
   27  0.003  0.001  0.019  0.023
   28  0.000  0.000  0.007  0.008
   29  0.002  0.000  0.004  0.006
   30  0.009  0.001  0.004  0.014
   31  0.002  0.000  0.004  0.006
   32  0.002  0.001  0.004  0.007
   33  0.009  0.001  0.004  0.014
   34  0.003  0.001  0.004  0.007
   35  0.000  0.000  0.003  0.003
   36  0.000  0.003  0.007  0.010
   37  0.000  0.000  0.000  0.000
   38  0.000  0.000  0.000  0.000
   39  0.000  0.000  0.000  0.000
tot    0.156  0.032  0.564  0.751
 
band    18 # energy   -5.81919523 # occ.  2.00000000
 
ion      s      p      d    tot
    1  0.000  0.001  0.004  0.005
    2  0.009  0.001  0.004  0.014
    3  0.001  0.000  0.004  0.006
    4  0.009  0.001  0.004  0.014
    5  0.000  0.001  0.011  0.012
    6  0.005  0.001  0.005  0.011
    7  0.001  0.000  0.004  0.006
    8  0.004  0.001  0.005  0.011
    9  0.000  0.000  0.009  0.009
   10  0.009  0.002  0.009  0.020
   11  0.005  0.000  0.042  0.047
   12  0.002  0.001  0.040  0.043
   13  0.005  0.000  0.041  0.047
   14  0.021  0.001  0.011  0.033
   15  0.001  0.001  0.014  0.016
   16  0.002  0.001  0.041  0.044
   17  0.001  0.001  0.014  0.016
   18  0.002  0.000  0.023  0.025
   19  0.002  0.001  0.014  0.017
   20  0.023  0.001  0.006  0.030
   21  0.006  0.000  0.054  0.061
   22  0.001  0.001  0.029  0.031
   23  0.006  0.000  0.055  0.061
   24  0.004  0.001  0.013  0.018
   25  0.008  0.000  0.021  0.029
   26  0.002  0.001  0.014  0.017
   27  0.001  0.001  0.030  0.032
   28  0.000  0.000  0.007  0.008
   29  0.007  0.001  0.004  0.012
   30  0.000  0.000  0.004  0.004
   31  0.007  0.001  0.004  0.012
   32  0.006  0.001  0.004  0.011
   33  0.000  0.000  0.004  0.004
   34  0.006  0.001  0.004  0.011
   35  0.000  0.000  0.003  0.003
   36  0.000  0.003  0.007  0.010
   37  0.000  0.000  0.000  0.000
   38  0.000  0.000  0.000  0.000
   39  0.000  0.000  0.000  0.000
tot    0.156  0.032  0.564  0.751
 
band    19 # energy   -5.78149900 # occ.  2.00000000
 
ion      s      p      d    tot
    1  0.000  0.001  0.015  0.015
    2  0.010  0.001  0.005  0.016
    3  0.001  0.000  0.005  0.007
    4  0.010  0.001  0.005  0.016
    5  0.000  0.000  0.005  0.005
    6  0.004  0.001  0.005  0.010
    7  0.002  0.000  0.005  0.007
    8  0.004  0.001  0.005  0.010
    9  0.000  0.001  0.007  0.008
   10  0.000  0.001  0.030  0.031
   11  0.001  0.001  0.019  0.021
   12  0.007  0.000  0.022  0.030
   13  0.001  0.001  0.019  0.021
   14  0.000  0.001  0.019  0.020
   15  0.011  0.002  0.020  0.034
   16  0.007  0.000  0.022  0.030
   17  0.011  0.002  0.020  0.034
   18  0.000  0.000  0.064  0.064
   19  0.013  0.001  0.019  0.034
   20  0.000  0.002  0.018  0.020
   21  0.000  0.001  0.021  0.022
   22  0.017  0.001  0.021  0.038
   23  0.000  0.001  0.021  0.022
   24  0.000  0.001  0.034  0.034
   25  0.000  0.000  0.064  0.065
   26  0.013  0.001  0.019  0.034
   27  0.017  0.001  0.021  0.038
   28  0.000  0.001  0.005  0.005
   29  0.006  0.001  0.004  0.011
   30  0.000  0.000  0.004  0.005
   31  0.006  0.001  0.004  0.011
   32  0.004  0.001  0.003  0.008
   33  0.000  0.000  0.004  0.005
   34  0.004  0.001  0.003  0.008
   35  0.000  0.001  0.008  0.009
   36  0.000  0.000  0.002  0.002
   37  0.000  0.000  0.000  0.000
   38  0.000  0.000  0.000  0.000
   39  0.000  0.000  0.000  0.000
tot    0.152  0.029  0.569  0.750
 
band    20 # energy   -5.78148765 # occ.  2.00000000
 
ion      s      p      d    tot
    1  0.000  0.001  0.015  0.015
    2  0.000  0.000  0.005  0.006
    3  0.009  0.001  0.005  0.015
    4  0.000  0.000  0.005  0.006
    5  0.000  0.000  0.005  0.005
    6  0.006  0.001  0.004  0.012
    7  0.009  0.001  0.005  0.015
    8  0.006  0.001  0.004  0.012
    9  0.000  0.001  0.007  0.008
   10  0.010  0.000  0.020  0.030
   11  0.000  0.001  0.019  0.021
   12  0.002  0.001  0.028  0.031
   13  0.000  0.001  0.019  0.021
   14  0.001  0.001  0.019  0.021
   15  0.004  0.001  0.049  0.054
   16  0.003  0.001  0.028  0.031
   17  0.004  0.001  0.049  0.054
   18  0.015  0.002  0.006  0.024
   19  0.004  0.001  0.049  0.054
   20  0.000  0.000  0.023  0.023
   21  0.000  0.001  0.019  0.020
   22  0.006  0.001  0.029  0.036
   23  0.000  0.001  0.019  0.020
   24  0.023  0.001  0.016  0.040
   25  0.018  0.001  0.004  0.024
   26  0.004  0.001  0.050  0.055
   27  0.006  0.001  0.029  0.036
   28  0.000  0.001  0.005  0.005
   29  0.001  0.000  0.003  0.005
   30  0.007  0.001  0.003  0.011
   31  0.001  0.000  0.003  0.005
   32  0.003  0.001  0.005  0.008
   33  0.007  0.001  0.003  0.011
   34  0.003  0.001  0.005  0.008
   35  0.000  0.001  0.008  0.009
   36  0.000  0.000  0.002  0.002
   37  0.000  0.000  0.000  0.000
   38  0.000  0.000  0.000  0.000
   39  0.000  0.000  0.000  0.000