PROCAR new format
# of k-points:   10         # of bands:  252         # of ions:   38

 k-point     1 :    0.00000000 0.00000000 0.00000000     weight = 0.01562500

band     1 # energy  -22.70343398 # occ.  2.00000000
 
ion      s      p      d    tot
    1  0.000  0.000  0.000  0.000
    2  0.000  0.000  0.000  0.000
    3  0.000  0.000  0.000  0.000
    4  0.000  0.000  0.000  0.000
    5  0.000  0.000  0.000  0.000
    6  0.000  0.000  0.000  0.000
    7  0.000  0.000  0.000  0.000
    8  0.000  0.000  0.000  0.000
    9  0.000  0.000  0.000  0.000
   10  0.000  0.000  0.000  0.000
   11  0.000  0.000  0.000  0.000
   12  0.000  0.000  0.000  0.000
   13  0.000  0.000  0.000  0.000
   14  0.000  0.000  0.000  0.000
   15  0.000  0.000  0.000  0.000
   16  0.000  0.000  0.000  0.000
   17  0.000  0.000  0.000  0.000
   18  0.000  0.000  0.000  0.000
   19  0.000  0.000  0.000  0.000
   20  0.000  0.000  0.000  0.000
   21  0.000  0.000  0.000  0.000
   22  0.000  0.000  0.000  0.000
   23  0.000  0.000  0.000  0.000
   24  0.000  0.000  0.000  0.000
   25  0.000  0.000  0.000  0.000
   26  0.000  0.000  0.000  0.000
   27  0.000  0.000  0.000  0.000
   28  0.000  0.000  0.000  0.000
   29  0.000  0.000  0.000  0.000
   30  0.000  0.000  0.000  0.000
   31  0.000  0.000  0.000  0.000
   32  0.000  0.000  0.000  0.000
   33  0.000  0.000  0.000  0.000
   34  0.000  0.000  0.000  0.000
   35  0.000  0.000  0.000  0.000
   36  0.000  0.000  0.000  0.001
   37  0.156  0.112  0.000  0.267
   38  0.636  0.092  0.000  0.728
tot    0.792  0.204  0.000  0.996
 
band     2 # energy   -8.93744727 # occ.  2.00000000
 
ion      s      p      d    tot
    1  0.002  0.000  0.000  0.003
    2  0.002  0.000  0.000  0.003
    3  0.002  0.000  0.000  0.003
    4  0.002  0.000  0.000  0.003
    5  0.002  0.000  0.000  0.003
    6  0.002  0.000  0.000  0.003
    7  0.002  0.000  0.000  0.003
    8  0.002  0.000  0.000  0.003
    9  0.002  0.000  0.000  0.002
   10  0.010  0.000  0.000  0.010
   11  0.010  0.000  0.000  0.010
   12  0.010  0.000  0.000  0.010
   13  0.010  0.000  0.000  0.010
   14  0.010  0.000  0.000  0.010
   15  0.009  0.000  0.000  0.010
   16  0.010  0.000  0.000  0.010
   17  0.009  0.000  0.000  0.010
   18  0.009  0.000  0.000  0.010
   19  0.013  0.000  0.000  0.013
   20  0.016  0.000  0.000  0.017
   21  0.016  0.000  0.000  0.017
   22  0.013  0.000  0.000  0.013
   23  0.016  0.000  0.000  0.017
   24  0.013  0.000  0.000  0.013
   25  0.013  0.000  0.000  0.013
   26  0.013  0.000  0.000  0.013
   27  0.013  0.000  0.000  0.013
   28  0.005  0.000  0.000  0.005
   29  0.008  0.000  0.000  0.008
   30  0.008  0.000  0.000  0.008
   31  0.008  0.000  0.000  0.008
   32  0.008  0.000  0.000  0.008
   33  0.008  0.000  0.000  0.008
   34  0.008  0.000  0.000  0.008
   35  0.005  0.000  0.000  0.005
   36  0.057  0.011  0.026  0.094
   37  0.139  0.009  0.000  0.148
   38  0.060  0.071  0.000  0.131
tot    0.545  0.098  0.028  0.671
 
band     3 # energy   -8.61205335 # occ.  2.00000000
 
ion      s      p      d    tot
    1  0.005  0.001  0.000  0.006
    2  0.005  0.001  0.000  0.006
    3  0.005  0.001  0.000  0.006
    4  0.005  0.001  0.000  0.006
    5  0.005  0.001  0.000  0.006
    6  0.005  0.001  0.000  0.006
    7  0.005  0.001  0.000  0.006
    8  0.005  0.001  0.000  0.006
    9  0.005  0.001  0.000  0.006
   10  0.017  0.000  0.000  0.017
   11  0.016  0.000  0.000  0.016
   12  0.017  0.000  0.000  0.017
   13  0.016  0.000  0.000  0.016
   14  0.016  0.000  0.000  0.016
   15  0.017  0.000  0.000  0.017
   16  0.017  0.000  0.000  0.017
   17  0.017  0.000  0.000  0.017
   18  0.017  0.000  0.000  0.017
   19  0.011  0.000  0.000  0.012
   20  0.008  0.001  0.000  0.009
   21  0.008  0.001  0.000  0.009
   22  0.011  0.000  0.000  0.011
   23  0.008  0.001  0.000  0.009
   24  0.011  0.000  0.000  0.011
   25  0.011  0.000  0.000  0.012
   26  0.011  0.000  0.000  0.012
   27  0.011  0.000  0.000  0.011
   28  0.002  0.000  0.000  0.002
   29  0.000  0.001  0.000  0.001
   30  0.000  0.001  0.000  0.001
   31  0.000  0.001  0.000  0.001
   32  0.000  0.001  0.000  0.001
   33  0.000  0.001  0.000  0.001
   34  0.000  0.001  0.000  0.001
   35  0.002  0.000  0.000  0.002
   36  0.015  0.020  0.022  0.058
   37  0.139  0.003  0.000  0.142
   38  0.068  0.100  0.000  0.168
tot    0.514  0.138  0.026  0.677
 
band     4 # energy   -7.42356764 # occ.  2.00000000
 
ion      s      p      d    tot
    1  0.018  0.001  0.001  0.019
    2  0.017  0.001  0.001  0.019
    3  0.017  0.001  0.001  0.019
    4  0.017  0.001  0.001  0.019
    5  0.017  0.001  0.001  0.019
    6  0.017  0.001  0.001  0.019
    7  0.017  0.001  0.001  0.019
    8  0.017  0.001  0.001  0.019
    9  0.017  0.001  0.001  0.019
   10  0.008  0.002  0.000  0.011
   11  0.008  0.002  0.000  0.011
   12  0.008  0.002  0.000  0.011
   13  0.008  0.002  0.000  0.011
   14  0.008  0.002  0.000  0.011
   15  0.008  0.002  0.001  0.011
   16  0.008  0.002  0.000  0.011
   17  0.008  0.002  0.001  0.011
   18  0.008  0.002  0.000  0.011
   19  0.012  0.002  0.001  0.014
   20  0.010  0.002  0.001  0.013
   21  0.010  0.002  0.001  0.013
   22  0.012  0.002  0.001  0.014
   23  0.010  0.002  0.001  0.013
   24  0.012  0.002  0.001  0.014
   25  0.012  0.002  0.001  0.014
   26  0.012  0.002  0.001  0.014
   27  0.012  0.002  0.001  0.014
   28  0.017  0.001  0.000  0.019
   29  0.015  0.001  0.000  0.017
   30  0.015  0.001  0.000  0.017
   31  0.015  0.001  0.000  0.017
   32  0.015  0.001  0.000  0.017
   33  0.015  0.001  0.000  0.017
   34  0.015  0.001  0.000  0.017
   35  0.017  0.001  0.000  0.018
   36  0.010  0.002  0.001  0.013
   37  0.009  0.004  0.000  0.013
   38  0.011  0.037  0.000  0.048
tot    0.488  0.095  0.019  0.602
 
band     5 # energy   -6.16017401 # occ.  2.00000000
 
ion      s      p      d    tot
    1  0.003  0.000  0.001  0.004
    2  0.004  0.000  0.001  0.005
    3  0.004  0.000  0.001  0.005
    4  0.004  0.000  0.001  0.005
    5  0.008  0.000  0.001  0.009
    6  0.004  0.000  0.001  0.005
    7  0.004  0.000  0.001  0.005
    8  0.004  0.000  0.001  0.005
    9  0.002  0.000  0.001  0.003
   10  0.001  0.001  0.001  0.003
   11  0.000  0.001  0.001  0.002
   12  0.001  0.001  0.001  0.003
   13  0.000  0.001  0.001  0.002
   14  0.000  0.001  0.001  0.002
   15  0.003  0.002  0.000  0.004
   16  0.001  0.001  0.001  0.003
   17  0.003  0.002  0.000  0.004
   18  0.003  0.002  0.000  0.004
   19  0.008  0.000  0.002  0.010
   20  0.001  0.003  0.004  0.007
   21  0.001  0.003  0.004  0.007
   22  0.007  0.001  0.001  0.009
   23  0.001  0.003  0.004  0.007
   24  0.007  0.001  0.001  0.009
   25  0.008  0.000  0.002  0.010
   26  0.008  0.000  0.002  0.010
   27  0.007  0.001  0.001  0.009
   28  0.000  0.001  0.001  0.002
   29  0.002  0.001  0.002  0.005
   30  0.002  0.001  0.002  0.005
   31  0.002  0.001  0.002  0.005
   32  0.002  0.001  0.002  0.005
   33  0.002  0.001  0.002  0.005
   34  0.002  0.001  0.002  0.005
   35  0.000  0.001  0.001  0.002
   36  0.079  0.016  0.051  0.146
   37  0.005  0.163  0.000  0.168
   38  0.027  0.263  0.000  0.290
tot    0.219  0.477  0.099  0.796
 
band     6 # energy   -5.82197892 # occ.  2.00000000
 
ion      s      p      d    tot
    1  0.000  0.000  0.002  0.002
    2  0.003  0.001  0.001  0.005
    3  0.000  0.000  0.001  0.001
    4  0.003  0.001  0.001  0.005
    5  0.000  0.002  0.002  0.004
    6  0.004  0.001  0.001  0.006
    7  0.000  0.000  0.001  0.001
    8  0.004  0.001  0.001  0.006
    9  0.000  0.000  0.001  0.001
   10  0.015  0.002  0.001  0.018
   11  0.007  0.003  0.004  0.015
   12  0.004  0.001  0.006  0.010
   13  0.007  0.003  0.004  0.014
   14  0.028  0.001  0.003  0.031
   15  0.000  0.004  0.002  0.006
   16  0.004  0.001  0.006  0.010
   17  0.000  0.004  0.002  0.007
   18  0.002  0.000  0.003  0.005
   19  0.000  0.005  0.002  0.007
   20  0.030  0.001  0.004  0.035
   21  0.007  0.004  0.004  0.015
   22  0.005  0.001  0.007  0.013
   23  0.008  0.004  0.004  0.016
   24  0.022  0.003  0.001  0.025
   25  0.001  0.000  0.003  0.004
   26  0.000  0.005  0.002  0.007
   27  0.006  0.001  0.007  0.013
   28  0.000  0.001  0.002  0.003
   29  0.010  0.002  0.001  0.013
   30  0.000  0.001  0.002  0.003
   31  0.010  0.002  0.001  0.012
   32  0.009  0.002  0.001  0.012
   33  0.000  0.001  0.002  0.003
   34  0.010  0.002  0.001  0.012
   35  0.000  0.001  0.003  0.004
   36  0.000  0.011  0.003  0.014
   37  0.000  0.085  0.000  0.085
   38  0.000  0.197  0.000  0.197
tot    0.198  0.354  0.089  0.640
 
band     7 # energy   -5.82187940 # occ.  2.00000000
 
ion      s      p      d    tot
    1  0.000  0.000  0.002  0.002
    2  0.002  0.001  0.001  0.003
    3  0.004  0.001  0.001  0.007
    4  0.002  0.001  0.001  0.004
    5  0.000  0.002  0.002  0.004
    6  0.001  0.000  0.001  0.002
    7  0.004  0.001  0.001  0.007
    8  0.001  0.000  0.001  0.002
    9  0.000  0.000  0.001  0.001
   10  0.000  0.000  0.007  0.007
   11  0.020  0.002  0.003  0.026
   12  0.011  0.002  0.003  0.016
   13  0.021  0.002  0.003  0.026
   14  0.000  0.004  0.005  0.009
   15  0.001  0.002  0.002  0.005
   16  0.011  0.002  0.003  0.015
   17  0.001  0.002  0.002  0.005
   18  0.000  0.006  0.001  0.007
   19  0.001  0.002  0.002  0.005
   20  0.000  0.005  0.004  0.009
   21  0.023  0.002  0.004  0.029
   22  0.016  0.002  0.003  0.021
   23  0.023  0.002  0.004  0.028
   24  0.000  0.000  0.009  0.009
   25  0.000  0.007  0.001  0.008
   26  0.001  0.002  0.002  0.005
   27  0.016  0.002  0.003  0.021
   28  0.000  0.001  0.002  0.003
   29  0.003  0.001  0.001  0.005
   30  0.013  0.002  0.000  0.015
   31  0.003  0.001  0.001  0.006
   32  0.004  0.001  0.001  0.006
   33  0.013  0.002  0.000  0.015
   34  0.003  0.001  0.002  0.006
   35  0.000  0.001  0.003  0.004
   36  0.000  0.011  0.003  0.014
   37  0.000  0.085  0.000  0.085
   38  0.000  0.197  0.000  0.197
tot    0.198  0.354  0.089  0.640
 
band     8 # energy   -5.80942278 # occ.  2.00000000
 
ion      s      p      d    tot
    1  0.013  0.000  0.004  0.016
    2  0.008  0.001  0.005  0.014
    3  0.008  0.001  0.005  0.014
    4  0.008  0.001  0.005  0.014
    5  0.000  0.002  0.006  0.008
    6  0.008  0.001  0.005  0.014
    7  0.008  0.001  0.005  0.014
    8  0.008  0.001  0.005  0.014
    9  0.027  0.001  0.001  0.029
   10  0.001  0.003  0.006  0.010
   11  0.026  0.007  0.001  0.035
   12  0.001  0.003  0.006  0.010
   13  0.027  0.007  0.001  0.035
   14  0.026  0.007  0.001  0.035
   15  0.003  0.001  0.008  0.013
   16  0.001  0.003  0.006  0.010
   17  0.003  0.001  0.008  0.013
   18  0.003  0.001  0.008  0.013
   19  0.001  0.001  0.008  0.010
   20  0.030  0.007  0.002  0.038
   21  0.029  0.007  0.002  0.038
   22  0.001  0.005  0.004  0.010
   23  0.029  0.007  0.002  0.038
   24  0.001  0.005  0.004  0.010
   25  0.001  0.001  0.008  0.010
   26  0.001  0.001  0.008  0.010
   27  0.001  0.005  0.004  0.010
   28  0.019  0.000  0.002  0.020
   29  0.008  0.001  0.005  0.014
   30  0.008  0.001  0.005  0.014
   31  0.008  0.001  0.005  0.014
   32  0.008  0.001  0.005  0.014
   33  0.008  0.001  0.005  0.014
   34  0.008  0.001  0.005  0.014
   35  0.024  0.000  0.002  0.027
   36  0.001  0.002  0.009  0.013
   37  0.000  0.000  0.000  0.001
   38  0.000  0.000  0.000  0.000
tot    0.367  0.092  0.175  0.634
 
band     9 # energy   -5.77224017 # occ.  2.00000000
 
ion      s      p      d    tot
    1  0.021  0.003  0.001  0.025
    2  0.000  0.002  0.004  0.006
    3  0.000  0.002  0.004  0.006
    4  0.000  0.002  0.004  0.006
    5  0.001  0.000  0.000  0.002
    6  0.000  0.002  0.004  0.006
    7  0.000  0.002  0.004  0.006
    8  0.000  0.002  0.004  0.006
    9  0.010  0.002  0.000  0.012
   10  0.030  0.006  0.006  0.042
   11  0.005  0.000  0.012  0.017
   12  0.030  0.006  0.006  0.042
   13  0.005  0.000  0.012  0.017
   14  0.005  0.000  0.012  0.017
   15  0.013  0.008  0.003  0.024
   16  0.030  0.006  0.006  0.042
   17  0.013  0.008  0.003  0.024
   18  0.013  0.008  0.003  0.024
   19  0.022  0.009  0.002  0.033
   20  0.000  0.002  0.010  0.012
   21  0.000  0.002  0.010  0.012
   22  0.024  0.002  0.009  0.036
   23  0.000  0.002  0.010  0.012
   24  0.024  0.002  0.009  0.036
   25  0.022  0.009  0.002  0.033
   26  0.022  0.009  0.002  0.033
   27  0.024  0.002  0.009  0.036
   28  0.018  0.003  0.001  0.021
   29  0.000  0.002  0.004  0.006
   30  0.000  0.002  0.004  0.006
   31  0.000  0.002  0.004  0.006
   32  0.000  0.002  0.004  0.006
   33  0.000  0.002  0.004  0.006
   34  0.000  0.002  0.004  0.006
   35  0.012  0.002  0.001  0.016
   36  0.000  0.000  0.000  0.000
   37  0.000  0.000  0.000  0.000
   38  0.000  0.000  0.000  0.000
tot    0.346  0.115  0.178  0.639
 
band    10 # energy   -5.76915044 # occ.  2.00000000
 
ion      s      p      d    tot
    1  0.000  0.003  0.005  0.008
    2  0.005  0.002  0.002  0.008
    3  0.001  0.001  0.002  0.005
    4  0.004  0.001  0.002  0.008
    5  0.000  0.000  0.002  0.003
    6  0.010  0.002  0.003  0.015
    7  0.001  0.001  0.002  0.004
    8  0.010  0.002  0.003  0.015
    9  0.000  0.002  0.005  0.007
   10  0.000  0.011  0.005  0.016
   11  0.000  0.004  0.005  0.008
   12  0.033  0.003  0.006  0.043
   13  0.000  0.003  0.005  0.008
   14  0.000  0.009  0.005  0.014
   15  0.036  0.003  0.006  0.046
   16  0.031  0.004  0.006  0.041
   17  0.038  0.004  0.006  0.048
   18  0.000  0.000  0.017  0.017
   19  0.043  0.004  0.007  0.053
   20  0.000  0.002  0.013  0.016
   21  0.014  0.003  0.005  0.023
   22  0.010  0.003  0.005  0.018
   23  0.013  0.003  0.006  0.022
   24  0.000  0.013  0.002  0.014
   25  0.000  0.004  0.013  0.018
   26  0.046  0.004  0.006  0.056
   27  0.009  0.004  0.005  0.018
   28  0.000  0.003  0.006  0.008
   29  0.006  0.002  0.003  0.011
   30  0.000  0.001  0.002  0.003
   31  0.006  0.001  0.003  0.010
   32  0.007  0.002  0.002  0.011
   33  0.000  0.001  0.002  0.003
   34  0.007  0.002  0.002  0.011
   35  0.000  0.002  0.002  0.004
   36  0.000  0.000  0.005  0.005
   37  0.000  0.007  0.000  0.007
   38  0.000  0.017  0.000  0.017
tot    0.331  0.134  0.177  0.641
 
band    11 # energy   -5.76909673 # occ.  2.00000000
 
ion      s      p      d    tot
    1  0.000  0.003  0.005  0.008
    2  0.006  0.002  0.002  0.010
    3  0.009  0.002  0.002  0.013
    4  0.006  0.002  0.002  0.011
    5  0.000  0.000  0.002  0.003
    6  0.000  0.001  0.002  0.003
    7  0.009  0.002  0.002  0.014
    8  0.000  0.001  0.002  0.003
    9  0.000  0.002  0.005  0.007
   10  0.043  0.001  0.007  0.051
   11  0.000  0.007  0.005  0.012
   12  0.010  0.009  0.006  0.024
   13  0.000  0.007  0.005  0.012
   14  0.000  0.002  0.004  0.006
   15  0.014  0.001  0.013  0.028
   16  0.012  0.008  0.006  0.026
   17  0.011  0.001  0.014  0.026
   18  0.049  0.005  0.002  0.056
   19  0.016  0.004  0.011  0.031
   20  0.018  0.004  0.003  0.025
   21  0.004  0.003  0.011  0.018
   22  0.003  0.010  0.003  0.015
   23  0.005  0.003  0.010  0.018
   24  0.013  0.000  0.006  0.019
   25  0.059  0.003  0.004  0.067
   26  0.013  0.004  0.011  0.029
   27  0.003  0.009  0.003  0.016
   28  0.000  0.003  0.006  0.008
   29  0.002  0.001  0.002  0.006
   30  0.009  0.002  0.002  0.013
   31  0.003  0.002  0.002  0.006
   32  0.002  0.001  0.003  0.005
   33  0.009  0.002  0.002  0.013
   34  0.002  0.001  0.003  0.005
   35  0.000  0.002  0.002  0.004
   36  0.000  0.000  0.005  0.005
   37  0.000  0.007  0.000  0.007
   38  0.000  0.017  0.000  0.017
tot    0.331  0.134  0.177  0.641
 
band    12 # energy   -5.72899592 # occ.  2.00000000
 
ion      s      p      d    tot
    1  0.000  0.000  0.002  0.002
    2  0.002  0.001  0.001  0.004
    3  0.002  0.001  0.001  0.004
    4  0.002  0.001  0.001  0.004
    5  0.000  0.002  0.004  0.005
    6  0.006  0.002  0.002  0.010
    7  0.001  0.001  0.001  0.004
    8  0.006  0.002  0.002  0.010
    9  0.000  0.001  0.002  0.004
   10  0.006  0.002  0.002  0.010
   11  0.010  0.002  0.007  0.019
   12  0.001  0.002  0.006  0.009
   13  0.009  0.002  0.007  0.018
   14  0.036  0.002  0.002  0.041
   15  0.003  0.006  0.002  0.011
   16  0.002  0.002  0.005  0.009
   17  0.003  0.006  0.002  0.011
   18  0.013  0.000  0.004  0.017
   19  0.001  0.002  0.004  0.007
   20  0.016  0.000  0.004  0.020
   21  0.004  0.005  0.003  0.012
   22  0.007  0.001  0.007  0.014
   23  0.004  0.005  0.003  0.012
   24  0.028  0.003  0.002  0.032
   25  0.002  0.001  0.002  0.005
   26  0.001  0.002  0.004  0.007
   27  0.007  0.001  0.006  0.015
   28  0.000  0.000  0.000  0.000
   29  0.000  0.001  0.003  0.004
   30  0.001  0.000  0.001  0.002
   31  0.000  0.001  0.003  0.004
   32  0.001  0.002  0.003  0.005
   33  0.001  0.000  0.001  0.002
   34  0.001  0.002  0.003  0.005
   35  0.000  0.001  0.002  0.003
   36  0.000  0.000  0.021  0.021
   37  0.000  0.087  0.000  0.087
   38  0.000  0.210  0.000  0.210
tot    0.175  0.359  0.124  0.657
 
band    13 # energy   -5.72892370 # occ.  2.00000000
 
ion      s      p      d    tot
    1  0.000  0.000  0.002  0.002
    2  0.005  0.001  0.002  0.007
    3  0.005  0.001  0.001  0.008
    4  0.005  0.001  0.002  0.008
    5  0.000  0.002  0.004  0.005
    6  0.000  0.001  0.001  0.002
    7  0.005  0.001  0.001  0.008
    8  0.000  0.001  0.001  0.002
    9  0.000  0.001  0.002  0.004
   10  0.000  0.003  0.007  0.009
   11  0.027  0.002  0.004  0.033
   12  0.005  0.002  0.003  0.010
   13  0.028  0.002  0.004  0.034
   14  0.000  0.001  0.009  0.011
   15  0.009  0.002  0.003  0.015
   16  0.004  0.002  0.003  0.010
   17  0.010  0.002  0.003  0.015
   18  0.000  0.008  0.001  0.009
   19  0.002  0.002  0.003  0.006
   20  0.000  0.007  0.003  0.009
   21  0.012  0.002  0.003  0.017
   22  0.021  0.002  0.003  0.027
   23  0.012  0.002  0.003  0.017
   24  0.000  0.001  0.008  0.009
   25  0.000  0.003  0.005  0.008
   26  0.002  0.002  0.003  0.006
   27  0.021  0.002  0.003  0.026
   28  0.000  0.000  0.000  0.000
   29  0.001  0.001  0.001  0.003
   30  0.001  0.001  0.003  0.005
   31  0.001  0.001  0.001  0.004
   32  0.000  0.000  0.002  0.002
   33  0.001  0.002  0.003  0.006
   34  0.000  0.000  0.002  0.002
   35  0.000  0.001  0.002  0.003
   36  0.000  0.000  0.021  0.021
   37  0.000  0.087  0.000  0.087
   38  0.000  0.210  0.000  0.210
tot    0.174  0.359  0.124  0.657
 
band    14 # energy   -5.54262140 # occ.  2.00000000
 
ion      s      p      d    tot
    1  0.001  0.001  0.004  0.005
    2  0.006  0.002  0.007  0.015
    3  0.006  0.002  0.007  0.015
    4  0.006  0.002  0.007  0.015
    5  0.044  0.002  0.001  0.047
    6  0.006  0.002  0.007  0.015
    7  0.006  0.002  0.007  0.015
    8  0.006  0.002  0.007  0.015
    9  0.000  0.002  0.007  0.009
   10  0.007  0.003  0.007  0.017
   11  0.007  0.006  0.006  0.019
   12  0.007  0.003  0.007  0.017
   13  0.007  0.006  0.006  0.019
   14  0.007  0.006  0.006  0.019
   15  0.025  0.001  0.010  0.036
   16  0.007  0.003  0.007  0.017
   17  0.025  0.001  0.010  0.036
   18  0.025  0.001  0.010  0.036
   19  0.002  0.004  0.003  0.008
   20  0.004  0.001  0.008  0.012
   21  0.004  0.001  0.008  0.012
   22  0.002  0.004  0.004  0.010
   23  0.004  0.001  0.008  0.012
   24  0.002  0.004  0.004  0.010
   25  0.002  0.004  0.003  0.008
   26  0.002  0.004  0.003  0.008
   27  0.002  0.004  0.004  0.010
   28  0.009  0.000  0.003  0.012
   29  0.006  0.000  0.003  0.009
   30  0.006  0.000  0.003  0.009
   31  0.006  0.000  0.003  0.009
   32  0.006  0.000  0.003  0.009
   33  0.006  0.000  0.003  0.009
   34  0.006  0.000  0.003  0.009
   35  0.006  0.000  0.002  0.009
   36  0.003  0.014  0.041  0.058
   37  0.009  0.049  0.000  0.058
   38  0.003  0.050  0.000  0.053
tot    0.281  0.186  0.236  0.702
 
band    15 # energy   -5.00727329 # occ.  2.00000000
 
ion      s      p      d    tot
    1  0.002  0.001  0.008  0.010
    2  0.003  0.001  0.009  0.013
    3  0.003  0.001  0.009  0.013
    4  0.003  0.001  0.009  0.013
    5  0.000  0.002  0.007  0.009
    6  0.003  0.001  0.009  0.013
    7  0.003  0.001  0.009  0.013
    8  0.003  0.001  0.009  0.013
    9  0.023  0.000  0.005  0.028
   10  0.008  0.000  0.023  0.031
   11  0.010  0.001  0.020  0.030
   12  0.008  0.000  0.023  0.031
   13  0.010  0.001  0.020  0.030
   14  0.010  0.001  0.020  0.030
   15  0.000  0.001  0.020  0.021
   16  0.008  0.000  0.023  0.031
   17  0.000  0.001  0.020  0.021
   18  0.000  0.001  0.020  0.021
   19  0.005  0.000  0.020  0.025
   20  0.013  0.001  0.024  0.038
   21  0.013  0.001  0.024  0.038
   22  0.001  0.001  0.023  0.024
   23  0.013  0.001  0.024  0.038
   24  0.001  0.001  0.023  0.024
   25  0.005  0.000  0.020  0.025
   26  0.005  0.000  0.020  0.025
   27  0.001  0.001  0.023  0.024
   28  0.002  0.001  0.007  0.009
   29  0.004  0.001  0.009  0.014
   30  0.004  0.001  0.009  0.014
   31  0.004  0.001  0.009  0.014
   32  0.004  0.001  0.009  0.014
   33  0.004  0.001  0.009  0.014
   34  0.004  0.001  0.009  0.014
   35  0.023  0.000  0.005  0.029
   36  0.000  0.003  0.007  0.010
   37  0.000  0.000  0.000  0.000
   38  0.000  0.000  0.000  0.000
tot    0.203  0.028  0.535  0.766
 
band    16 # energy   -5.00228225 # occ.  2.00000000
 
ion      s      p      d    tot
    1  0.040  0.003  0.000  0.043
    2  0.000  0.003  0.010  0.014
    3  0.000  0.003  0.010  0.014
    4  0.000  0.003  0.010  0.014
    5  0.000  0.000  0.001  0.002
    6  0.000  0.003  0.010  0.014
    7  0.000  0.003  0.010  0.014
    8  0.000  0.003  0.010  0.014
    9  0.021  0.003  0.002  0.026
   10  0.005  0.004  0.012  0.021
   11  0.003  0.000  0.015  0.019
   12  0.005  0.004  0.012  0.021
   13  0.003  0.000  0.015  0.019
   14  0.003  0.000  0.015  0.019
   15  0.007  0.003  0.018  0.029
   16  0.005  0.004  0.012  0.021
   17  0.007  0.003  0.018  0.029
   18  0.007  0.003  0.018  0.029
   19  0.004  0.004  0.018  0.025
   20  0.000  0.000  0.016  0.016
   21  0.000  0.000  0.016  0.016
   22  0.014  0.003  0.012  0.028
   23  0.000  0.000  0.016  0.016
   24  0.014  0.003  0.012  0.028
   25  0.004  0.004  0.018  0.025
   26  0.004  0.004  0.018  0.025
   27  0.014  0.003  0.012  0.028
   28  0.041  0.003  0.000  0.044
   29  0.000  0.003  0.010  0.013
   30  0.000  0.003  0.010  0.013
   31  0.000  0.003  0.010  0.013
   32  0.000  0.003  0.010  0.013
   33  0.000  0.003  0.010  0.013
   34  0.000  0.003  0.010  0.013
   35  0.018  0.003  0.003  0.024
   36  0.000  0.000  0.000  0.001
   37  0.000  0.000  0.000  0.000
   38  0.000  0.000  0.000  0.000
tot    0.225  0.086  0.400  0.711
 
band    17 # energy   -4.98725492 # occ.  2.00000000
 
ion      s      p      d    tot
    1  0.000  0.004  0.009  0.012
    2  0.021  0.004  0.006  0.030
    3  0.002  0.002  0.005  0.010
    4  0.021  0.004  0.006  0.030
    5  0.000  0.005  0.010  0.016
    6  0.009  0.003  0.006  0.017
    7  0.003  0.002  0.005  0.010
    8  0.009  0.003  0.006  0.017
    9  0.000  0.000  0.013  0.013
   10  0.017  0.005  0.009  0.031
   11  0.004  0.002  0.023  0.029
   12  0.004  0.001  0.017  0.022
   13  0.003  0.002  0.024  0.029
   14  0.014  0.003  0.005  0.022
   15  0.000  0.002  0.015  0.018
   16  0.004  0.001  0.017  0.023
   17  0.000  0.002  0.015  0.018
   18  0.000  0.000  0.010  0.010
   19  0.002  0.003  0.019  0.023
   20  0.023  0.005  0.005  0.034
   21  0.006  0.002  0.023  0.030
   22  0.001  0.002  0.014  0.017
   23  0.006  0.002  0.022  0.030
   24  0.006  0.002  0.010  0.017
   25  0.006  0.001  0.007  0.014
   26  0.001  0.003  0.019  0.023
   27  0.001  0.002  0.014  0.017
   28  0.000  0.003  0.011  0.014
   29  0.018  0.004  0.006  0.027
   30  0.001  0.002  0.005  0.008
   31  0.018  0.004  0.006  0.027
   32  0.009  0.002  0.006  0.017
   33  0.001  0.002  0.005  0.008
   34  0.010  0.002  0.006  0.018
   35  0.000  0.000  0.009  0.010
   36  0.000  0.006  0.008  0.013
   37  0.000  0.002  0.000  0.002
   38  0.000  0.006  0.000  0.006
tot    0.221  0.100  0.391  0.711
 
band    18 # energy   -4.98720533 # occ.  2.00000000
 
ion      s      p      d    tot
    1  0.000  0.004  0.009  0.012
    2  0.001  0.002  0.005  0.008
    3  0.019  0.004  0.006  0.029
    4  0.001  0.002  0.005  0.008
    5  0.000  0.006  0.010  0.016
    6  0.013  0.003  0.005  0.021
    7  0.019  0.004  0.006  0.028
    8  0.012  0.003  0.005  0.021
    9  0.000  0.000  0.013  0.013
   10  0.000  0.000  0.019  0.019
   11  0.011  0.003  0.011  0.025
   12  0.013  0.004  0.011  0.028
   13  0.011  0.003  0.011  0.024
   14  0.000  0.002  0.030  0.032
   15  0.000  0.001  0.012  0.013
   16  0.012  0.004  0.011  0.028
   17  0.000  0.001  0.011  0.013
   18  0.000  0.003  0.017  0.020
   19  0.004  0.001  0.011  0.017
   20  0.000  0.000  0.028  0.029
   21  0.018  0.004  0.011  0.033
   22  0.004  0.002  0.011  0.017
   23  0.017  0.004  0.011  0.033
   24  0.000  0.002  0.015  0.017
   25  0.000  0.004  0.022  0.026
   26  0.004  0.001  0.011  0.016
   27  0.004  0.002  0.011  0.017
   28  0.000  0.003  0.011  0.014
   29  0.001  0.001  0.005  0.008
   30  0.018  0.004  0.006  0.028
   31  0.001  0.001  0.005  0.008
   32  0.009  0.003  0.005  0.017
   33  0.018  0.003  0.006  0.027
   34  0.009  0.003  0.005  0.017
   35  0.000  0.000  0.009  0.010
   36  0.000  0.006  0.008  0.013
   37  0.000  0.002  0.000  0.002
   38  0.000  0.006  0.000  0.006
tot    0.221  0.100  0.391  0.711
 
band    19 # energy   -4.98572300 # occ.  2.00000000
 
ion      s      p      d    tot
    1  0.000  0.003  0.013  0.015
    2  0.021  0.004  0.005  0.030
    3  0.002  0.002  0.005  0.009
    4  0.021  0.004  0.006  0.030
    5  0.000  0.001  0.011  0.012
    6  0.009  0.003  0.006  0.017
    7  0.002  0.002  0.005  0.009
    8  0.009  0.003  0.006  0.017
    9  0.000  0.006  0.008  0.014
   10  0.000  0.003  0.026  0.029
   11  0.005  0.002  0.011  0.018
   12  0.003  0.001  0.011  0.016
   13  0.005  0.002  0.011  0.018
   14  0.000  0.001  0.014  0.015
   15  0.015  0.004  0.011  0.031
   16  0.003  0.001  0.011  0.016
   17  0.015  0.004  0.011  0.031
   18  0.000  0.001  0.026  0.027
   19  0.013  0.004  0.010  0.028
   20  0.000  0.004  0.018  0.022
   21  0.000  0.001  0.012  0.013
   22  0.013  0.003  0.011  0.027
   23  0.000  0.001  0.012  0.013
   24  0.000  0.002  0.027  0.029
   25  0.000  0.000  0.020  0.020
   26  0.013  0.004  0.011  0.028
   27  0.014  0.003  0.010  0.027
   28  0.000  0.003  0.008  0.011
   29  0.019  0.004  0.005  0.028
   30  0.001  0.002  0.005  0.009
   31  0.019  0.004  0.005  0.028
   32  0.010  0.002  0.005  0.018
   33  0.001  0.002  0.005  0.008
   34  0.010  0.002  0.005  0.017
   35  0.000  0.006  0.010  0.015
   36  0.000  0.000  0.007  0.008
   37  0.000  0.000  0.000  0.000
   38  0.000  0.000  0.000  0.000
tot    0.225  0.094  0.384  0.704
 
band    20 # energy   -4.98567968 # occ.  2.00000000
 
ion      s      p      d    tot
    1  0.000  0.003  0.013  0.015
    2  0.001  0.002  0.005  0.008
    3  0.019  0.004  0.006  0.028
    4  0.001  0.002  0.005  0.008
    5  0.000  0.001  0.011  0.012
    6  0.013  0.003  0.005  0.021
    7  0.019  0.004  0.006  0.028
    8  0.013  0.003  0.005  0.021
    9  0.000  0.006  0.008  0.014
   10  0.004  0.001  0.007  0.011
   11  0.002  0.002  0.013  0.016
   12  0.001  0.003  0.021  0.025
   13  0.002  0.002  0.013  0.016
   14  0.006  0.003  0.010  0.020
   15  0.005  0.002  0.021  0.028
   16  0.001  0.003  0.021  0.025
   17  0.005  0.002  0.021  0.028
   18  0.020  0.006  0.006  0.032
   19  0.004  0.001  0.017  0.022
   20  0.000  0.000  0.010  0.010
   21  0.000  0.003  0.016  0.019
   22  0.005  0.003  0.021  0.029
   23  0.000  0.003  0.016  0.019
   24  0.018  0.003  0.005  0.027
   25  0.018  0.005  0.007  0.030
   26  0.004  0.001  0.017  0.022
   27  0.005  0.003  0.022  0.029
   28  0.000  0.003  0.008  0.011
   29  0.001  0.002  0.005  0.008
   30  0.019  0.004  0.005  0.027
   31  0.001  0.002  0.005  0.008
   32  0.010  0.003  0.005  0.019
   33  0.019  0.004  0.005  0.027
   34  0.010  0.003  0.005  0.019
   35  0.000  0.006  0.009  0.015
   36  0.000  0.001  0.007  0.008
   37  0.000  0.000  0.000  0.000
   38  0.000  0.000  0.000  0.000
tot    0.225  0.094  0.385  0.704
 
band    21 # energy   -4.78153357 # occ.  2.00000000
 
ion      s      p      d    tot
    1  0.013  0.002  0.000  0.015
    2  0.000  0.002  0.011  0.013
    3  0.000  0.002  0.011  0.013
    4  0.000  0.002  0.011  0.013
    5  0.039  0.003  0.000  0.042
    6  0.000  0.002  0.011  0.013
    7  0.000  0.002  0.011  0.013
    8  0.000  0.002  0.011  0.013
    9  0.003  0.001  0.001  0.004
   10  0.001  0.001  0.028  0.030
   11  0.002  0.003  0.023  0.028
   12  0.001  0.001  0.028  0.030
   13  0.002  0.003  0.023  0.028
   14  0.002  0.003  0.023  0.027
   15  0.002  0.001  0.008  0.012
   16  0.001  0.001  0.028  0.030