 vasp.6.2.0 18Jan21 (build Jun 12 2021 23:27:24) complex                        
  
 executed on             LinuxIFC date 2022.05.27  05:07:19
 running on   28 total cores
 distrk:  each k-point on   28 cores,    1 groups
 distr:  one band on NCORE=   1 cores,   28 groups


--------------------------------------------------------------------------------------------------------


 INCAR:
   ISMEAR = -5
   SIGMA = 0.1
   ISPIN = 1
   EDIFF = 1.d-5
   EDIFFG = -0.01
   NSW = 0
   NELM = 150
   ENCUT = 500
   ISIF = 2
   IBRION = 2
   LREAL = Auto
   ALGO = Fast
   ICHARG = 11
   LORBIT = 10
   LCHARG = .F.
   LWAVE = .F.

 POTCAR:    PAW_PBE Au 04Oct2007                  
 POTCAR:    PAW_PBE Mo 08Apr2002                  
 POTCAR:    PAW_PBE O 08Apr2002                   
 POTCAR:    PAW_PBE H 15Jun2001                   
 -----------------------------------------------------------------------------
|                                                                             |
|           W    W    AA    RRRRR   N    N  II  N    N   GGGG   !!!           |
|           W    W   A  A   R    R  NN   N  II  NN   N  G    G  !!!           |
|           W    W  A    A  R    R  N N  N  II  N N  N  G       !!!           |
|           W WW W  AAAAAA  RRRRR   N  N N  II  N  N N  G  GGG   !            |
|           WW  WW  A    A  R   R   N   NN  II  N   NN  G    G                |
|           W    W  A    A  R    R  N    N  II  N    N   GGGG   !!!           |
|                                                                             |
|     For optimal performance we recommend to set                             |
|       NCORE = 2 up to number-of-cores-per-socket                            |
|     NCORE specifies how many cores store one orbital (NPAR=cpu/NCORE).      |
|     This setting can greatly improve the performance of VASP for DFT.       |
|     The default, NCORE=1 might be grossly inefficient on modern             |
|     multi-core architectures or massively parallel machines. Do your        |
|     own testing! More info at https://www.vasp.at/wiki/index.php/NCORE      |
|     Unfortunately you need to use the default for GW and RPA                |
|     calculations (for HF NCORE is supported but not extensively tested      |
|     yet).                                                                   |
|                                                                             |
 -----------------------------------------------------------------------------

 POTCAR:    PAW_PBE Au 04Oct2007                  
   VRHFIN =Au: s1d10                                                                                
   LEXCH  = PE                                                                                      
   EATOM  =   926.0867 eV,   68.0654 Ry                                                             
                                                                                                    
   TITEL  = PAW_PBE Au 04Oct2007                                                                    
   LULTRA =        F    use ultrasoft PP ?                                                          
   IUNSCR =        1    unscreen: 0-lin 1-nonlin 2-no                                               
   RPACOR =    2.330    partial core radius                                                         
   POMASS =  196.966; ZVAL   =   11.000    mass and valenz                                          
   RCORE  =    2.500    outmost cutoff radius                                                       
   RWIGS  =    2.840; RWIGS  =    1.503    wigner-seitz radius (au A)                               
   ENMAX  =  229.943; ENMIN  =  172.457 eV                                                          
   ICORE  =        3    local potential                                                             
   LCOR   =        T    correct aug charges                                                         
   LPAW   =        T    paw PP                                                                      
   EAUG   =  356.670                                                                                
   DEXC   =    0.000                                                                                
   RMAX   =    2.562    core radius for proj-oper                                                   
   RAUG   =    1.300    factor for augmentation sphere                                              
   RDEP   =    2.598    radius for radial grids                                                     
   RDEPT  =    2.193    core radius for aug-charge                                                  
                                                                                                    
   Atomic configuration                                                                             
   16 entries                                                                                       
     n  l   j            E        occ.                                                              
     1  0  0.50    -80748.5001   2.0000                                                             
     2  0  0.50    -14244.7466   2.0000                                                             
     2  1  1.50    -12310.9591   6.0000                                                             
     3  0  0.50     -3362.1768   2.0000                                                             
     3  1  1.50     -2801.5463   6.0000                                                             
     3  2  2.50     -2203.8206  10.0000                                                             
     4  0  0.50      -729.8168   2.0000                                                             
     4  1  1.50      -546.0527   6.0000                                                             
     4  2  2.50      -325.7302  10.0000                                                             
     4  3  3.50       -81.1472  14.0000                                                             
     5  0  0.50      -108.3201   2.0000                                                             
     5  1  1.50       -59.7479   6.0000                                                             
     5  2  2.50        -6.8783  10.0000                                                             
     6  0  0.50        -5.7602   1.0000                                                             
     6  1  1.50        -6.8029   0.0000                                                             
     5  3  2.50        -1.3606   0.0000                                                             
   Description                                                                                      
     l       E           TYP  RCUT    TYP  RCUT                                                     
     2     -6.8782861     23  2.500                                                                 
     2     -8.2388687     23  2.500                                                                 
     0     -5.7601759     23  2.500                                                                 
     0     -0.8493231     23  2.500                                                                 
     1     -2.7211652     23  2.500                                                                 
     1     27.2116520     23  2.500                                                                 
     3     -1.3605826     23  2.500                                                                 
  local pseudopotential read in
  partial core-charges read in
  partial kinetic energy density read in
  atomic valenz-charges read in
  non local Contribution for L=           2  read in
    real space projection operators read in
  non local Contribution for L=           2  read in
    real space projection operators read in
  non local Contribution for L=           0  read in
    real space projection operators read in
  non local Contribution for L=           0  read in
    real space projection operators read in
  non local Contribution for L=           1  read in
    real space projection operators read in
  non local Contribution for L=           1  read in
    real space projection operators read in
    PAW grid and wavefunctions read in
 
   number of l-projection  operators is LMAX  =           6
   number of lm-projection operators is LMMAX =          18
 
 POTCAR:    PAW_PBE Mo 08Apr2002                  
   VRHFIN =Mo: 4p5s4d                                                                               
   LEXCH  = PE                                                                                      
   EATOM  =   217.5176 eV,   15.9871 Ry                                                             
                                                                                                    
   TITEL  = PAW_PBE Mo 08Apr2002                                                                    
   LULTRA =        F    use ultrasoft PP ?                                                          
   IUNSCR =        1    unscreen: 0-lin 1-nonlin 2-no                                               
   RPACOR =    2.200    partial core radius                                                         
   POMASS =   95.940; ZVAL   =    6.000    mass and valenz                                          
   RCORE  =    2.750    outmost cutoff radius                                                       
   RWIGS  =    2.750; RWIGS  =    1.455    wigner-seitz radius (au A)                               
   ENMAX  =  224.584; ENMIN  =  168.438 eV                                                          
   RCLOC  =    2.111    cutoff for local pot                                                        
   LCOR   =        T    correct aug charges                                                         
   LPAW   =        T    paw PP                                                                      
   EAUG   =  345.278                                                                                
   DEXC   =    0.000                                                                                
   RMAX   =    2.821    core radius for proj-oper                                                   
   RAUG   =    1.300    factor for augmentation sphere                                              
   RDEP   =    2.815    radius for radial grids                                                     
   RDEPT  =    2.211    core radius for aug-charge                                                  
                                                                                                    
   Atomic configuration                                                                             
   12 entries                                                                                       
     n  l   j            E        occ.                                                              
     1  0  0.50    -19819.0341   2.0000                                                             
     2  0  0.50     -2799.0127   2.0000                                                             
     2  1  1.50     -2502.0276   6.0000                                                             
     3  0  0.50      -476.4448   2.0000                                                             
     3  1  1.50      -379.1496   6.0000                                                             
     3  2  2.50      -220.9367  10.0000                                                             
     4  0  0.50       -64.3378   2.0000                                                             
     4  1  1.50       -38.4773   6.0000                                                             
     4  2  2.50        -3.7535   5.0000                                                             
     5  0  0.50        -4.0862   1.0000                                                             
     5  1  0.50        -2.7701   0.0000                                                             
     4  3  2.50        -1.3606   0.0000                                                             
   Description                                                                                      
     l       E           TYP  RCUT    TYP  RCUT                                                     
     2     -3.7534765     23  2.500                                                                 
     2     -5.1140591     23  2.500                                                                 
     0     -4.0861560     23  2.600                                                                 
     0     13.6058260     23  2.600                                                                 
     1      5.4423304     23  2.750                                                                 
     1     27.2116520     23  2.750                                                                 
  local pseudopotential read in
  partial core-charges read in
  partial kinetic energy density read in
  atomic valenz-charges read in
  non local Contribution for L=           2  read in
    real space projection operators read in
  non local Contribution for L=           2  read in
    real space projection operators read in
  non local Contribution for L=           0  read in
    real space projection operators read in
  non local Contribution for L=           0  read in
    real space projection operators read in
  non local Contribution for L=           1  read in
    real space projection operators read in
  non local Contribution for L=           1  read in
    real space projection operators read in
    PAW grid and wavefunctions read in
 
   number of l-projection  operators is LMAX  =           6
   number of lm-projection operators is LMMAX =          18
 
 POTCAR:    PAW_PBE O 08Apr2002                   
   VRHFIN =O: s2p4                                                                                  
   LEXCH  = PE                                                                                      
   EATOM  =   432.3788 eV,   31.7789 Ry                                                             
                                                                                                    
   TITEL  = PAW_PBE O 08Apr2002                                                                     
   LULTRA =        F    use ultrasoft PP ?                                                          
   IUNSCR =        1    unscreen: 0-lin 1-nonlin 2-no                                               
   RPACOR =    1.200    partial core radius                                                         
   POMASS =   16.000; ZVAL   =    6.000    mass and valenz                                          
   RCORE  =    1.520    outmost cutoff radius                                                       
   RWIGS  =    1.550; RWIGS  =    0.820    wigner-seitz radius (au A)                               
   ENMAX  =  400.000; ENMIN  =  300.000 eV                                                          
   ICORE  =        2    local potential                                                             
   LCOR   =        T    correct aug charges                                                         
   LPAW   =        T    paw PP                                                                      
   EAUG   =  605.392                                                                                
   DEXC   =    0.000                                                                                
   RMAX   =    1.553    core radius for proj-oper                                                   
   RAUG   =    1.300    factor for augmentation sphere                                              
   RDEP   =    1.550    radius for radial grids                                                     
   RDEPT  =    1.329    core radius for aug-charge                                                  
                                                                                                    
   Atomic configuration                                                                             
    4 entries                                                                                       
     n  l   j            E        occ.                                                              
     1  0  0.50      -514.6923   2.0000                                                             
     2  0  0.50       -23.9615   2.0000                                                             
     2  1  0.50        -9.0305   4.0000                                                             
     3  2  1.50        -9.5241   0.0000                                                             
   Description                                                                                      
     l       E           TYP  RCUT    TYP  RCUT                                                     
     0    -23.9615318     23  1.200                                                                 
     0     -9.5240782     23  1.200                                                                 
     1     -9.0304911     23  1.520                                                                 
     1      8.1634956     23  1.520                                                                 
     2     -9.5240782      7  1.500                                                                 
  local pseudopotential read in
  partial core-charges read in
  partial kinetic energy density read in
  kinetic energy density of atom read in
  atomic valenz-charges read in
  non local Contribution for L=           0  read in
    real space projection operators read in
  non local Contribution for L=           0  read in
    real space projection operators read in
  non local Contribution for L=           1  read in
    real space projection operators read in
  non local Contribution for L=           1  read in
    real space projection operators read in
    PAW grid and wavefunctions read in
 
   number of l-projection  operators is LMAX  =           4
   number of lm-projection operators is LMMAX =           8
 
 POTCAR:    PAW_PBE H 15Jun2001                   
   VRHFIN =H: ultrasoft test                                                                        
   LEXCH  = PE                                                                                      
   EATOM  =    12.4884 eV,    0.9179 Ry                                                             
                                                                                                    
   TITEL  = PAW_PBE H 15Jun2001                                                                     
   LULTRA =        F    use ultrasoft PP ?                                                          
   IUNSCR =        0    unscreen: 0-lin 1-nonlin 2-no                                               
   RPACOR =    0.000    partial core radius                                                         
   POMASS =    1.000; ZVAL   =    1.000    mass and valenz                                          
   RCORE  =    1.100    outmost cutoff radius                                                       
   RWIGS  =    0.700; RWIGS  =    0.370    wigner-seitz radius (au A)                               
   ENMAX  =  250.000; ENMIN  =  200.000 eV                                                          
   RCLOC  =    0.701    cutoff for local pot                                                        
   LCOR   =        T    correct aug charges                                                         
   LPAW   =        T    paw PP                                                                      
   EAUG   =  400.000                                                                                
   RMAX   =    1.123    core radius for proj-oper                                                   
   RAUG   =    1.200    factor for augmentation sphere                                              
   RDEP   =    1.112    radius for radial grids                                                     
   RDEPT  =    0.926    core radius for aug-charge                                                  
                                                                                                    
   Atomic configuration                                                                             
    2 entries                                                                                       
     n  l   j            E        occ.                                                              
     1  0  0.50        -6.4927   1.0000                                                             
     2  1  0.50        -3.4015   0.0000                                                             
   Description                                                                                      
     l       E           TYP  RCUT    TYP  RCUT                                                     
     0     -6.4927494     23  1.100                                                                 
     0      6.8029130     23  1.100                                                                 
     1     -4.0817478     23  1.100                                                                 
  local pseudopotential read in
  atomic valenz-charges read in
  non local Contribution for L=           0  read in
    real space projection operators read in
  non local Contribution for L=           0  read in
    real space projection operators read in
  non local Contribution for L=           1  read in
    real space projection operators read in
    PAW grid and wavefunctions read in
 
   number of l-projection  operators is LMAX  =           3
   number of lm-projection operators is LMMAX =           5
 
 Optimization of the real space projectors (new method)

 maximal supplied QI-value         = 15.12
 optimisation between [QCUT,QGAM] = [ 11.34, 22.83] = [ 36.00,145.93] Ry 
 Optimized for a Real-space Cutoff    1.39 Angstroem

   l    n(q)    QCUT    max X(q) W(low)/X(q) W(high)/X(q)  e(spline) 
   2      9    11.338    60.898    0.39E-03    0.42E-03    0.21E-06
   2      9    11.338    58.894    0.40E-03    0.42E-03    0.22E-06
   0      9    11.338   109.617    0.13E-03    0.20E-04    0.13E-06
   0      9    11.338    75.026    0.13E-03    0.20E-04    0.13E-06
   1      9    11.338    16.344    0.33E-04    0.24E-03    0.18E-06
   1      9    11.338    10.160    0.26E-04    0.19E-03    0.15E-06
 Optimization of the real space projectors (new method)

 maximal supplied QI-value         = 13.61
 optimisation between [QCUT,QGAM] = [ 11.43, 22.86] = [ 36.58,146.31] Ry 
 Optimized for a Real-space Cutoff    1.56 Angstroem

   l    n(q)    QCUT    max X(q) W(low)/X(q) W(high)/X(q)  e(spline) 
   2     10    11.429    80.908    0.27E-03    0.78E-03    0.13E-05
   2     10    11.429    79.000    0.27E-03    0.78E-03    0.13E-05
   0     11    11.429    52.066    0.33E-04    0.97E-04    0.72E-06
   0     11    11.429    24.514    0.27E-04    0.80E-04    0.60E-06
   1     10    11.429    16.033    0.31E-04    0.17E-03    0.36E-06
   1     10    11.429    11.179    0.22E-04    0.13E-03    0.29E-06
 Optimization of the real space projectors (new method)

 maximal supplied QI-value         = 24.76
 optimisation between [QCUT,QGAM] = [ 11.39, 22.77] = [ 36.31,145.25] Ry 
 Optimized for a Real-space Cutoff    1.00 Angstroem

   l    n(q)    QCUT    max X(q) W(low)/X(q) W(high)/X(q)  e(spline) 
   0      7    11.387    20.381    0.39E-03    0.13E-02    0.15E-06
   0      7    11.387    15.268    0.42E-03    0.14E-02    0.17E-06
   1      6    11.387     5.964    0.41E-03    0.11E-02    0.17E-06
   1      6    11.387     5.382    0.39E-03    0.87E-03    0.15E-06
 Optimization of the real space projectors (new method)

 maximal supplied QI-value         = 34.20
 optimisation between [QCUT,QGAM] = [ 11.29, 22.57] = [ 35.68,142.71] Ry 
 Optimized for a Real-space Cutoff    1.16 Angstroem

   l    n(q)    QCUT    max X(q) W(low)/X(q) W(high)/X(q)  e(spline) 
   0      8    11.287    19.460    0.40E-03    0.73E-03    0.16E-06
   0      8    11.287    12.209    0.38E-03    0.70E-03    0.15E-06
   1      7    11.287     4.655    0.22E-03    0.25E-04    0.22E-06
  PAW_PBE Au 04Oct2007                  :
 energy of atom  1       EATOM= -926.0867
 kinetic energy error for atom=    0.0042 (will be added to EATOM!!)
  PAW_PBE Mo 08Apr2002                  :
 energy of atom  2       EATOM= -217.5176
 kinetic energy error for atom=    0.0017 (will be added to EATOM!!)
  PAW_PBE O 08Apr2002                   :
 energy of atom  3       EATOM= -432.3788
 kinetic energy error for atom=    0.0224 (will be added to EATOM!!)
  PAW_PBE H 15Jun2001                   :
 energy of atom  4       EATOM=  -12.4884
 kinetic energy error for atom=    0.0020 (will be added to EATOM!!)
 
 
 POSCAR: Au-Mo-OH
  positions in direct lattice
  velocities in cartesian coordinates
 exchange correlation table for  LEXCH =        8
   RHO(1)=    0.500       N(1)  =     2000
   RHO(2)=  100.500       N(2)  =     4000

 VTST: version 3.2, (02/03/18)

 CHAIN: initializing optimizer
 
 OPT: Using VASP Conjugate-Gradient optimizer
 CHAIN: Read ICHAIN            0
 
 POSCAR: Au-Mo-OH
  positions in direct lattice
  velocities in cartesian coordinates
 


--------------------------------------------------------------------------------------------------------


 ion  position               nearest neighbor table
   1  0.000  0.000  0.238-  16 2.94  12 2.94   6 2.94   8 2.94   7 2.94   3 2.94  10 2.94   4 2.94
                             2 2.94
   2  0.333  0.000  0.238-   9 2.94  11 2.94  17 2.94  10 2.94   8 2.94   4 2.94   5 2.94   1 2.94
                             3 2.94
   3  0.667  0.000  0.238-   7 2.94  18 2.94  12 2.94   1 2.94  11 2.94   5 2.94   6 2.94   9 2.94
                             2 2.94
   4  0.000  0.333  0.238-  10 2.94   6 2.94   5 2.94  13 2.94   2 2.94  15 2.94   9 2.94   1 2.94
                             7 2.94
   5  0.333  0.333  0.238-  13 2.94   7 2.94  11 2.94   4 2.94   2 2.94  14 2.94   3 2.94   8 2.94
                             6 2.94
   6  0.667  0.333  0.238-  15 2.94  14 2.94   1 2.94  12 2.94   4 2.94   9 2.94   8 2.94   3 2.94
                             5 2.94
   7  0.000  0.667  0.238-  18 2.94   3 2.94  16 2.94   5 2.94   1 2.94  13 2.94   8 2.94   4 2.94
                             9 2.94
   8  0.333  0.667  0.238-   9 2.94  17 2.94   1 2.94   2 2.94  14 2.94  16 2.94   6 2.94   7 2.94
                             5 2.94
   9  0.667  0.667  0.238-   2 2.94   8 2.94  17 2.94   6 2.94  15 2.94   4 2.94   3 2.94  18 2.94
                             7 2.94
  10  0.111  0.111  0.346-  20 2.91  11 2.94  17 2.94   2 2.94   4 2.94   1 2.94  12 2.94  16 2.94
                            13 2.94  15 2.94  26 2.95  19 2.95
  11  0.444  0.111  0.346-  20 2.91  21 2.91  13 2.94   2 2.94  10 2.94  17 2.94   5 2.94   3 2.94
                            18 2.94  14 2.94  12 2.94  27 2.94
  12  0.778  0.111  0.346-  21 2.91  16 2.94  18 2.94   1 2.94  14 2.94  15 2.94   3 2.94   6 2.94
                            10 2.94  11 2.94  25 2.95  19 2.95
  13  0.111  0.444  0.346-  23 2.91  20 2.91   5 2.94  18 2.94  11 2.94   7 2.94   4 2.94  16 2.94
                            10 2.94  14 2.94  15 2.94  22 2.94
  14  0.444  0.444  0.346-  21 2.91  23 2.91  15 2.94   6 2.94  12 2.94   8 2.94  17 2.94   5 2.94
                            16 2.94  13 2.94  11 2.94  24 2.94
  15  0.778  0.444  0.346-  24 2.93  22 2.93  14 2.94   6 2.94  17 2.94  12 2.94   9 2.94   4 2.94
                            10 2.94  13 2.94  18 2.94  19 2.95
  16  0.111  0.778  0.346-  23 2.91  18 2.94  12 2.94   7 2.94   1 2.94   8 2.94  13 2.94  10 2.94
                            14 2.94  17 2.94  25 2.95  26 2.95
  17  0.444  0.778  0.346-  27 2.93  24 2.93   9 2.94  15 2.94   2 2.94  10 2.94  11 2.94   8 2.94
                            14 2.94  16 2.94  18 2.94  26 2.95
  18  0.778  0.778  0.346-  22 2.93  27 2.93  16 2.94   7 2.94  13 2.94  12 2.94   3 2.94  11 2.94
                             9 2.94  15 2.94  17 2.94  25 2.95
  19  0.889  0.223  0.455-  24 2.93  22 2.93  21 2.94  20 2.94  28 2.95  26 2.95  25 2.95  15 2.95
                            10 2.95  12 2.95  32 3.02  31 3.02
  20  0.222  0.222  0.453-  36 2.77  11 2.91  13 2.91  10 2.91  23 2.94  21 2.94  26 2.94  19 2.94
                            27 2.95  22 2.95  29 2.98  31 2.98
  21  0.555  0.222  0.453-  36 2.77  14 2.91  11 2.91  12 2.91  20 2.94  23 2.94  25 2.94  19 2.94
                            27 2.95  24 2.95  30 2.98  32 2.98
  22  0.887  0.557  0.454-  24 2.91  27 2.91  18 2.93  15 2.93  25 2.93  19 2.93  13 2.94  35 2.95
                            23 2.95  20 2.95  33 3.00  31 3.00
  23  0.222  0.555  0.453-  36 2.77  13 2.91  14 2.91  16 2.91  20 2.94  21 2.94  25 2.94  26 2.94
                            22 2.95  24 2.95  33 2.98  34 2.98
  24  0.557  0.557  0.454-  27 2.91  22 2.91  15 2.93  17 2.93  26 2.93  19 2.93  14 2.94  35 2.95
                            21 2.95  23 2.95  32 3.00  34 3.00
  25  0.889  0.889  0.455-  22 2.93  27 2.93  23 2.94  21 2.94  28 2.95  19 2.95  26 2.95  18 2.95
                            16 2.95  12 2.95  33 3.02  30 3.02
  26  0.223  0.889  0.455-  27 2.93  24 2.93  20 2.94  23 2.94  28 2.95  19 2.95  25 2.95  17 2.95
                            10 2.95  16 2.95  29 3.02  34 3.02
  27  0.557  0.887  0.454-  24 2.91  22 2.91  17 2.93  18 2.93  26 2.93  25 2.93  11 2.94  35 2.95
                            20 2.95  21 2.95  29 3.00  30 3.00
  28  0.000  0.000  0.563-  25 2.95  19 2.95  26 2.95  34 2.98  32 2.98  33 2.98  30 2.98  31 2.98
                            29 2.98
  29  0.333  0.010  0.565-  30 2.85  31 2.85  36 2.87  20 2.98  35 2.98  28 2.98  27 3.00  26 3.02
                            34 3.11
  30  0.657  0.010  0.565-  29 2.85  32 2.85  36 2.87  21 2.98  35 2.98  28 2.98  27 3.00  25 3.02
                            33 3.11
  31  0.010  0.333  0.565-  33 2.85  29 2.85  36 2.87  20 2.98  35 2.98  28 2.98  22 3.00  19 3.02
                            32 3.11
  32  0.657  0.333  0.565-  34 2.85  30 2.85  36 2.87  21 2.98  35 2.98  28 2.98  24 3.00  19 3.02
                            31 3.11
  33  0.010  0.657  0.565-  31 2.85  34 2.85  36 2.87  23 2.98  35 2.98  28 2.98  22 3.00  25 3.02
                            30 3.11
  34  0.333  0.657  0.565-  32 2.85  33 2.85  36 2.87  23 2.98  35 2.98  28 2.98  24 3.00  26 3.02
                            29 3.11
  35  0.667  0.667  0.563-  24 2.95  27 2.95  22 2.95  29 2.98  34 2.98  32 2.98  31 2.98  30 2.98
                            33 2.98
  36  0.333  0.333  0.551-  37 1.87  20 2.77  23 2.77  21 2.77  33 2.87  31 2.87  29 2.87  30 2.87
                            34 2.87  32 2.87
  37  0.333  0.333  0.636-  38 0.97  36 1.87
  38  0.333  0.333  0.679-  37 0.97
 
  LATTYP: Found a hexagonal cell.
 ALAT       =     8.8135128021
 C/A-ratio  =     2.5184286595
  
  Lattice vectors:
  
 A1 = (  -4.4067569092,  -7.6327256898,   0.0000000000)
 A2 = (   8.8135128021,   0.0000000000,   0.0000000000)
 A3 = (   0.0000000000,   0.0000000000,  22.1962032318)


Analysis of symmetry for initial positions (statically):
=====================================================================
 Subroutine PRICEL returns:
 Original cell was already a primitive cell.
 

 Routine SETGRP: Setting up the symmetry group for a 
 hexagonal supercell.


 Subroutine GETGRP returns: Found  6 space group operations
 (whereof  6 operations were pure point group operations)
 out of a pool of 24 trial point group operations.


The static configuration has the point symmetry C_3v.


Analysis of symmetry for dynamics (positions and initial velocities):
=====================================================================
 Subroutine PRICEL returns:
 Original cell was already a primitive cell.
 

 Routine SETGRP: Setting up the symmetry group for a 
 hexagonal supercell.


 Subroutine GETGRP returns: Found  6 space group operations
 (whereof  6 operations were pure point group operations)
 out of a pool of 24 trial point group operations.


The dynamic configuration has the point symmetry C_3v.


Analysis of constrained symmetry for selective dynamics:
=====================================================================
 Subroutine PRICEL returns:
 Original cell was already a primitive cell.
 

 Routine SETGRP: Setting up the symmetry group for a 
 hexagonal supercell.


 Subroutine GETGRP returns: Found  6 space group operations
 (whereof  6 operations were pure point group operations)
 out of a pool of 24 trial point group operations.


The constrained configuration has the point symmetry C_3v.


 Subroutine INISYM returns: Found  6 space group operations
 (whereof  6 operations are pure point group operations),
 and found     1 'primitive' translations


----------------------------------------------------------------------------------------

                                     Primitive cell                                     

  volume of cell :    1493.1636

  direct lattice vectors                    reciprocal lattice vectors
     8.813512802  0.000000000  0.000000000     0.113462137 -0.065507406  0.000000000
     4.406756909  7.632725690  0.000000000     0.000000000  0.131014796  0.000000000
     0.000000000  0.000000000 22.196203232     0.000000000  0.000000000  0.045052750

  length of vectors
     8.813512802  8.813512802 22.196203232     0.131014796  0.131014796  0.045052750

  position of ions in fractional coordinates (direct lattice)
     0.000000000  0.000000000  0.237895638
     0.333333343  0.000000000  0.237895638
     0.666666687  0.000000000  0.237895638
     1.000000000  0.333333343  0.237895638
     0.333333313  0.333333343  0.237895638
     0.666666687  0.333333343  0.237895638
     1.000000000  0.666666687  0.237895638
     0.333333343  0.666666687  0.237895638
     0.666666627  0.666666687  0.237895638
     0.111111119  0.111111112  0.345965207
     0.444444418  0.111111112  0.345965207
     0.777777791  0.111111112  0.345965207
     0.111111127  0.444444448  0.345965207
     0.444444478  0.444444448  0.345965207
     0.777777731  0.444444448  0.345965207
     0.111111090  0.777777791  0.345965207
     0.444444448  0.777777791  0.345965207
     0.777777851  0.777777791  0.345965207
     0.888518739  0.222962538  0.454757985
     0.222314337  0.222314322  0.452545314
     0.555371387  0.222314322  0.452545314
     0.886544633  0.556727714  0.453613148
     0.222314292  0.555371387  0.452545314
     0.556727714  0.556727714  0.453613148
     0.888518739  0.888518739  0.454757985
     0.222962568  0.888518739  0.454757985
     0.556727654  0.886544633  0.453613148
     0.000000000  0.000000000  0.563129614
     0.333456407  0.009911723  0.564946950
     0.656631900  0.009911723  0.564946950
     0.009911723  0.333456407  0.564946950
     0.656631900  0.333456407  0.564946950
     0.009911723  0.656631900  0.564946950
     0.333456407  0.656631900  0.564946950
     0.666666627  0.666666687  0.563093302
     0.333333313  0.333333343  0.551198178
     0.333333313  0.333333343  0.635535793
     0.333333313  0.333333343  0.679094850

  ion indices of the primitive-cell ions
   primitive index   ion index
                 1           1
                 2           2
                 3           3
                 4           4
                 5           5
                 6           6
                 7           7
                 8           8
                 9           9
                10          10
                11          11
                12          12
                13          13
                14          14
                15          15
                16          16
                17          17
                18          18
                19          19
                20          20
                21          21
                22          22
                23          23
                24          24
                25          25
                26          26
                27          27
                28          28
                29          29
                30          30
                31          31
                32          32
                33          33
                34          34
                35          35
                36          36
                37          37
                38          38

----------------------------------------------------------------------------------------

 
 
 KPOINTS: Automatic mesh                          

Automatic generation of k-mesh.
 Grid dimensions read from file:
 generate k-points for:    8    8    1

 Generating k-lattice:

  Cartesian coordinates                     Fractional coordinates (reciprocal lattice)
     0.014182767 -0.008188426  0.000000000     0.125000000 -0.000000000  0.000000000
     0.000000000  0.016376850  0.000000000     0.000000000  0.125000000  0.000000000
     0.000000000  0.000000000  0.045052750     0.000000000  0.000000000  1.000000000

  Length of vectors
     0.016376850  0.016376850  0.045052750

  Shift w.r.t. Gamma in fractional coordinates (k-lattice)
     0.000000000  0.000000000  0.000000000

 TETIRR: Found     36 inequivalent tetrahedra from      384
 
 Subroutine IBZKPT returns following result:
 ===========================================
 
 Found     10 irreducible k-points:
 
 Following reciprocal coordinates:
            Coordinates               Weight
  0.000000  0.000000  0.000000      1.000000
  0.125000 -0.000000  0.000000      6.000000
  0.250000 -0.000000  0.000000      6.000000
  0.375000  0.000000  0.000000      6.000000
  0.500000 -0.000000  0.000000      3.000000
  0.250000  0.125000  0.000000      6.000000
  0.375000  0.125000  0.000000     12.000000
  0.500000  0.125000  0.000000     12.000000
  0.500000  0.250000  0.000000      6.000000
 -0.375000  0.250000  0.000000      6.000000
 
 Following cartesian coordinates:
            Coordinates               Weight
  0.000000  0.000000  0.000000      1.000000
  0.014183 -0.008188  0.000000      6.000000
  0.028366 -0.016377  0.000000      6.000000
  0.042548 -0.024565  0.000000      6.000000
  0.056731 -0.032754  0.000000      3.000000
  0.028366 -0.000000  0.000000      6.000000
  0.042548 -0.008188  0.000000     12.000000
  0.056731 -0.016377  0.000000     12.000000
  0.056731 -0.000000  0.000000      6.000000
 -0.042548  0.057319  0.000000      6.000000
 


--------------------------------------------------------------------------------------------------------




 Dimension of arrays:
   k-points           NKPTS =     10   k-points in BZ     NKDIM =     10   number of bands    NBANDS=    252
   number of dos      NEDOS =    301   number of ions     NIONS =     38
   non local maximal  LDIM  =      6   non local SUM 2l+1 LMDIM =     18
   total plane-waves  NPLWV = 290304
   max r-space proj   IRMAX =   3166   max aug-charges    IRDMAX=  12681
   dimension x,y,z NGX =    48 NGY =   48 NGZ =  126
   dimension x,y,z NGXF=    96 NGYF=   96 NGZF=  252
   support grid    NGXF=    96 NGYF=   96 NGZF=  252
   ions per type =              35   1   1   1
   NGX,Y,Z   is equivalent  to a cutoff of   9.05,  9.05,  9.44 a.u.
   NGXF,Y,Z  is equivalent  to a cutoff of  18.11, 18.11, 18.87 a.u.

 SYSTEM =  unknown system                          
 POSCAR =  Au-Mo-OH                                

 Startparameter for this run:
   NWRITE =      2    write-flag & timer
   PREC   = normal    normal or accurate (medium, high low for compatibility)
   ISTART =      0    job   : 0-new  1-cont  2-samecut
   ICHARG =     11    charge: 1-file 2-atom 10-const
   ISPIN  =      1    spin polarized calculation?
   LNONCOLLINEAR =      F non collinear calculations
   LSORBIT =      F    spin-orbit coupling
   INIWAV =      1    electr: 0-lowe 1-rand  2-diag
   LASPH  =      F    aspherical Exc in radial PAW
   METAGGA=      F    non-selfconsistent MetaGGA calc.

 Electronic Relaxation 1
   ENCUT  =  500.0 eV  36.75 Ry    6.06 a.u.  16.07 16.07 40.47*2*pi/ulx,y,z
   ENINI  =  500.0     initial cutoff
   ENAUG  =  605.4 eV  augmentation charge cutoff
   NELM   =    150;   NELMIN=  2; NELMDL= -5     # of ELM steps 
   EDIFF  = 0.1E-04   stopping-criterion for ELM
   LREAL  =      T    real-space projection
   NLSPLINE    = F    spline interpolate recip. space projectors
   LCOMPAT=      F    compatible to vasp.4.4
   GGA_COMPAT  = T    GGA compatible to vasp.4.4-vasp.4.6
   LMAXPAW     = -100 max onsite density
   LMAXMIX     =    2 max onsite mixed and CHGCAR
   VOSKOWN=      0    Vosko Wilk Nusair interpolation
   ROPT   =   -0.00050  -0.00050  -0.00050  -0.00050
 Ionic relaxation
   EDIFFG = -.1E-01   stopping-criterion for IOM
   NSW    =      0    number of steps for IOM
   NBLOCK =      1;   KBLOCK =      1    inner block; outer block 
   IBRION =     -1    ionic relax: 0-MD 1-quasi-New 2-CG
   NFREE  =      1    steps in history (QN), initial steepest desc. (CG)
   ISIF   =      2    stress and relaxation
   IWAVPR =     10    prediction:  0-non 1-charg 2-wave 3-comb
   ISYM   =      2    0-nonsym 1-usesym 2-fastsym
   LCORR  =      T    Harris-Foulkes like correction to forces

   POTIM  = 0.5000    time-step for ionic-motion
   TEIN   =    0.0    initial temperature
   TEBEG  =    0.0;   TEEND  =   0.0 temperature during run
   SMASS  =  -3.00    Nose mass-parameter (am)
   estimated Nose-frequenzy (Omega)   =  0.10E-29 period in steps = 0.13E+47 mass=  -0.178E-26a.u.
   SCALEE = 1.0000    scale energy and forces
   NPACO  =    256;   APACO  = 16.0  distance and # of slots for P.C.
   PSTRESS=    0.0 pullay stress

  Mass of Ions in am
   POMASS = 196.97 95.94 16.00  1.00
  Ionic Valenz
   ZVAL   =  11.00  6.00  6.00  1.00
  Atomic Wigner-Seitz radii
   RWIGS  =  -1.00 -1.00 -1.00 -1.00
  virtual crystal weights 
   VCA    =   1.00  1.00  1.00  1.00
   NELECT =     398.0000    total number of electrons
   NUPDOWN=      -1.0000    fix difference up-down

 DOS related values:
   EMIN   =  10.00;   EMAX   =-10.00  energy-range for DOS
   EFERMI =   0.00
   ISMEAR =    -5;   SIGMA  =   0.10  broadening in eV -4-tet -1-fermi 0-gaus

 Electronic relaxation 2 (details)
   IALGO  =     68    algorithm
   LDIAG  =      T    sub-space diagonalisation (order eigenvalues)
   LSUBROT=      F    optimize rotation matrix (better conditioning)
   TURBO    =      0    0=normal 1=particle mesh
   IRESTART =      0    0=no restart 2=restart with 2 vectors
   NREBOOT  =      0    no. of reboots
   NMIN     =      0    reboot dimension
   EREF     =   0.00    reference energy to select bands
   IMIX   =      4    mixing-type and parameters
     AMIX     =   0.40;   BMIX     =  1.00
     AMIX_MAG =   1.60;   BMIX_MAG =  1.00
     AMIN     =   0.10
     WC   =   100.;   INIMIX=   1;  MIXPRE=   1;  MAXMIX= -45

 Intra band minimization:
   WEIMIN = 0.0000     energy-eigenvalue tresh-hold
   EBREAK =  0.99E-08  absolut break condition
   DEPER  =   0.30     relativ break condition  

   TIME   =   0.40     timestep for ELM

  volume/ion in A,a.u.               =      39.29       265.17
  Fermi-wavevector in a.u.,A,eV,Ry     =   1.053578  1.990974 15.102831  1.110027
  Thomas-Fermi vector in A             =   2.188705
 
 Write flags
   LWAVE        =      F    write WAVECAR
   LDOWNSAMPLE  =      F    k-point downsampling of WAVECAR
   LCHARG       =      F    write CHGCAR
   LVTOT        =      F    write LOCPOT, total local potential
   LVHAR        =      F    write LOCPOT, Hartree potential only
   LELF         =      F    write electronic localiz. function (ELF)
   LORBIT       =     10    0 simple, 1 ext, 2 COOP (PROOUT), +10 PAW based schemes


 Dipole corrections
   LMONO  =      F    monopole corrections only (constant potential shift)
   LDIPOL =      F    correct potential (dipole corrections)
   IDIPOL =      0    1-x, 2-y, 3-z, 4-all directions 
   EPSILON=  1.0000000 bulk dielectric constant

 Exchange correlation treatment:
   GGA     =    --    GGA type
   LEXCH   =     8    internal setting for exchange type
   VOSKOWN=      0    Vosko Wilk Nusair interpolation
   LHFCALC =     F    Hartree Fock is set to
   LHFONE  =     F    Hartree Fock one center treatment
   AEXX    =    0.0000 exact exchange contribution

 Linear response parameters
   LEPSILON=     F    determine dielectric tensor
   LRPA    =     F    only Hartree local field effects (RPA)
   LNABLA  =     F    use nabla operator in PAW spheres
   LVEL    =     F    velocity operator in full k-point grid
   LINTERFAST=   F  fast interpolation
   KINTER  =     0    interpolate to denser k-point grid
   CSHIFT  =0.1000    complex shift for real part using Kramers Kronig
   OMEGAMAX=  -1.0    maximum frequency
   DEG_THRESHOLD= 0.2000000E-02 threshold for treating states as degnerate
   RTIME   =   -0.100 relaxation time in fs
  (WPLASMAI=    0.000 imaginary part of plasma frequency in eV, 0.658/RTIME)
   DFIELD  = 0.0000000 0.0000000 0.0000000 field for delta impulse in time
 
 Orbital magnetization related:
   ORBITALMAG=     F  switch on orbital magnetization
   LCHIMAG   =     F  perturbation theory with respect to B field
   DQ        =  0.001000  dq finite difference perturbation B field
   LLRAUG    =     F  two centre corrections for induced B field



--------------------------------------------------------------------------------------------------------


 Static calculation
 charge density and potential remain constant during run
 non-spin polarized calculation
 RMM-DIIS sequential band-by-band and
  variant of blocked Davidson during initial phase
 perform sub-space diagonalisation
    before iterative eigenvector-optimisation
 no mixing
 using additional bands           53
 real space projection scheme for non local part
 use partial core corrections
 calculate Harris-corrections to forces 
   (improved forces if not selfconsistent)
 use gradient corrections 
 WARNING: stress and forces are not correct
  (second derivative of E(xc) not defined)
 use of overlap-Matrix (Vanderbilt PP)
 Fermi weights with tetrahedron method with Bloechl corrections


--------------------------------------------------------------------------------------------------------


  energy-cutoff  :      500.00
  volume of cell :     1493.16
      direct lattice vectors                 reciprocal lattice vectors
     8.813512802  0.000000000  0.000000000     0.113462137 -0.065507406  0.000000000
     4.406756909  7.632725690  0.000000000     0.000000000  0.131014796  0.000000000
     0.000000000  0.000000000 22.196203232     0.000000000  0.000000000  0.045052750

  length of vectors
     8.813512802  8.813512802 22.196203232     0.131014796  0.131014796  0.045052750


 
 k-points in units of 2pi/SCALE and weight: Automatic mesh                          
   0.00000000  0.00000000  0.00000000       0.016
   0.01418277 -0.00818843  0.00000000       0.094
   0.02836553 -0.01637685  0.00000000       0.094
   0.04254830 -0.02456528  0.00000000       0.094
   0.05673107 -0.03275370  0.00000000       0.047
   0.02836553 -0.00000000  0.00000000       0.094
   0.04254830 -0.00818843  0.00000000       0.188
   0.05673107 -0.01637685  0.00000000       0.188
   0.05673107 -0.00000000  0.00000000       0.094
  -0.04254830  0.05731898  0.00000000       0.094
 
 k-points in reciprocal lattice and weights: Automatic mesh                          
   0.00000000  0.00000000  0.00000000       0.016
   0.12500000 -0.00000000  0.00000000       0.094
   0.25000000 -0.00000000  0.00000000       0.094
   0.37500000  0.00000000  0.00000000       0.094
   0.50000000 -0.00000000  0.00000000       0.047
   0.25000000  0.12500000  0.00000000       0.094
   0.37500000  0.12500000  0.00000000       0.188
   0.50000000  0.12500000  0.00000000       0.188
   0.50000000  0.25000000  0.00000000       0.094
  -0.37500000  0.25000000  0.00000000       0.094
 
 position of ions in fractional coordinates (direct lattice) 
   0.00000000  0.00000000  0.23789564
   0.33333334  0.00000000  0.23789564
   0.66666669  0.00000000  0.23789564
   0.00000000  0.33333334  0.23789564
   0.33333331  0.33333334  0.23789564
   0.66666669  0.33333334  0.23789564
   0.00000000  0.66666669  0.23789564
   0.33333334  0.66666669  0.23789564
   0.66666663  0.66666669  0.23789564
   0.11111112  0.11111111  0.34596521
   0.44444442  0.11111111  0.34596521
   0.77777779  0.11111111  0.34596521
   0.11111113  0.44444445  0.34596521
   0.44444448  0.44444445  0.34596521
   0.77777773  0.44444445  0.34596521
   0.11111109  0.77777779  0.34596521
   0.44444445  0.77777779  0.34596521
   0.77777785  0.77777779  0.34596521
   0.88851874  0.22296254  0.45475798
   0.22231434  0.22231432  0.45254531
   0.55537139  0.22231432  0.45254531
   0.88654463  0.55672771  0.45361315
   0.22231429  0.55537139  0.45254531
   0.55672771  0.55672771  0.45361315
   0.88851874  0.88851874  0.45475798
   0.22296257  0.88851874  0.45475798
   0.55672765  0.88654463  0.45361315
   0.00000000  0.00000000  0.56312961
   0.33345641  0.00991172  0.56494695
   0.65663190  0.00991172  0.56494695
   0.00991172  0.33345641  0.56494695
   0.65663190  0.33345641  0.56494695
   0.00991172  0.65663190  0.56494695
   0.33345641  0.65663190  0.56494695
   0.66666663  0.66666669  0.56309330
   0.33333331  0.33333334  0.55119818
   0.33333331  0.33333334  0.63553579
   0.33333331  0.33333334  0.67909485
 
 position of ions in cartesian coordinates  (Angst):
   0.00000000  0.00000000  5.28037993
   2.93783769  0.00000000  5.28037993
   5.87567538  0.00000000  5.28037993
   1.46891901  2.54424197  5.28037993
   4.40675643  2.54424197  5.28037993
   7.34459439  2.54424197  5.28037993
   2.93783803  5.08848395  5.28037993
   5.87567571  5.08848395  5.28037993
   8.81351288  5.08848395  5.28037993
   1.46891893  0.84808064  7.67911405
   4.40675623  0.84808064  7.67911405
   7.34459418  0.84808064  7.67911405
   2.93783798  3.39232256  7.67911405
   5.87567574  3.39232256  7.67911405
   8.81351263  3.39232256  7.67911405
   4.40675667  5.93656453  7.67911405
   7.34459449  5.93656453  7.67911405
  10.28243270  5.93656453  7.67911405
   8.81351299  1.70181189 10.09390065
   2.93905542  1.69686423 10.04478777
   5.87445800  1.69686423 10.04478777
  10.26693617  4.24934992 10.06848962
   4.40675655  4.23899745 10.04478777
   7.36009053  4.24934992 10.06848962
  11.74645737  6.78181981 10.09390065
   5.88056954  6.78181981 10.09390065
   8.81351299  6.76675199 10.06848962
   0.00000000  0.00000000 12.49933935
   2.98260087  0.07565346 12.53967732
   5.83091221  0.07565346 12.53967732
   1.55681842  2.54518129 12.53967732
   7.25669498  2.54518129 12.53967732
   2.98097426  5.01189117 12.53967732
   5.83253948  5.01189117 12.53967732
   8.81351288  5.08848395 12.49853336
   4.40675643  2.54424197 12.23450679
   4.40675643  2.54424197 14.10648163
   4.40675643  2.54424197 15.07332730
 


--------------------------------------------------------------------------------------------------------


 k-point   1 :   0.0000 0.0000 0.0000  plane waves:   37827
 k-point   2 :   0.1250-0.0000 0.0000  plane waves:   37876
 k-point   3 :   0.2500-0.0000 0.0000  plane waves:   37924
 k-point   4 :   0.3750 0.0000 0.0000  plane waves:   37904
 k-point   5 :   0.5000-0.0000 0.0000  plane waves:   37912
 k-point   6 :   0.2500 0.1250 0.0000  plane waves:   37858
 k-point   7 :   0.3750 0.1250 0.0000  plane waves:   37928
 k-point   8 :   0.5000 0.1250 0.0000  plane waves:   37924
 k-point   9 :   0.5000 0.2500 0.0000  plane waves:   37926
 k-point  10 :  -0.3750 0.2500 0.0000  plane waves:   37916

 maximum and minimum number of plane-waves per node :     37928    37827

 maximum number of plane-waves:     37928
 maximum index in each direction: 
   IXMAX=   16   IYMAX=   16   IZMAX=   40
   IXMIN=  -16   IYMIN=  -16   IZMIN=  -40


 serial   3D FFT for wavefunctions
 parallel 3D FFT for charge:
    minimum data exchange during FFTs selected (reduces bandwidth)


 total amount of memory used by VASP MPI-rank0   123511. kBytes
=======================================================================

   base      :      30000. kBytes
   nonlr-proj:      14331. kBytes
   fftplans  :       4330. kBytes
   grid      :      18659. kBytes
   one-center:        590. kBytes
   wavefun   :      55601. kBytes
 
     INWAV:  cpu time    0.0000: real time    0.0000
 initial charge density was supplied:
 number of electron     398.0000075 magnetization 
 keeping initial charge density in first step


--------------------------------------------------------------------------------------------------------


 Maximum index for non-local projection operator         3036
 Maximum index for augmentation-charges          857 (set IRDMAX)


--------------------------------------------------------------------------------------------------------


 First call to EWALD:  gamma=   0.155
 Maximum number of real-space cells 4x 4x 2
 Maximum number of reciprocal cells 2x 2x 5

    FEWALD:  cpu time    0.0013: real time    0.0013


--------------------------------------- Iteration      1(   1)  ---------------------------------------


    POTLOK:  cpu time    0.0452: real time    0.0454
    SETDIJ:  cpu time    0.0049: real time    0.0051
     EDDAV:  cpu time    7.1110: real time    7.1126
 BZINTS: Fermi energy:   11.375541;  398.000000 electrons
         Band energy: 0.157418E+04;  BLOECHL correction:   -0.015997
       DOS:  cpu time    0.0106: real time    0.0107
    --------------------------------------------
      LOOP:  cpu time    7.1718: real time    7.1738

 eigenvalue-minimisations  :  5040
 total energy-change (2. order) : 0.2601467E+04  (-0.1804925E+05)
 number of electron     398.0000075 magnetization 
 augmentation part      398.0000075 magnetization 

 Free energy of the ion-electron system (eV)
  ---------------------------------------------------
  alpha Z        PSCENC =      1025.18887273
  Ewald energy   TEWEN  =     94616.75373381
  -Hartree energ DENC   =   -128973.35436502
  -exchange      EXHF   =         0.00000000
  -V(xc)+E(xc)   XCENC  =       487.83671964
  PAW double counting   =     36093.46183662   -35297.84629932
  entropy T*S    EENTRO =         0.00000000
  eigenvalues    EBANDS =      1574.18159612
  atomic energy  EATOM  =     33075.24495812
  Solvation  Ediel_sol  =         0.00000000
  ---------------------------------------------------
  free energy    TOTEN  =      2601.46705271 eV

  energy without entropy =     2601.46705271  energy(sigma->0) =     2601.46705271


--------------------------------------------------------------------------------------------------------




--------------------------------------- Iteration      1(   2)  ---------------------------------------


     EDDAV:  cpu time    7.7058: real time    7.7061
 BZINTS: Fermi energy:    1.673619;  398.000000 electrons
         Band energy:-0.102068E+04;  BLOECHL correction:   -0.044288
       DOS:  cpu time    0.0101: real time    0.0101
    --------------------------------------------
      LOOP:  cpu time    7.7160: real time    7.7162

 eigenvalue-minimisations  :  5600
 total energy-change (2. order) :-0.2594858E+04  (-0.2394704E+04)
 number of electron     398.0000075 magnetization 
 augmentation part      398.0000075 magnetization 

 Free energy of the ion-electron system (eV)
  ---------------------------------------------------
  alpha Z        PSCENC =      1025.18887273
  Ewald energy   TEWEN  =     94616.75373381
  -Hartree energ DENC   =   -128973.35436502
  -exchange      EXHF   =         0.00000000
  -V(xc)+E(xc)   XCENC  =       487.83671964
  PAW double counting   =     36093.46183662   -35297.84629932
  entropy T*S    EENTRO =         0.00000000
  eigenvalues    EBANDS =     -1020.67609507
  atomic energy  EATOM  =     33075.24495812
  Solvation  Ediel_sol  =         0.00000000
  ---------------------------------------------------
  free energy    TOTEN  =         6.60936152 eV

  energy without entropy =        6.60936152  energy(sigma->0) =        6.60936152


--------------------------------------------------------------------------------------------------------




--------------------------------------- Iteration      1(   3)  ---------------------------------------


     EDDAV:  cpu time    8.0382: real time    8.0384
 BZINTS: Fermi energy:    0.976045;  398.000000 electrons
         Band energy:-0.115103E+04;  BLOECHL correction:   -0.034250
       DOS:  cpu time    0.0098: real time    0.0098
    --------------------------------------------
      LOOP:  cpu time    8.0481: real time    8.0482

 eigenvalue-minimisations  :  5880
 total energy-change (2. order) :-0.1303572E+03  (-0.1258050E+03)
 number of electron     398.0000075 magnetization 
 augmentation part      398.0000075 magnetization 

 Free energy of the ion-electron system (eV)
  ---------------------------------------------------
  alpha Z        PSCENC =      1025.18887273
  Ewald energy   TEWEN  =     94616.75373381
  -Hartree energ DENC   =   -128973.35436502
  -exchange      EXHF   =         0.00000000
  -V(xc)+E(xc)   XCENC  =       487.83671964
  PAW double counting   =     36093.46183662   -35297.84629932
  entropy T*S    EENTRO =         0.00000000
  eigenvalues    EBANDS =     -1151.03327376
  atomic energy  EATOM  =     33075.24495812
  Solvation  Ediel_sol  =         0.00000000
  ---------------------------------------------------
  free energy    TOTEN  =      -123.74781717 eV

  energy without entropy =     -123.74781717  energy(sigma->0) =     -123.74781717


--------------------------------------------------------------------------------------------------------




--------------------------------------- Iteration      1(   4)  ---------------------------------------


     EDDAV:  cpu time    7.5893: real time    7.5894
 BZINTS: Fermi energy:    0.959235;  398.000000 electrons
         Band energy:-0.115372E+04;  BLOECHL correction:   -0.033989
       DOS:  cpu time    0.0100: real time    0.0100
    --------------------------------------------
      LOOP:  cpu time    7.5993: real time    7.5995

 eigenvalue-minimisations  :  5488
 total energy-change (2. order) :-0.2688238E+01  (-0.2682995E+01)
 number of electron     398.0000075 magnetization 
 augmentation part      398.0000075 magnetization 

 Free energy of the ion-electron system (eV)
  ---------------------------------------------------
  alpha Z        PSCENC =      1025.18887273
  Ewald energy   TEWEN  =     94616.75373381
  -Hartree energ DENC   =   -128973.35436502
  -exchange      EXHF   =         0.00000000
  -V(xc)+E(xc)   XCENC  =       487.83671964
  PAW double counting   =     36093.46183662   -35297.84629932
  entropy T*S    EENTRO =         0.00000000
  eigenvalues    EBANDS =     -1153.72151191
  atomic energy  EATOM  =     33075.24495812
  Solvation  Ediel_sol  =         0.00000000
  ---------------------------------------------------
  free energy    TOTEN  =      -126.43605531 eV

  energy without entropy =     -126.43605531  energy(sigma->0) =     -126.43605531


--------------------------------------------------------------------------------------------------------




--------------------------------------- Iteration      1(   5)  ---------------------------------------


     EDDAV:  cpu time    8.6098: real time    8.6099
 BZINTS: Fermi energy:    0.958871;  398.000000 electrons
         Band energy:-0.115381E+04;  BLOECHL correction:   -0.033987
       DOS:  cpu time    0.0100: real time    0.0100
    --------------------------------------------
      LOOP:  cpu time    8.6198: real time    8.6199

 eigenvalue-minimisations  :  6384
 total energy-change (2. order) :-0.8358448E-01  (-0.8354540E-01)
 number of electron     398.0000075 magnetization 
 augmentation part      398.0000075 magnetization 

 Free energy of the ion-electron system (eV)
  ---------------------------------------------------
  alpha Z        PSCENC =      1025.18887273
  Ewald energy   TEWEN  =     94616.75373381
  -Hartree energ DENC   =   -128973.35436502
  -exchange      EXHF   =         0.00000000
  -V(xc)+E(xc)   XCENC  =       487.83671964
  PAW double counting   =     36093.46183662   -35297.84629932
  entropy T*S    EENTRO =         0.00000000
  eigenvalues    EBANDS =     -1153.80509638
  atomic energy  EATOM  =     33075.24495812
  Solvation  Ediel_sol  =         0.00000000
  ---------------------------------------------------
  free energy    TOTEN  =      -126.51963979 eV

  energy without entropy =     -126.51963979  energy(sigma->0) =     -126.51963979


--------------------------------------------------------------------------------------------------------




--------------------------------------- Iteration      1(   6)  ---------------------------------------


    EDDIAG:  cpu time    1.3991: real time    1.3993
  RMM-DIIS:  cpu time    3.8777: real time    3.8777
    ORTHCH:  cpu time    0.2626: real time    0.2626
 BZINTS: Fermi energy:    0.958870;  398.000000 electrons
         Band energy:-0.115381E+04;  BLOECHL correction:   -0.033987
       DOS:  cpu time    0.0099: real time    0.0099
    --------------------------------------------
      LOOP:  cpu time    5.5493: real time    5.5495

 eigenvalue-minimisations  :  5051
 total energy-change (2. order) :-0.1718075E-02  (-0.1718055E-02)
 number of electron     398.0000075 magnetization 
 augmentation part      398.0000075 magnetization 

 Free energy of the ion-electron system (eV)
  ---------------------------------------------------
  alpha Z        PSCENC =      1025.18887273
  Ewald energy   TEWEN  =     94616.75373381
  -Hartree energ DENC   =   -128973.35436502
  -exchange      EXHF   =         0.00000000
  -V(xc)+E(xc)   XCENC  =       487.83671964
  PAW double counting   =     36093.46183662   -35297.84629932
  entropy T*S    EENTRO =         0.00000000
  eigenvalues    EBANDS =     -1153.80681446
  atomic energy  EATOM  =     33075.24495812
  Solvation  Ediel_sol  =         0.00000000
  ---------------------------------------------------
  free energy    TOTEN  =      -126.52135786 eV

  energy without entropy =     -126.52135786  energy(sigma->0) =     -126.52135786


--------------------------------------------------------------------------------------------------------




--------------------------------------- Iteration      1(   7)  ---------------------------------------


    EDDIAG:  cpu time    1.4014: real time    1.4015
  RMM-DIIS:  cpu time    5.0600: real time    5.0601
    ORTHCH:  cpu time    0.2632: real time    0.2632
 BZINTS: Fermi energy:    0.958870;  398.000000 electrons
         Band energy:-0.115381E+04;  BLOECHL correction:   -0.033987
       DOS:  cpu time    0.0100: real time    0.0099
    --------------------------------------------
      LOOP:  cpu time    6.7345: real time    6.7347

 eigenvalue-minimisations  :  6513
 total energy-change (2. order) :-0.5033862E-03  (-0.5013613E-03)
 number of electron     398.0000075 magnetization 
 augmentation part      398.0000075 magnetization 

 Free energy of the ion-electron system (eV)
  ---------------------------------------------------
  alpha Z        PSCENC =      1025.18887273
  Ewald energy   TEWEN  =     94616.75373381
  -Hartree energ DENC   =   -128973.35436502
  -exchange      EXHF   =         0.00000000
  -V(xc)+E(xc)   XCENC  =       487.83671964
  PAW double counting   =     36093.46183662   -35297.84629932
  entropy T*S    EENTRO =         0.00000000
  eigenvalues    EBANDS =     -1153.80731784
  atomic energy  EATOM  =     33075.24495812
  Solvation  Ediel_sol  =         0.00000000
  ---------------------------------------------------
  free energy    TOTEN  =      -126.52186125 eV

  energy without entropy =     -126.52186125  energy(sigma->0) =     -126.52186125


--------------------------------------------------------------------------------------------------------




--------------------------------------- Iteration      1(   8)  ---------------------------------------


    EDDIAG:  cpu time    1.4021: real time    1.4022
  RMM-DIIS:  cpu time    4.7504: real time    4.7505
    ORTHCH:  cpu time    0.2631: real time    0.2631
 BZINTS: Fermi energy:    0.958870;  398.000000 electrons
         Band energy:-0.115381E+04;  BLOECHL correction:   -0.033987
       DOS:  cpu time    0.0093: real time    0.0094
    --------------------------------------------
      LOOP:  cpu time    6.4249: real time    6.4251

 eigenvalue-minimisations  :  6066
 total energy-change (2. order) :-0.5290082E-04  (-0.5290654E-04)
 number of electron     398.0000075 magnetization 
 augmentation part      398.0000075 magnetization 

 Free energy of the ion-electron system (eV)
  ---------------------------------------------------
  alpha Z        PSCENC =      1025.18887273
  Ewald energy   TEWEN  =     94616.75373381
  -Hartree energ DENC   =   -128973.35436502
  -exchange      EXHF   =         0.00000000
  -V(xc)+E(xc)   XCENC  =       487.83671964
  PAW double counting   =     36093.46183662   -35297.84629932
  entropy T*S    EENTRO =         0.00000000
  eigenvalues    EBANDS =     -1153.80737074
  atomic energy  EATOM  =     33075.24495812
  Solvation  Ediel_sol  =         0.00000000
  ---------------------------------------------------
  free energy    TOTEN  =      -126.52191415 eV

  energy without entropy =     -126.52191415  energy(sigma->0) =     -126.52191415


--------------------------------------------------------------------------------------------------------




--------------------------------------- Iteration      1(   9)  ---------------------------------------


    EDDIAG:  cpu time    1.4014: real time    1.4044
  RMM-DIIS:  cpu time    3.1867: real time    3.1868
    ORTHCH:  cpu time    0.2625: real time    0.2625
 BZINTS: Fermi energy:    0.958870;  398.000000 electrons
         Band energy:-0.115381E+04;  BLOECHL correction:   -0.033987
       DOS:  cpu time    0.0099: real time    0.0099
    --------------------------------------------
      LOOP:  cpu time    4.8606: real time    4.8636

 eigenvalue-minimisations  :  3434
 total energy-change (2. order) :-0.3798064E-05  (-0.3754453E-05)
 number of electron     398.0000075 magnetization 
 augmentation part      398.0000075 magnetization 

 Free energy of the ion-electron system (eV)
  ---------------------------------------------------
  alpha Z        PSCENC =      1025.18887273
  Ewald energy   TEWEN  =     94616.75373381
  -Hartree energ DENC   =   -128973.35436502
  -exchange      EXHF   =         0.00000000
  -V(xc)+E(xc)   XCENC  =       487.83671964
  PAW double counting   =     36093.46183662   -35297.84629932
  entropy T*S    EENTRO =         0.00000000
  eigenvalues    EBANDS =     -1153.80737454
  atomic energy  EATOM  =     33075.24495812
  Solvation  Ediel_sol  =         0.00000000
  ---------------------------------------------------
  free energy    TOTEN  =      -126.52191795 eV

  energy without entropy =     -126.52191795  energy(sigma->0) =     -126.52191795


--------------------------------------------------------------------------------------------------------




 average (electrostatic) potential at core
  the test charge radii are     1.2098  1.2296  0.7215  0.5201
  (the norm of the test charge is              1.0000)
       1 -72.1088       2 -72.0866       3 -72.0866       4 -72.0866       5 -72.0863
       6 -72.0863       7 -72.0866       8 -72.0863       9 -72.0967      10 -72.4365
      11 -72.3975      12 -72.4361      13 -72.3975      14 -72.3970      15 -72.4195
      16 -72.4361      17 -72.4195      18 -72.4197      19 -72.3379      20 -72.6705
      21 -72.6699      22 -72.3850      23 -72.6699      24 -72.3844      25 -72.3379
      26 -72.3379      27 -72.3850      28 -72.0454      29 -72.1441      30 -72.1441
      31 -72.1441      32 -72.1437      33 -72.1441      34 -72.1437      35 -72.0188
      36 -43.6400      37 -76.0324      38 -40.3137
 
 
 
 E-fermi :   0.9589     XC(G=0):  -6.1967     alpha+bet : -5.7836

 Fermi energy:         0.9588699364

 k-point     1 :       0.0000    0.0000    0.0000
  band No.  band energies     occupation 
      1     -19.5128      2.00000
      2      -8.1560      2.00000
      3      -7.8176      2.00000
      4      -6.6735      2.00000
      5      -5.7599      2.00000
      6      -5.7465      2.00000
      7      -5.7464      2.00000
      8      -5.7229      2.00000
      9      -5.6866      2.00000
     10      -5.6687      2.00000
     11      -5.6687      2.00000
     12      -5.6604      2.00000
     13      -5.2580      2.00000
     14      -5.2580      2.00000
     15      -5.2538      2.00000
     16      -5.1861      2.00000
     17      -5.1860      2.00000
     18      -5.1823      2.00000
     19      -4.8765      2.00000
     20      -4.8764      2.00000
     21      -4.8632      2.00000
     22      -4.8385      2.00000
     23      -4.8187      2.00000
     24      -4.8187      2.00000
     25      -4.7080      2.00000
     26      -4.7079      2.00000
     27      -4.6743      2.00000
     28      -4.6741      2.00000
     29      -4.6735      2.00000
     30      -4.6513      2.00000
     31      -4.5213      2.00000
     32      -4.5213      2.00000
     33      -4.5204      2.00000
     34      -4.5179      2.00000
     35      -4.5179      2.00000
     36      -4.4988      2.00000
     37      -4.4988      2.00000
     38      -4.4627      2.00000
     39      -4.4602      2.00000
     40      -4.4398      2.00000
     41      -4.4398      2.00000
     42      -4.4324      2.00000
     43      -4.1592      2.00000
     44      -4.1592      2.00000
     45      -3.9990      2.00000
     46      -3.9990      2.00000
     47      -3.9774      2.00000
     48      -3.9443      2.00000
     49      -3.9358      2.00000
     50      -3.9358      2.00000
     51      -3.9180      2.00000
     52      -3.9180      2.00000
     53      -3.8389      2.00000
     54      -3.8325      2.00000
     55      -3.7952      2.00000
     56      -3.7951      2.00000
     57      -3.7839      2.00000
     58      -3.7366      2.00000
     59      -3.4746      2.00000
     60      -3.4361      2.00000
     61      -3.4361      2.00000
     62      -3.4299      2.00000
     63      -3.4189      2.00000
     64      -3.3927      2.00000
     65      -3.3927      2.00000
     66      -3.3504      2.00000
     67      -3.3504      2.00000
     68      -3.2940      2.00000
     69      -3.2940      2.00000
     70      -3.2794      2.00000
     71      -3.2477      2.00000
     72      -3.2477      2.00000
     73      -3.2101      2.00000
     74      -3.1950      2.00000
     75      -3.1950      2.00000
     76      -3.1673      2.00000
     77      -3.1552      2.00000
     78      -3.1552      2.00000
     79      -3.1517      2.00000
     80      -3.1476      2.00000
     81      -3.1476      2.00000
     82      -3.1368      2.00000
     83      -3.1368      2.00000
     84      -3.0685      2.00000
     85      -3.0636      2.00000
     86      -3.0636      2.00000
     87      -3.0524      2.00000
     88      -3.0523      2.00000
     89      -3.0335      2.00000
     90      -2.9900      2.00000
     91      -2.9899      2.00000
     92      -2.9559      2.00000
     93      -2.9272      2.00000
     94      -2.9272      2.00000
     95      -2.8681      2.00000
     96      -2.8681      2.00000
     97      -2.7332      2.00000
     98      -2.7332      2.00000
     99      -2.7274      2.00000
    100      -2.7274      2.00000
    101      -2.6259      2.00000
    102      -2.6259      2.00000
    103      -2.5856      2.00000
    104      -2.5588      2.00000
    105      -2.5588      2.00000
    106      -2.5359      2.00000
    107      -2.4482      2.00000
    108      -2.4482      2.00000
    109      -2.4126      2.00000
    110      -2.4125      2.00000
    111      -2.3695      2.00000
    112      -2.3504      2.00000
    113      -2.3283      2.00000
    114      -2.3283      2.00000
    115      -2.2742      2.00000
    116      -2.2742      2.00000
    117      -2.2622      2.00000
    118      -2.2475      2.00000
    119      -2.2261      2.00000
    120      -2.0930      2.00000
    121      -2.0532      2.00000
    122      -2.0532      2.00000
    123      -2.0369      2.00000
    124      -2.0368      2.00000
    125      -2.0312      2.00000
    126      -1.9788      2.00000
    127      -1.9787      2.00000
    128      -1.9670      2.00000
    129      -1.9670      2.00000
    130      -1.9468      2.00000
    131      -1.9468      2.00000
    132      -1.8143      2.00000
    133      -1.7979      2.00000
    134      -1.7978      2.00000
    135      -1.7843      2.00000
    136      -1.7788      2.00000
    137      -1.7788      2.00000
    138      -1.7729      2.00000
    139      -1.7712      2.00000
    140      -1.7712      2.00000
    141      -1.7233      2.00000
    142      -1.7232      2.00000
    143      -1.6319      2.00000
    144      -1.6319      2.00000
    145      -1.6311      2.00000
    146      -1.5644      2.00000
    147      -1.5644      2.00000
    148      -1.5641      2.00000
    149      -1.5193      2.00000
    150      -1.5192      2.00000
    151      -1.5192      2.00000
    152      -1.4993      2.00000
    153      -1.4993      2.00000
    154      -1.4802      2.00000
    155      -1.4693      2.00000
    156      -1.4494      2.00000
    157      -1.4493      2.00000
    158      -1.4141      2.00000
    159      -1.3760      2.00000
    160      -1.3760      2.00000
    161      -1.3672      2.00000
    162      -1.3520      2.00000
    163      -1.3223      2.00000
    164      -1.3223      2.00000
    165      -1.3076      2.00000
    166      -1.3014      2.00000
    167      -1.3013      2.00000
    168      -1.2823      2.00000
    169      -1.2823      2.00000
    170      -1.2642      2.00000
    171      -1.2383      2.00000
    172      -1.2382      2.00000
    173      -1.2339      2.00000
    174      -1.2091      2.00000
    175      -1.2038      2.00000
    176      -1.2037      2.00000
    177      -1.2037      2.00000
    178      -1.1875      2.00000
    179      -1.1874      2.00000
    180      -1.1805      2.00000
    181      -1.1468      2.00000
    182      -1.1468      2.00000
    183      -1.1201      2.00000
    184      -1.1153      2.00000
    185      -1.1131      2.00000
    186      -1.1131      2.00000
    187      -1.0338      2.00000
    188      -1.0337      2.00000
    189      -0.9500      2.00000
    190      -0.9500      2.00000
    191      -0.9394      2.00000
    192      -0.9119      2.00000
    193      -0.9118      2.00000
    194      -0.8980      2.00000
    195      -0.1616      2.00000
    196       0.1263      2.00000
    197       0.2948      2.00000
    198       0.2949      2.00000
    199       0.3650      2.00000
    200       0.3843      2.00000
    201       0.3844      2.00000
    202       0.9102      1.20898
    203       0.9102      1.12456
    204       1.1785      0.00000
    205       1.1786      0.00000
    206       1.2707      0.00000
    207       1.8793      0.00000
    208       2.4453      0.00000
    209       2.4909      0.00000
    210       2.4909      0.00000
    211       2.7272      0.00000
    212       2.7272      0.00000
    213       3.6720      0.00000
    214       3.7443      0.00000
    215       3.7443      0.00000
    216       3.7503      0.00000
    217       3.8488      0.00000
    218       3.8488      0.00000
    219       3.9418      0.00000
    220       4.3031      0.00000
    221       4.9264      0.00000
    222       5.3476      0.00000
    223       5.5013      0.00000
    224       5.5193      0.00000
    225       5.5193      0.00000
    226       5.5479      0.00000
    227       5.5636      0.00000
    228       5.5637      0.00000
    229       5.7999      0.00000
    230       5.7999      0.00000
    231       5.8317      0.00000
    232       5.8418      0.00000
    233       5.8418      0.00000
    234       6.3455      0.00000
    235       6.4169      0.00000
    236       6.8842      0.00000
    237       7.0051      0.00000
    238       7.1110      0.00000
    239       7.1112      0.00000
    240       7.2151      0.00000
    241       7.2152      0.00000
    242       7.2562      0.00000
    243       7.2741      0.00000
    244       7.3768      0.00000
    245       7.3780      0.00000
    246       7.4716      0.00000
    247       7.4783      0.00000
    248       7.5159      0.00000
    249       7.6157      0.00000
    250       7.6241      0.00000
    251       7.6396      0.00000
    252       7.6607      0.00000

 k-point     2 :       0.1250   -0.0000    0.0000
  band No.  band energies     occupation 
      1     -19.5129      2.00000
      2      -8.1496      2.00000
      3      -7.7730      2.00000
      4      -6.6241      2.00000
      5      -5.9601      2.00000
      6      -5.7900      2.00000
      7      -5.7819      2.00000
      8      -5.6988      2.00000
      9      -5.6371      2.00000
     10      -5.5936      2.00000
     11      -5.5867      2.00000
     12      -5.5654      2.00000
     13      -5.2880      2.00000
     14      -5.2347      2.00000
     15      -5.2332      2.00000
     16      -5.2165      2.00000
     17      -5.1622      2.00000
     18      -5.1586      2.00000
     19      -4.9166      2.00000
     20      -4.8679      2.00000
     21      -4.8622      2.00000
     22      -4.8229      2.00000
     23      -4.7967      2.00000
     24      -4.7960      2.00000
     25      -4.7608      2.00000
     26      -4.7143      2.00000
     27      -4.7031      2.00000
     28      -4.6472      2.00000
     29      -4.6323      2.00000
     30      -4.6057      2.00000
[...]
  0.000   0.000   0.000   0.000   0.000   0.000   0.000   0.000   0.000   0.000   0.000   0.000   0.000   0.000   0.000   0.000
  0.000   0.000   0.000   0.000   0.000   0.000   0.000   0.000   0.000   0.000   0.000   0.000   0.000   0.000   0.000   0.000
  0.000   0.000   0.000   0.000   0.000   0.000   0.000   0.000   0.000   0.000   1.000   0.000   0.000   0.000   0.000   0.000
  0.000   0.000   0.000   0.000   0.000   0.000   0.000   0.000   0.000   0.000   0.000   0.000   0.000   0.000   0.000   0.000
  0.000   0.000   0.000   0.000   0.000   0.000   0.000   0.000   0.000   0.000   0.000   0.000   0.000   0.000   0.000   0.000
  0.000   0.000   0.000   0.000   0.000   0.000   0.000   0.000   0.000   0.000   0.000   0.000   0.000   0.000   0.000   0.000
  0.000   0.000   0.000   0.000   0.000   0.000   0.000   0.000   0.000   0.000   0.000   0.000   0.000   0.000   0.000   0.000
  0.000   0.000   0.000   0.000   0.000   0.000   0.000   0.000   0.000   0.000   0.000   0.000   0.000   0.000   0.000   0.000
  0.000   0.000   0.000   0.000   0.000   0.000   0.000   0.000   0.000   0.000   0.000   0.000   0.000   0.000   0.000   0.000
  0.000   0.000   0.000   0.000   0.000   0.000   0.000   0.000   0.000   0.000   0.000   0.000   0.000   0.000   0.000   0.000


------------------------ aborting loop because EDIFF is reached ----------------------------------------





 total charge

# of ion       s       p       d       tot
------------------------------------------
    1        0.549   0.237   8.767   9.553
    2        0.543   0.242   8.764   9.549
    3        0.543   0.242   8.764   9.549
    4        0.543   0.242   8.764   9.549
    5        0.546   0.241   8.762   9.549
    6        0.543   0.242   8.764   9.549
    7        0.543   0.242   8.764   9.549
    8        0.543   0.242   8.764   9.549
    9        0.542   0.241   8.766   9.550
   10        0.524   0.306   8.770   9.600
   11        0.519   0.309   8.778   9.606
   12        0.524   0.306   8.770   9.600
   13        0.519   0.309   8.778   9.606
   14        0.519   0.309   8.778   9.606
   15        0.514   0.308   8.774   9.596
   16        0.524   0.306   8.770   9.600
   17        0.514   0.308   8.774   9.596
   18        0.514   0.308   8.774   9.596
   19        0.518   0.294   8.776   9.588
   20        0.570   0.340   8.728   9.638
   21        0.570   0.340   8.728   9.638
   22        0.506   0.307   8.776   9.589
   23        0.570   0.340   8.728   9.638
   24        0.506   0.307   8.776   9.589
   25        0.518   0.294   8.776   9.588
   26        0.518   0.294   8.776   9.588
   27        0.506   0.307   8.776   9.589
   28        0.547   0.230   8.754   9.530
   29        0.567   0.246   8.748   9.561
   30        0.567   0.246   8.748   9.561
   31        0.567   0.246   8.748   9.561
   32        0.567   0.246   8.748   9.561
   33        0.567   0.246   8.748   9.561
   34        0.567   0.246   8.748   9.561
   35        0.537   0.229   8.759   9.525
   36        0.427   0.493   4.089   5.009
   37        1.555   3.535   0.000   5.090
   38        0.600   0.125   0.000   0.725
--------------------------------------------------
tot         21.420  13.847 310.777 346.044
 
    CHARGE:  cpu time    0.3324: real time    0.3325
    FORLOC:  cpu time    0.0110: real time    0.0110
    FORNL :  cpu time    1.4533: real time    1.4534
    STRESS:  cpu time    4.3470: real time    4.3473
    FORCOR:  cpu time    0.0451: real time    0.0452
    FORHAR:  cpu time    0.0176: real time    0.0176
    OFIELD:  cpu time    0.0002: real time    0.0002

  FORCE on cell =-STRESS in cart. coord.  units (eV):
  Direction    XX          YY          ZZ          XY          YZ          ZX
  --------------------------------------------------------------------------------------
  Alpha Z  1025.18887  1025.18887  1025.18887
  Ewald  117104.62523117104.62564************    -0.00032    -0.00009    -0.00013
  Hartree125914.87669125914.87669************     0.00001    -0.00002    -0.00004
  E(xc)   -1788.32494 -1788.32496 -1794.50753     0.00002    -0.00000    -0.00000
  Local  ************************255285.20798     0.00204     0.00001     0.00000
  n-local  -119.09912   -69.27697   -60.48903    24.37437    -1.66430     1.46170
  augment  2380.98348  2380.98499  2395.10223    -0.00131     0.00000     0.00004
  Kinetic  5566.78644  5577.76234  5582.58214     6.76564     0.03379     0.23483
  Fock        0.00000     0.00000     0.00000     0.00000     0.00000     0.00000
  -------------------------------------------------------------------------------------
  Total     -20.16024   -20.16024     1.77436    -0.00000     0.00000    -0.00000
  in kB     -21.63211   -21.63211     1.90390    -0.00000     0.00000    -0.00000
  external pressure =      -13.79 kB  Pullay stress =        0.00 kB


 VOLUME and BASIS-vectors are now :
 -----------------------------------------------------------------------------
  energy-cutoff  :      500.00
  volume of cell :     1493.16
      direct lattice vectors                 reciprocal lattice vectors
     8.813512802  0.000000000  0.000000000     0.113462137 -0.065507406  0.000000000
     4.406756909  7.632725690  0.000000000     0.000000000  0.131014796  0.000000000
     0.000000000  0.000000000 22.196203232     0.000000000  0.000000000  0.045052750

  length of vectors
     8.813512802  8.813512802 22.196203232     0.131014796  0.131014796  0.045052750


 FORCES acting on ions
    electron-ion (+dipol)            ewald-force                    non-local-force                 convergence-correction
 -----------------------------------------------------------------------------------------------
   -.194E-04 -.161E-04 0.247E+04   0.519E-04 0.433E-04 -.247E+04   0.205E-17 -.632E-17 -.816E+00   -.280E-03 -.175E-03 -.283E+00
   0.533E+00 0.247E-02 0.247E+04   -.596E+00 -.192E+00 -.247E+04   0.266E-01 0.143E+00 -.289E+00   0.298E-01 0.404E-01 -.297E+00
   -.534E+00 0.247E-02 0.247E+04   0.596E+00 -.192E+00 -.247E+04   -.266E-01 0.143E+00 -.289E+00   -.294E-01 0.424E-01 -.296E+00
   0.269E+00 0.461E+00 0.247E+04   -.465E+00 -.420E+00 -.247E+04   0.137E+00 -.485E-01 -.289E+00   0.499E-01 0.555E-02 -.297E+00
   0.918E-05 -.230E-04 0.248E+04   0.951E-04 0.174E-05 -.247E+04   0.205E-17 0.160E-17 -.780E-01   0.440E-02 0.267E-02 -.287E+00
   -.269E+00 0.461E+00 0.247E+04   0.465E+00 -.420E+00 -.247E+04   -.137E+00 -.485E-01 -.289E+00   -.516E-01 0.648E-02 -.296E+00
   -.265E+00 -.463E+00 0.247E+04   0.132E+00 0.613E+00 -.247E+04   0.111E+00 -.946E-01 -.289E+00   0.221E-01 -.467E-01 -.296E+00
   0.265E+00 -.463E+00 0.247E+04   -.132E+00 0.613E+00 -.247E+04   -.111E+00 -.946E-01 -.289E+00   -.202E-01 -.479E-01 -.296E+00
   0.194E-04 -.417E-04 0.247E+04   0.166E-03 -.200E-04 -.247E+04   -.528E-17 -.368E-18 -.480E+00   -.466E-02 -.241E-02 -.232E+00
   0.568E+01 0.328E+01 0.826E+03   -.530E+01 -.306E+01 -.825E+03   -.437E+00 -.252E+00 -.587E+00   0.451E-01 0.259E-01 -.786E-01
   0.143E-04 0.313E+01 0.831E+03   0.148E-03 -.317E+01 -.831E+03   0.210E-08 0.316E-01 -.175E+00   0.426E-02 -.585E-01 -.174E-01
   -.568E+01 0.328E+01 0.826E+03   0.530E+01 -.306E+01 -.825E+03   0.437E+00 -.252E+00 -.587E+00   -.471E-01 0.279E-01 -.774E-01
   0.271E+01 -.157E+01 0.831E+03   -.275E+01 0.159E+01 -.831E+03   0.273E-01 -.158E-01 -.175E+00   -.482E-01 0.332E-01 -.174E-01
   -.271E+01 -.157E+01 0.831E+03   0.275E+01 0.159E+01 -.831E+03   -.273E-01 -.158E-01 -.175E+00   0.566E-01 0.325E-01 -.164E-01
   0.313E-04 0.443E+01 0.830E+03   0.236E-03 -.452E+01 -.829E+03   -.366E-09 -.549E-02 -.499E+00   -.297E-02 0.400E-01 -.632E-01
   -.212E-04 -.656E+01 0.826E+03   0.162E-03 0.612E+01 -.825E+03   0.336E-07 0.505E+00 -.587E+00   0.398E-03 -.547E-01 -.774E-01
   0.384E+01 -.222E+01 0.830E+03   -.392E+01 0.226E+01 -.829E+03   -.476E-02 0.275E-02 -.499E+00   0.334E-01 -.222E-01 -.632E-01
   -.384E+01 -.222E+01 0.830E+03   0.392E+01 0.226E+01 -.829E+03   0.476E-02 0.275E-02 -.499E+00   -.334E-01 -.195E-01 -.630E-01
   -.426E-04 0.465E+00 -.847E+03   0.546E-04 -.723E+00 0.846E+03   0.181E-08 0.273E-01 0.653E+00   -.593E-02 0.166E+00 0.374E+00
   0.712E+00 0.411E+00 -.817E+03   0.363E+00 0.210E+00 0.818E+03   -.124E+01 -.719E+00 -.121E+01   0.182E+00 0.105E+00 0.605E+00
   -.712E+00 0.411E+00 -.817E+03   -.363E+00 0.210E+00 0.818E+03   0.124E+01 -.719E+00 -.121E+01   -.173E+00 0.107E+00 0.604E+00
   -.831E+01 0.480E+01 -.830E+03   0.797E+01 -.460E+01 0.829E+03   0.437E+00 -.252E+00 0.671E+00   -.261E-01 0.122E-01 0.412E+00
   -.958E-05 -.822E+00 -.817E+03   0.139E-03 -.419E+00 0.818E+03   0.957E-07 0.144E+01 -.121E+01   0.583E-02 -.203E+00 0.604E+00
   0.831E+01 0.480E+01 -.830E+03   -.797E+01 -.460E+01 0.829E+03   -.437E+00 -.252E+00 0.671E+00   0.179E-01 0.104E-01 0.412E+00
   -.403E+00 -.233E+00 -.847E+03   0.626E+00 0.362E+00 0.846E+03   -.236E-01 -.136E-01 0.653E+00   -.146E+00 -.842E-01 0.374E+00
   0.403E+00 -.233E+00 -.847E+03   -.626E+00 0.362E+00 0.846E+03   0.236E-01 -.136E-01 0.653E+00   0.141E+00 -.879E-01 0.374E+00
   0.101E-04 -.960E+01 -.830E+03   0.198E-03 0.920E+01 0.829E+03   0.336E-07 0.505E+00 0.671E+00   -.308E-02 -.288E-01 0.412E+00
   -.130E-04 -.125E-04 -.242E+04   0.293E-04 0.333E-04 0.242E+04   0.134E-17 0.410E-17 0.345E+00   -.325E-03 -.205E-03 0.469E+00
   0.220E+02 0.361E+02 -.241E+04   -.215E+02 -.355E+02 0.241E+04   -.896E+00 -.120E+01 0.696E-01   0.240E+00 0.241E+00 0.402E+00
   -.220E+02 0.361E+02 -.241E+04   0.215E+02 -.355E+02 0.241E+04   0.896E+00 -.120E+01 0.696E-01   -.239E+00 0.243E+00 0.402E+00
   0.423E+02 0.962E+00 -.241E+04   -.415E+02 -.849E+00 0.241E+04   -.149E+01 -.175E+00 0.696E-01   0.329E+00 0.872E-01 0.402E+00
   -.423E+02 0.962E+00 -.241E+04   0.415E+02 -.849E+00 0.241E+04   0.149E+01 -.175E+00 0.696E-01   -.330E+00 0.879E-01 0.401E+00
   0.203E+02 -.371E+02 -.241E+04   -.200E+02 0.364E+02 0.241E+04   -.593E+00 0.138E+01 0.696E-01   0.908E-01 -.328E+00 0.402E+00
   -.203E+02 -.371E+02 -.241E+04   0.200E+02 0.364E+02 0.241E+04   0.593E+00 0.138E+01 0.696E-01   -.888E-01 -.330E+00 0.401E+00
   0.329E-04 -.294E-04 -.242E+04   0.142E-03 -.489E-04 0.242E+04   -.181E-17 0.158E-17 0.624E+00   -.477E-02 -.246E-02 0.373E+00
   -.583E-05 0.103E-05 -.112E+04   0.625E-04 0.565E-05 0.113E+04   0.184E-17 -.146E-17 -.910E-01   0.130E-02 0.773E-03 0.304E+00
   0.198E-03 -.941E-04 -.150E+04   0.220E-04 0.140E-05 0.148E+04   0.272E-17 0.295E-18 0.186E+02   0.371E-02 0.226E-02 -.305E+00
   0.806E-05 -.131E-04 -.309E+03   0.117E-05 0.104E-06 0.317E+03   0.156E-19 0.200E-18 -.849E+01   0.206E-03 0.126E-03 -.461E-01
 -----------------------------------------------------------------------------------------------
   -.570E-03 -.867E-03 -.866E+01   -.352E-13 0.281E-12 -.178E-10   0.276E-17 -.443E-15 0.485E+01   0.245E-02 0.210E-02 0.432E+01
 
 
 POSITION                                       TOTAL-FORCE (eV/Angst)
 -----------------------------------------------------------------------------------
      0.00000      0.00000      5.28038         0.000000      0.000000     -0.165700
      2.93784      0.00000      5.28038        -0.006036     -0.005158     -0.054323
      5.87568      0.00000      5.28038         0.006036     -0.005158     -0.054323
      1.46892      2.54424      5.28038        -0.007485     -0.002648     -0.054323
      4.40676      2.54424      5.28038         0.000000      0.000000     -0.063350
      7.34459      2.54424      5.28038         0.007485     -0.002648     -0.054323
      2.93784      5.08848      5.28038        -0.001449      0.007807     -0.054323
      5.87568      5.08848      5.28038         0.001449      0.007807     -0.054323
      8.81351      5.08848      5.28038        -0.000000      0.000000     -0.088753
      1.46892      0.84808      7.67911        -0.008654     -0.004996      0.141520
      4.40676      0.84808      7.67911        -0.000000     -0.068341      0.008956
      7.34459      0.84808      7.67911         0.008654     -0.004996      0.141520
      2.93784      3.39232      7.67911        -0.059185      0.034170      0.008956
      5.87568      3.39232      7.67911         0.059185      0.034170      0.008956
      8.81351      3.39232      7.67911        -0.000000     -0.056153      0.130414
      4.40676      5.93656      7.67911         0.000000      0.009992      0.141520
      7.34459      5.93656      7.67911        -0.048630      0.028076      0.130414
     10.28243      5.93656      7.67911         0.048630      0.028076      0.130414
      8.81351      1.70181     10.09390        -0.000000     -0.064199     -0.056395
      2.93906      1.69686     10.04479         0.008371      0.004833     -0.013127
      5.87446      1.69686     10.04479        -0.008371      0.004833     -0.013127
     10.26694      4.24935     10.06849         0.070334     -0.040607     -0.011056
      4.40676      4.23900     10.04479        -0.000000     -0.009666     -0.013127
      7.36009      4.24935     10.06849        -0.070334     -0.040607     -0.011056
     11.74646      6.78182     10.09390         0.055598      0.032099     -0.056395
      5.88057      6.78182     10.09390        -0.055598      0.032099     -0.056395
      8.81351      6.76675     10.06849         0.000000      0.081215     -0.011056
      0.00000      0.00000     12.49934         0.000000      0.000000     -0.002824
      2.98260      0.07565     12.53968        -0.192643     -0.384725     -0.246472
      5.83091      0.07565     12.53968         0.192643     -0.384725     -0.246472
      1.55682      2.54518     12.53968        -0.429503      0.025528     -0.246472
      7.25669      2.54518     12.53968         0.429503      0.025528     -0.246472
      2.98097      5.01189     12.53968        -0.236860      0.359196     -0.246472
      5.83254      5.01189     12.53968         0.236860      0.359196     -0.246472
      8.81351      5.08848     12.49853         0.000000      0.000000      0.101429
      4.40676      2.54424     12.23451        -0.000000      0.000000      1.457229
      4.40676      2.54424     14.10648        -0.000000      0.000000     -0.054140
      4.40676      2.54424     15.07333        -0.000000      0.000000      0.019940
 -----------------------------------------------------------------------------------
    total drift:                                0.001878      0.001233      0.506971


--------------------------------------------------------------------------------------------------------



  FREE ENERGIE OF THE ION-ELECTRON SYSTEM (eV)
  ---------------------------------------------------
  free  energy   TOTEN  =      -126.52191795 eV

  energy  without entropy=     -126.52191795  energy(sigma->0) =     -126.52191795
 


--------------------------------------------------------------------------------------------------------


    POTLOK:  cpu time    0.0451: real time    0.0451


--------------------------------------------------------------------------------------------------------


 stress matrix after NEB project (eV)
    -20.16024     -0.00000     -0.00000
     -0.00000    -20.16024      0.00000
      0.00000      0.00000      1.77436
  FORCES: max atom, RMS     0.054140    0.009359
  FORCE total and by dimension    0.057695    0.054140
  Stress total and by dimension   28.566042   20.160239
     LOOP+:  cpu time   69.0238: real time   69.0351
 -----------------------------------------------------------------------------
|                                                                             |
|           W    W    AA    RRRRR   N    N  II  N    N   GGGG   !!!           |
|           W    W   A  A   R    R  NN   N  II  NN   N  G    G  !!!           |
|           W    W  A    A  R    R  N N  N  II  N N  N  G       !!!           |
|           W WW W  AAAAAA  RRRRR   N  N N  II  N  N N  G  GGG   !            |
|           WW  WW  A    A  R   R   N   NN  II  N   NN  G    G                |
|           W    W  A    A  R    R  N    N  II  N    N   GGGG   !!!           |
|                                                                             |
|     Tetrahedron method does not include variations of the Fermi             |
|     occupations, so forces and stress will be inaccurate. We suggest        |
|     using a different smearing scheme ISMEAR = 1 or 2 for metals in         |
|     relaxations.                                                            |
|                                                                             |
 -----------------------------------------------------------------------------

    4ORBIT:  cpu time    0.0000: real time    0.0000



 total charge

# of ion       s       p       d       tot
------------------------------------------
    1        0.549   0.237   8.767   9.553
    2        0.543   0.242   8.764   9.549
    3        0.543   0.242   8.764   9.549
    4        0.543   0.242   8.764   9.549
    5        0.546   0.241   8.762   9.549
    6        0.543   0.242   8.764   9.549
    7        0.543   0.242   8.764   9.549
    8        0.543   0.242   8.764   9.549
    9        0.542   0.241   8.766   9.550
   10        0.524   0.306   8.770   9.600
   11        0.519   0.309   8.778   9.606
   12        0.524   0.306   8.770   9.600
   13        0.519   0.309   8.778   9.606
   14        0.519   0.309   8.778   9.606
   15        0.514   0.308   8.774   9.596
   16        0.524   0.306   8.770   9.600
   17        0.514   0.308   8.774   9.596
   18        0.514   0.308   8.774   9.596
   19        0.518   0.294   8.776   9.588
   20        0.570   0.340   8.728   9.638
   21        0.570   0.340   8.728   9.638
   22        0.506   0.307   8.776   9.589
   23        0.570   0.340   8.728   9.638
   24        0.506   0.307   8.776   9.589
   25        0.518   0.294   8.776   9.588
   26        0.518   0.294   8.776   9.588
   27        0.506   0.307   8.776   9.589
   28        0.547   0.230   8.754   9.530
   29        0.567   0.246   8.748   9.561
   30        0.567   0.246   8.748   9.561
   31        0.567   0.246   8.748   9.561
   32        0.567   0.246   8.748   9.561
   33        0.567   0.246   8.748   9.561
   34        0.567   0.246   8.748   9.561
   35        0.537   0.229   8.759   9.525
   36        0.427   0.493   4.089   5.009
   37        1.555   3.535   0.000   5.090
   38        0.600   0.125   0.000   0.725
--------------------------------------------------
tot         21.420  13.847 310.777 346.044
 
 BZINTS: Fermi energy:    0.958870;  398.000000 electrons
         Band energy:-0.115381E+04;  BLOECHL correction:   -0.033987

 total amount of memory used by VASP MPI-rank0   123511. kBytes
=======================================================================

   base      :      30000. kBytes
   nonlr-proj:      14331. kBytes
   fftplans  :       4330. kBytes
   grid      :      18659. kBytes
   one-center:        590. kBytes
   wavefun   :      55601. kBytes
 
  
  
 General timing and accounting informations for this job:
 ========================================================
  
                  Total CPU time used (sec):       76.400
                            User time (sec):       73.428
                          System time (sec):        2.972
                         Elapsed time (sec):       76.858
  
                   Maximum memory used (kb):      383716.
                   Average memory used (kb):          N/A
  
                          Minor page faults:        74134
                          Major page faults:            0
                 Voluntary context switches:         5085
