PROCAR new format
# of k-points:   10         # of bands:  252         # of ions:   38

 k-point     1 :    0.00000000 0.00000000 0.00000000     weight = 0.01562500

band     1 # energy  -19.51284492 # occ.  2.00000000
 
ion      s      p      d    tot
    1  0.000  0.000  0.000  0.000
    2  0.000  0.000  0.000  0.000
    3  0.000  0.000  0.000  0.000
    4  0.000  0.000  0.000  0.000
    5  0.000  0.000  0.000  0.000
    6  0.000  0.000  0.000  0.000
    7  0.000  0.000  0.000  0.000
    8  0.000  0.000  0.000  0.000
    9  0.000  0.000  0.000  0.000
   10  0.000  0.000  0.000  0.000
   11  0.000  0.000  0.000  0.000
   12  0.000  0.000  0.000  0.000
   13  0.000  0.000  0.000  0.000
   14  0.000  0.000  0.000  0.000
   15  0.000  0.000  0.000  0.000
   16  0.000  0.000  0.000  0.000
   17  0.000  0.000  0.000  0.000
   18  0.000  0.000  0.000  0.000
   19  0.000  0.000  0.000  0.000
   20  0.000  0.000  0.000  0.000
   21  0.000  0.000  0.000  0.000
   22  0.000  0.000  0.000  0.000
   23  0.000  0.000  0.000  0.000
   24  0.000  0.000  0.000  0.000
   25  0.000  0.000  0.000  0.000
   26  0.000  0.000  0.000  0.000
   27  0.000  0.000  0.000  0.000
   28  0.000  0.000  0.000  0.000
   29  0.000  0.000  0.000  0.000
   30  0.000  0.000  0.000  0.000
   31  0.000  0.000  0.000  0.000
   32  0.000  0.000  0.000  0.000
   33  0.000  0.000  0.000  0.000
   34  0.000  0.000  0.000  0.000
   35  0.000  0.000  0.000  0.000
   36  0.011  0.015  0.029  0.055
   37  0.745  0.015  0.000  0.760
   38  0.115  0.024  0.000  0.139
tot    0.871  0.054  0.029  0.954
 
band     2 # energy   -8.15604372 # occ.  2.00000000
 
ion      s      p      d    tot
    1  0.001  0.000  0.000  0.001
    2  0.000  0.000  0.000  0.001
    3  0.000  0.000  0.000  0.001
    4  0.000  0.000  0.000  0.001
    5  0.000  0.000  0.000  0.001
    6  0.000  0.000  0.000  0.000
    7  0.000  0.000  0.000  0.001
    8  0.000  0.000  0.000  0.000
    9  0.000  0.000  0.000  0.000
   10  0.003  0.000  0.000  0.003
   11  0.003  0.000  0.000  0.003
   12  0.003  0.000  0.000  0.003
   13  0.003  0.000  0.000  0.003
   14  0.003  0.000  0.000  0.003
   15  0.002  0.000  0.000  0.002
   16  0.003  0.000  0.000  0.003
   17  0.002  0.000  0.000  0.002
   18  0.002  0.000  0.000  0.002
   19  0.003  0.000  0.000  0.003
   20  0.009  0.000  0.002  0.011
   21  0.009  0.000  0.002  0.011
   22  0.003  0.000  0.000  0.003
   23  0.009  0.000  0.002  0.011
   24  0.003  0.000  0.000  0.003
   25  0.003  0.000  0.000  0.003
   26  0.003  0.000  0.000  0.003
   27  0.003  0.000  0.000  0.003
   28  0.001  0.000  0.000  0.001
   29  0.001  0.000  0.000  0.002
   30  0.001  0.000  0.000  0.002
   31  0.001  0.000  0.000  0.002
   32  0.001  0.000  0.000  0.002
   33  0.001  0.000  0.000  0.002
   34  0.001  0.000  0.000  0.002
   35  0.001  0.000  0.000  0.001
   36  0.057  0.025  0.143  0.225
   37  0.019  0.452  0.000  0.471
   38  0.150  0.016  0.000  0.166
tot    0.306  0.496  0.152  0.953
 
band     3 # energy   -7.81758370 # occ.  2.00000000
 
ion      s      p      d    tot
    1  0.007  0.001  0.000  0.007
    2  0.007  0.001  0.000  0.007
    3  0.007  0.001  0.000  0.007
    4  0.007  0.001  0.000  0.007
    5  0.007  0.001  0.000  0.007
    6  0.007  0.001  0.000  0.007
    7  0.007  0.001  0.000  0.007
    8  0.007  0.001  0.000  0.007
    9  0.007  0.001  0.000  0.007
   10  0.024  0.000  0.000  0.025
   11  0.026  0.000  0.000  0.026
   12  0.024  0.000  0.000  0.025
   13  0.026  0.000  0.000  0.026
   14  0.026  0.000  0.000  0.026
   15  0.025  0.000  0.000  0.025
   16  0.024  0.000  0.000  0.025
   17  0.025  0.000  0.000  0.025
   18  0.025  0.000  0.000  0.025
   19  0.019  0.000  0.000  0.020
   20  0.019  0.000  0.000  0.019
   21  0.019  0.000  0.000  0.019
   22  0.021  0.000  0.000  0.021
   23  0.019  0.000  0.000  0.019
   24  0.021  0.000  0.000  0.021
   25  0.019  0.000  0.000  0.020
   26  0.019  0.000  0.000  0.020
   27  0.021  0.000  0.000  0.021
   28  0.004  0.000  0.000  0.004
   29  0.003  0.000  0.000  0.004
   30  0.003  0.000  0.000  0.004
   31  0.003  0.000  0.000  0.004
   32  0.003  0.000  0.000  0.004
   33  0.003  0.000  0.000  0.004
   34  0.003  0.000  0.000  0.004
   35  0.004  0.000  0.000  0.004
   36  0.000  0.010  0.024  0.035
   37  0.004  0.071  0.000  0.076
   38  0.023  0.002  0.000  0.025
tot    0.514  0.094  0.029  0.637
 
band     4 # energy   -6.67352899 # occ.  2.00000000
 
ion      s      p      d    tot
    1  0.017  0.000  0.001  0.019
    2  0.016  0.000  0.001  0.018
    3  0.016  0.000  0.001  0.018
    4  0.016  0.000  0.001  0.018
    5  0.016  0.000  0.001  0.018
    6  0.016  0.000  0.001  0.018
    7  0.016  0.000  0.001  0.018
    8  0.016  0.000  0.001  0.018
    9  0.016  0.000  0.001  0.018
   10  0.010  0.001  0.002  0.014
   11  0.009  0.002  0.003  0.013
   12  0.010  0.001  0.002  0.014
   13  0.009  0.002  0.003  0.013
   14  0.009  0.002  0.003  0.013
   15  0.009  0.002  0.002  0.013
   16  0.010  0.001  0.002  0.014
   17  0.009  0.002  0.002  0.013
   18  0.009  0.002  0.002  0.013
   19  0.015  0.001  0.004  0.019
   20  0.014  0.001  0.004  0.019
   21  0.014  0.001  0.004  0.019
   22  0.016  0.001  0.004  0.020
   23  0.014  0.001  0.004  0.019
   24  0.016  0.001  0.004  0.020
   25  0.015  0.001  0.004  0.019
   26  0.015  0.001  0.004  0.019
   27  0.016  0.001  0.004  0.020
   28  0.015  0.001  0.000  0.016
   29  0.014  0.001  0.001  0.015
   30  0.014  0.001  0.001  0.015
   31  0.014  0.001  0.001  0.015
   32  0.014  0.001  0.001  0.015
   33  0.014  0.001  0.001  0.015
   34  0.014  0.001  0.001  0.015
   35  0.015  0.001  0.000  0.016
   36  0.007  0.002  0.006  0.015
   37  0.001  0.005  0.000  0.006
   38  0.001  0.000  0.000  0.001
tot    0.489  0.038  0.076  0.602
 
band     5 # energy   -5.75994411 # occ.  2.00000000
 
ion      s      p      d    tot
    1  0.007  0.000  0.019  0.026
    2  0.015  0.000  0.014  0.029
    3  0.015  0.000  0.014  0.029
    4  0.015  0.000  0.014  0.029
    5  0.009  0.000  0.012  0.022
    6  0.015  0.000  0.014  0.029
    7  0.015  0.000  0.014  0.029
    8  0.015  0.000  0.014  0.029
    9  0.034  0.000  0.009  0.043
   10  0.012  0.001  0.017  0.030
   11  0.014  0.002  0.012  0.028
   12  0.012  0.001  0.017  0.029
   13  0.014  0.002  0.012  0.028
   14  0.014  0.002  0.012  0.028
   15  0.001  0.001  0.019  0.020
   16  0.012  0.001  0.017  0.029
   17  0.001  0.001  0.019  0.020
   18  0.001  0.001  0.019  0.020
   19  0.000  0.001  0.007  0.008
   20  0.011  0.002  0.007  0.019
   21  0.011  0.002  0.007  0.019
   22  0.004  0.001  0.001  0.006
   23  0.011  0.002  0.007  0.019
   24  0.004  0.001  0.001  0.006
   25  0.000  0.001  0.007  0.008
   26  0.000  0.001  0.007  0.008
   27  0.004  0.001  0.001  0.006
   28  0.008  0.000  0.001  0.010
   29  0.006  0.000  0.005  0.011
   30  0.006  0.000  0.005  0.011
   31  0.006  0.000  0.005  0.011
   32  0.006  0.000  0.005  0.011
   33  0.006  0.000  0.005  0.011
   34  0.006  0.000  0.005  0.011
   35  0.013  0.000  0.002  0.015
   36  0.000  0.002  0.003  0.005
   37  0.000  0.001  0.000  0.001
   38  0.000  0.000  0.000  0.000
tot    0.320  0.026  0.349  0.695
 
band     6 # energy   -5.74645123 # occ.  2.00000000
 
ion      s      p      d    tot
    1  0.000  0.000  0.008  0.009
    2  0.003  0.001  0.003  0.006
    3  0.001  0.000  0.003  0.004
    4  0.003  0.001  0.003  0.007
    5  0.000  0.001  0.006  0.007
    6  0.006  0.001  0.003  0.011
    7  0.001  0.000  0.003  0.004
    8  0.006  0.001  0.003  0.011
    9  0.000  0.000  0.001  0.001
   10  0.037  0.002  0.005  0.044
   11  0.012  0.003  0.021  0.036
   12  0.010  0.001  0.027  0.037
   13  0.012  0.003  0.021  0.036
   14  0.050  0.001  0.012  0.062
   15  0.000  0.003  0.007  0.009
   16  0.009  0.001  0.027  0.037
   17  0.000  0.002  0.007  0.009
   18  0.001  0.000  0.012  0.013
   19  0.003  0.003  0.006  0.011
   20  0.065  0.001  0.011  0.077
   21  0.016  0.002  0.030  0.049
   22  0.004  0.001  0.020  0.025
   23  0.016  0.002  0.030  0.048
   24  0.015  0.002  0.005  0.022
   25  0.011  0.000  0.013  0.024
   26  0.003  0.003  0.006  0.011
   27  0.004  0.001  0.021  0.025
   28  0.000  0.000  0.001  0.001
   29  0.006  0.001  0.004  0.011
   30  0.002  0.001  0.003  0.005
   31  0.006  0.001  0.004  0.011
   32  0.001  0.000  0.003  0.004
   33  0.002  0.000  0.003  0.005
   34  0.001  0.000  0.003  0.004
   35  0.000  0.000  0.004  0.004
   36  0.000  0.002  0.010  0.013
   37  0.000  0.001  0.000  0.001
   38  0.000  0.000  0.000  0.000
tot    0.304  0.043  0.347  0.695
 
band     7 # energy   -5.74641641 # occ.  2.00000000
 
ion      s      p      d    tot
    1  0.000  0.000  0.008  0.009
    2  0.004  0.001  0.003  0.008
    3  0.006  0.001  0.003  0.010
    4  0.003  0.001  0.003  0.008
    5  0.000  0.001  0.006  0.007
    6  0.000  0.000  0.003  0.003
    7  0.006  0.001  0.003  0.010
    8  0.000  0.000  0.003  0.003
    9  0.000  0.000  0.001  0.001
   10  0.000  0.000  0.035  0.035
   11  0.037  0.001  0.015  0.054
   12  0.028  0.002  0.013  0.042
   13  0.037  0.002  0.015  0.053
   14  0.000  0.004  0.024  0.028
   15  0.001  0.001  0.010  0.012
   16  0.028  0.002  0.012  0.042
   17  0.001  0.001  0.010  0.012
   18  0.000  0.003  0.005  0.008
   19  0.008  0.001  0.010  0.019
   20  0.000  0.002  0.037  0.039
   21  0.048  0.001  0.018  0.067
   22  0.011  0.001  0.010  0.023
   23  0.049  0.001  0.017  0.068
   24  0.000  0.000  0.026  0.026
   25  0.000  0.004  0.003  0.007
   26  0.008  0.001  0.010  0.019
   27  0.011  0.001  0.010  0.023
   28  0.000  0.000  0.001  0.001
   29  0.000  0.000  0.002  0.002
   30  0.004  0.001  0.003  0.008
   31  0.000  0.000  0.002  0.002
   32  0.005  0.001  0.004  0.009
   33  0.004  0.001  0.003  0.008
   34  0.005  0.001  0.004  0.009
   35  0.000  0.000  0.004  0.004
   36  0.000  0.002  0.010  0.013
   37  0.000  0.001  0.000  0.001
   38  0.000  0.000  0.000  0.000
tot    0.304  0.043  0.347  0.695
 
band     8 # energy   -5.72285249 # occ.  2.00000000
 
ion      s      p      d    tot
    1  0.023  0.000  0.003  0.026
    2  0.006  0.000  0.010  0.017
    3  0.006  0.000  0.010  0.017
    4  0.006  0.000  0.010  0.017
    5  0.008  0.000  0.009  0.017
    6  0.006  0.000  0.010  0.017
    7  0.006  0.000  0.010  0.017
    8  0.006  0.000  0.010  0.017
    9  0.000  0.001  0.011  0.012
   10  0.001  0.000  0.033  0.033
   11  0.001  0.001  0.021  0.023
   12  0.001  0.000  0.033  0.033
   13  0.001  0.001  0.021  0.023
   14  0.001  0.001  0.021  0.023
   15  0.032  0.002  0.008  0.042
   16  0.001  0.000  0.033  0.033
   17  0.032  0.002  0.008  0.042
   18  0.032  0.002  0.008  0.042
   19  0.003  0.001  0.017  0.020
   20  0.017  0.000  0.020  0.038
   21  0.017  0.000  0.020  0.038
   22  0.007  0.002  0.011  0.019
   23  0.017  0.000  0.020  0.038
   24  0.007  0.002  0.011  0.019
   25  0.003  0.001  0.017  0.020
   26  0.003  0.001  0.017  0.020
   27  0.007  0.002  0.011  0.019
   28  0.000  0.000  0.000  0.001
   29  0.001  0.000  0.003  0.004
   30  0.001  0.000  0.003  0.004
   31  0.001  0.000  0.003  0.004
   32  0.001  0.000  0.003  0.004
   33  0.001  0.000  0.003  0.004
   34  0.001  0.000  0.003  0.004
   35  0.008  0.000  0.000  0.009
   36  0.001  0.004  0.001  0.006
   37  0.000  0.003  0.000  0.003
   38  0.001  0.000  0.000  0.001
tot    0.265  0.029  0.434  0.728
 
band     9 # energy   -5.68657065 # occ.  2.00000000
 
ion      s      p      d    tot
    1  0.006  0.001  0.001  0.008
    2  0.000  0.001  0.007  0.008
    3  0.000  0.001  0.007  0.008
    4  0.000  0.001  0.007  0.008
    5  0.020  0.002  0.001  0.022
    6  0.000  0.001  0.006  0.008
    7  0.000  0.001  0.007  0.008
    8  0.000  0.001  0.006  0.008
    9  0.000  0.000  0.003  0.003
   10  0.024  0.003  0.002  0.029
   11  0.022  0.001  0.022  0.045
   12  0.024  0.003  0.002  0.028
   13  0.022  0.001  0.022  0.045
   14  0.022  0.001  0.022  0.044
   15  0.001  0.001  0.026  0.027
   16  0.024  0.003  0.002  0.028
   17  0.001  0.001  0.026  0.027
   18  0.001  0.001  0.026  0.027
   19  0.022  0.002  0.007  0.031
   20  0.007  0.003  0.016  0.026
   21  0.008  0.003  0.016  0.026
   22  0.007  0.000  0.026  0.033
   23  0.008  0.003  0.016  0.026
   24  0.007  0.000  0.026  0.033
   25  0.022  0.002  0.007  0.031
   26  0.022  0.002  0.007  0.031
   27  0.007  0.000  0.026  0.033
   28  0.013  0.001  0.000  0.014
   29  0.000  0.000  0.004  0.004
   30  0.000  0.000  0.004  0.004
   31  0.000  0.000  0.004  0.004
   32  0.000  0.000  0.004  0.004
   33  0.000  0.000  0.004  0.004
   34  0.000  0.000  0.004  0.004
   35  0.002  0.001  0.003  0.006
   36  0.000  0.000  0.000  0.000
   37  0.000  0.000  0.000  0.000
   38  0.000  0.000  0.000  0.000
tot    0.295  0.039  0.361  0.696
 
band    10 # energy   -5.66867209 # occ.  2.00000000
 
ion      s      p      d    tot
    1  0.000  0.001  0.003  0.004
    2  0.004  0.001  0.003  0.008
    3  0.000  0.000  0.004  0.004
    4  0.005  0.001  0.003  0.010
    5  0.000  0.000  0.005  0.005
    6  0.008  0.001  0.004  0.014
    7  0.001  0.000  0.004  0.005
    8  0.008  0.001  0.004  0.013
    9  0.000  0.001  0.011  0.013
   10  0.000  0.005  0.003  0.008
   11  0.008  0.001  0.011  0.020
   12  0.016  0.002  0.012  0.030
   13  0.007  0.001  0.014  0.021
   14  0.000  0.001  0.027  0.028
   15  0.052  0.001  0.013  0.066
   16  0.020  0.001  0.014  0.035
   17  0.044  0.001  0.018  0.063
   18  0.000  0.001  0.043  0.044
   19  0.031  0.002  0.009  0.042
   20  0.000  0.002  0.011  0.013
   21  0.000  0.001  0.013  0.014
   22  0.024  0.002  0.013  0.039
   23  0.000  0.001  0.013  0.015
   24  0.000  0.004  0.017  0.021
   25  0.000  0.000  0.034  0.035
   26  0.026  0.001  0.013  0.040
   27  0.029  0.001  0.012  0.042
   28  0.000  0.000  0.006  0.006
   29  0.004  0.001  0.002  0.007
   30  0.002  0.000  0.002  0.005
   31  0.004  0.001  0.002  0.007
   32  0.001  0.000  0.001  0.002
   33  0.002  0.000  0.002  0.004
   34  0.000  0.000  0.001  0.002
   35  0.000  0.001  0.004  0.005
   36  0.000  0.000  0.001  0.001
   37  0.000  0.000  0.000  0.000
   38  0.000  0.000  0.000  0.000
tot    0.297  0.041  0.355  0.693
 
band    11 # energy   -5.66866819 # occ.  2.00000000
 
ion      s      p      d    tot
    1  0.000  0.001  0.003  0.004
    2  0.005  0.001  0.004  0.010
    3  0.009  0.001  0.004  0.014
    4  0.004  0.001  0.004  0.009
    5  0.000  0.000  0.005  0.005
    6  0.000  0.000  0.003  0.004
    7  0.008  0.001  0.004  0.013
    8  0.001  0.000  0.003  0.005
    9  0.000  0.001  0.011  0.013
   10  0.024  0.000  0.017  0.041
   11  0.002  0.001  0.023  0.026
   12  0.008  0.003  0.008  0.019
   13  0.003  0.001  0.021  0.025
   14  0.010  0.001  0.007  0.019
   15  0.012  0.001  0.036  0.049
   16  0.005  0.004  0.006  0.014
   17  0.020  0.001  0.031  0.053
   18  0.064  0.002  0.006  0.071
   19  0.007  0.001  0.029  0.036
   20  0.000  0.001  0.014  0.015
   21  0.000  0.002  0.012  0.014
   22  0.011  0.003  0.015  0.029
   23  0.000  0.002  0.011  0.013
   24  0.035  0.001  0.011  0.047
   25  0.038  0.002  0.003  0.043
   26  0.012  0.001  0.024  0.037
   27  0.007  0.003  0.016  0.026
   28  0.000  0.000  0.006  0.006
   29  0.000  0.000  0.002  0.002
   30  0.002  0.000  0.002  0.004
   31  0.000  0.000  0.002  0.002
   32  0.004  0.001  0.003  0.007
   33  0.003  0.001  0.002  0.005
   34  0.004  0.001  0.002  0.007
   35  0.000  0.001  0.004  0.005
   36  0.000  0.000  0.001  0.001
   37  0.000  0.000  0.000  0.000
   38  0.000  0.000  0.000  0.000
tot    0.297  0.041  0.355  0.693
 
band    12 # energy   -5.66044849 # occ.  2.00000000
 
ion      s      p      d    tot
    1  0.002  0.000  0.000  0.003
    2  0.000  0.000  0.002  0.002
    3  0.000  0.000  0.002  0.002
    4  0.000  0.000  0.002  0.002
    5  0.002  0.000  0.000  0.002
    6  0.000  0.000  0.002  0.002
    7  0.000  0.000  0.002  0.002
    8  0.000  0.000  0.002  0.002
    9  0.003  0.000  0.001  0.004
   10  0.002  0.000  0.011  0.013
   11  0.004  0.001  0.004  0.009
   12  0.002  0.000  0.011  0.013
   13  0.004  0.001  0.004  0.009
   14  0.004  0.001  0.004  0.009
   15  0.007  0.001  0.006  0.014
   16  0.002  0.000  0.011  0.013
   17  0.007  0.001  0.006  0.014
   18  0.007  0.001  0.006  0.014
   19  0.006  0.001  0.017  0.024
   20  0.000  0.000  0.034  0.034
   21  0.000  0.000  0.034  0.034
   22  0.015  0.002  0.016  0.033
   23  0.000  0.000  0.034  0.034
   24  0.015  0.002  0.016  0.033
   25  0.006  0.001  0.017  0.024
   26  0.006  0.001  0.017  0.024
   27  0.015  0.002  0.016  0.033
   28  0.016  0.000  0.019  0.035
   29  0.021  0.000  0.017  0.038
   30  0.021  0.000  0.017  0.038
   31  0.021  0.000  0.017  0.038
   32  0.021  0.000  0.017  0.038
   33  0.021  0.000  0.017  0.038
   34  0.021  0.000  0.017  0.038
   35  0.014  0.000  0.017  0.031
   36  0.017  0.000  0.016  0.033
   37  0.000  0.000  0.000  0.000
   38  0.000  0.000  0.000  0.000
tot    0.282  0.017  0.427  0.726
 
band    13 # energy   -5.25803780 # occ.  2.00000000
 
ion      s      p      d    tot
    1  0.000  0.001  0.004  0.005
    2  0.001  0.001  0.005  0.006
    3  0.009  0.001  0.005  0.015
    4  0.001  0.001  0.005  0.006
    5  0.000  0.001  0.010  0.012
    6  0.005  0.001  0.004  0.009
    7  0.009  0.001  0.005  0.015
    8  0.005  0.001  0.004  0.009
    9  0.000  0.000  0.009  0.009
   10  0.000  0.001  0.050  0.050
   11  0.016  0.001  0.020  0.038
   12  0.007  0.002  0.019  0.027
   13  0.016  0.001  0.020  0.038
   14  0.000  0.000  0.050  0.050
   15  0.001  0.000  0.020  0.021
   16  0.007  0.002  0.019  0.027
   17  0.001  0.000  0.020  0.021
   18  0.000  0.001  0.012  0.013
   19  0.004  0.000  0.018  0.022
   20  0.000  0.000  0.082  0.082
   21  0.016  0.001  0.025  0.042
   22  0.004  0.001  0.019  0.023
   23  0.016  0.001  0.025  0.042
   24  0.000  0.001  0.034  0.035
   25  0.000  0.001  0.009  0.010
   26  0.004  0.000  0.018  0.022
   27  0.004  0.001  0.019  0.023
   28  0.000  0.000  0.007  0.007
   29  0.003  0.001  0.004  0.008
   30  0.008  0.001  0.005  0.014
   31  0.003  0.001  0.004  0.008
   32  0.001  0.001  0.004  0.005
   33  0.008  0.001  0.005  0.014
   34  0.001  0.001  0.004  0.005
   35  0.000  0.000  0.002  0.003
   36  0.000  0.003  0.010  0.012
   37  0.000  0.000  0.000  0.000
   38  0.000  0.000  0.000  0.000
tot    0.151  0.030  0.571  0.752
 
band    14 # energy   -5.25800513 # occ.  2.00000000
 
ion      s      p      d    tot
    1  0.000  0.001  0.004  0.005
    2  0.009  0.001  0.004  0.014
    3  0.001  0.000  0.004  0.005
    4  0.009  0.001  0.004  0.014
    5  0.000  0.001  0.010  0.012
    6  0.005  0.001  0.005  0.011
    7  0.001  0.000  0.004  0.005
    8  0.005  0.001  0.005  0.011
    9  0.000  0.000  0.009  0.009
   10  0.009  0.002  0.009  0.020
   11  0.005  0.000  0.040  0.046
   12  0.002  0.001  0.039  0.043
   13  0.005  0.000  0.040  0.046
   14  0.022  0.001  0.011  0.034
   15  0.000  0.001  0.014  0.016
   16  0.002  0.001  0.039  0.043
   17  0.000  0.001  0.014  0.016
   18  0.002  0.000  0.022  0.024
   19  0.001  0.001  0.012  0.014
   20  0.022  0.001  0.006  0.029
   21  0.005  0.000  0.063  0.068
   22  0.001  0.001  0.029  0.031
   23  0.005  0.000  0.063  0.068
   24  0.005  0.001  0.013  0.019
   25  0.005  0.000  0.020  0.026
   26  0.001  0.001  0.012  0.014
   27  0.001  0.001  0.029  0.031
   28  0.000  0.000  0.007  0.007
   29  0.005  0.001  0.004  0.010
   30  0.000  0.000  0.004  0.004
   31  0.005  0.001  0.004  0.010
   32  0.007  0.001  0.005  0.013
   33  0.000  0.000  0.004  0.004
   34  0.007  0.001  0.005  0.013
   35  0.000  0.000  0.002  0.003
   36  0.000  0.003  0.010  0.012
   37  0.000  0.000  0.000  0.000
   38  0.000  0.000  0.000  0.000
tot    0.151  0.030  0.571  0.752
 
band    15 # energy   -5.25384125 # occ.  2.00000000
 
ion      s      p      d    tot
    1  0.015  0.002  0.002  0.019
    2  0.000  0.001  0.008  0.008
    3  0.000  0.001  0.008  0.008
    4  0.000  0.001  0.008  0.008
    5  0.000  0.000  0.002  0.002
    6  0.000  0.001  0.008  0.009
    7  0.000  0.001  0.008  0.008
    8  0.000  0.001  0.008  0.009
    9  0.015  0.001  0.000  0.016
   10  0.010  0.001  0.012  0.023
   11  0.003  0.000  0.042  0.046
   12  0.010  0.001  0.012  0.023
   13  0.003  0.000  0.042  0.046
   14  0.003  0.000  0.042  0.046
   15  0.002  0.001  0.024  0.028
   16  0.010  0.001  0.012  0.023
   17  0.002  0.001  0.024  0.028
   18  0.002  0.001  0.024  0.027
   19  0.005  0.001  0.010  0.016
   20  0.001  0.000  0.053  0.054
   21  0.001  0.000  0.053  0.054
   22  0.012  0.001  0.022  0.034
   23  0.001  0.000  0.053  0.054
   24  0.012  0.001  0.022  0.035
   25  0.005  0.001  0.010  0.015
   26  0.005  0.001  0.010  0.016
   27  0.012  0.001  0.022  0.034
   28  0.014  0.001  0.000  0.015
   29  0.000  0.000  0.006  0.007
   30  0.000  0.000  0.006  0.007
   31  0.000  0.000  0.006  0.007
   32  0.000  0.000  0.006  0.007
   33  0.000  0.000  0.006  0.007
   34  0.000  0.000  0.006  0.007
   35  0.006  0.001  0.003  0.010
   36  0.001  0.000  0.001  0.002
   37  0.000  0.000  0.000  0.000
   38  0.000  0.000  0.000  0.000
tot    0.147  0.027  0.582  0.756
 
band    16 # energy   -5.18607487 # occ.  2.00000000
 
ion      s      p      d    tot
    1  0.000  0.001  0.015  0.016
    2  0.010  0.001  0.004  0.015
    3  0.001  0.000  0.005  0.007
    4  0.010  0.001  0.004  0.015
    5  0.000  0.000  0.006  0.006
    6  0.004  0.001  0.005  0.010
    7  0.001  0.000  0.005  0.007
    8  0.004  0.001  0.005  0.010
    9  0.000  0.001  0.006  0.007
   10  0.000  0.001  0.033  0.033
   11  0.000  0.001  0.020  0.021
   12  0.008  0.000  0.022  0.030
   13  0.000  0.001  0.020  0.021
   14  0.000  0.001  0.016  0.017
   15  0.010  0.002  0.020  0.032
   16  0.008  0.000  0.022  0.030
   17  0.010  0.002  0.020  0.032
   18  0.000  0.000  0.061  0.062
   19  0.015  0.001  0.019  0.035
   20  0.000  0.002  0.022  0.023
   21  0.000  0.001  0.024  0.024
   22  0.017  0.001  0.020  0.038
   23  0.000  0.001  0.024  0.024
   24  0.000  0.001  0.030  0.030
   25  0.000  0.000  0.066  0.067
   26  0.015  0.001  0.019  0.035
   27  0.017  0.001  0.020  0.038
   28  0.000  0.001  0.005  0.006
   29  0.005  0.001  0.004  0.010
   30  0.000  0.000  0.005  0.005
   31  0.005  0.001  0.004  0.010
   32  0.005  0.001  0.003  0.008
   33  0.000  0.000  0.005  0.005
   34  0.005  0.001  0.003  0.008
   35  0.000  0.001  0.008  0.009
   36  0.000  0.000  0.002  0.002
   37  0.000  0.000  0.000  0.000
   38  0.000  0.000  0.000  0.000
tot    0.149  0.028  0.573  0.750
 
band    17 # energy   -5.18603449 # occ.  2.00000000
 
ion      s      p      d    tot
    1  0.000  0.001  0.015  0.016
    2  0.000  0.000  0.005  0.006
    3  0.009  0.001  0.005  0.015
    4  0.000  0.000  0.005  0.006
    5  0.000  0.000  0.006  0.006
    6  0.006  0.001  0.005  0.011
    7  0.009  0.001  0.005  0.015
    8  0.006  0.001  0.005  0.011
    9  0.000  0.001  0.006  0.007
   10  0.010  0.000  0.018  0.028
   11  0.000  0.001  0.018  0.019
   12  0.003  0.000  0.029  0.032
   13  0.000  0.001  0.018  0.019
   14  0.000  0.001  0.021  0.022
   15  0.003  0.001  0.048  0.051
   16  0.003  0.000  0.029  0.032
   17  0.003  0.001  0.048  0.052
   18  0.013  0.002  0.006  0.022
   19  0.005  0.001  0.051  0.056
   20  0.000  0.000  0.025  0.025
   21  0.000  0.001  0.022  0.024
   22  0.006  0.001  0.027  0.033
   23  0.000  0.001  0.022  0.024
   24  0.023  0.001  0.017  0.041
   25  0.020  0.001  0.004  0.025
   26  0.005  0.001  0.051  0.056
   27  0.006  0.001  0.027  0.033
   28  0.000  0.001  0.005  0.006
   29  0.001  0.000  0.004  0.006
   30  0.007  0.001  0.003  0.010
   31  0.001  0.000  0.004  0.006
   32  0.002  0.001  0.005  0.008
   33  0.007  0.001  0.003  0.010
   34  0.002  0.001  0.005  0.008
   35  0.000  0.001  0.008  0.009
   36  0.000  0.000  0.002  0.002
   37  0.000  0.000  0.000  0.000
   38  0.000  0.000  0.000  0.000
tot    0.149  0.028  0.573  0.750
 
band    18 # energy   -5.18227409 # occ.  2.00000000
 
ion      s      p      d    tot
    1  0.007  0.000  0.001  0.008
    2  0.000  0.001  0.009  0.009
    3  0.000  0.001  0.009  0.009
    4  0.000  0.001  0.009  0.009
    5  0.018  0.002  0.000  0.020
    6  0.000  0.001  0.009  0.010
    7  0.000  0.001  0.009  0.009
    8  0.000  0.001  0.009  0.010
    9  0.003  0.001  0.002  0.006
   10  0.000  0.000  0.044  0.044
   11  0.005  0.002  0.012  0.019
   12  0.000  0.000  0.043  0.044
   13  0.005  0.002  0.012  0.019
   14  0.005  0.001  0.013  0.019
   15  0.007  0.001  0.023  0.031
   16  0.000  0.000  0.043  0.044
   17  0.007  0.001  0.023  0.031
   18  0.007  0.001  0.023  0.031
   19  0.010  0.000  0.041  0.052
   20  0.010  0.002  0.008  0.021
   21  0.011  0.002  0.008  0.021
   22  0.001  0.000  0.034  0.035
   23  0.011  0.002  0.008  0.021
   24  0.001  0.000  0.035  0.036
   25  0.010  0.000  0.042  0.052
   26  0.010  0.000  0.041  0.052
   27  0.001  0.000  0.034  0.035
   28  0.001  0.001  0.006  0.007
   29  0.000  0.000  0.005  0.006
   30  0.000  0.000  0.005  0.006
   31  0.000  0.000  0.005  0.006
   32  0.000  0.000  0.005  0.006
   33  0.000  0.000  0.005  0.006
   34  0.000  0.000  0.005  0.006
   35  0.002  0.000  0.000  0.003
   36  0.009  0.006  0.000  0.015
   37  0.000  0.002  0.000  0.003
   38  0.001  0.000  0.000  0.001
tot    0.145  0.034  0.585  0.764
 
band    19 # energy   -4.87648826 # occ.  2.00000000
 
ion      s      p      d    tot
    1  0.000  0.000  0.021  0.021
    2  0.002  0.001  0.008  0.012
    3  0.002  0.000  0.013  0.016
    4  0.002  0.001  0.008  0.012
    5  0.000  0.001  0.019  0.020
    6  0.010  0.001  0.009  0.019
    7  0.002  0.000  0.013  0.016
    8  0.010  0.001  0.009  0.019
    9  0.000  0.001  0.004  0.005
   10  0.000  0.001  0.024  0.024
   11  0.000  0.000  0.056  0.057
   12  0.000  0.000  0.013  0.013
   13  0.000  0.000  0.056  0.057
   14  0.001  0.000  0.050  0.051
   15  0.000  0.000  0.016  0.017
   16  0.000  0.000  0.013  0.014
   17  0.000  0.000  0.016  0.017
   18  0.000  0.000  0.027  0.027
   19  0.000  0.000  0.008  0.008
   20  0.001  0.000  0.084  0.085
   21  0.000  0.000  0.050  0.051
   22  0.000  0.000  0.026  0.027
   23  0.000  0.000  0.050  0.051
   24  0.001  0.000  0.020  0.021
   25  0.000  0.000  0.013  0.014
   26  0.000  0.000  0.008  0.008
   27  0.000  0.000  0.026  0.027
   28  0.000  0.001  0.005  0.006
   29  0.008  0.001  0.015  0.024
   30  0.001  0.000  0.009  0.011
   31  0.008  0.001  0.015  0.024
   32  0.004  0.000  0.006  0.010
   33  0.001  0.000  0.009  0.011
   34  0.004  0.000  0.006  0.010
   35  0.000  0.000  0.017  0.017
   36  0.000  0.003  0.010  0.012
   37  0.000  0.000  0.000  0.000
   38  0.000  0.000  0.000  0.000
tot    0.060  0.016  0.755  0.831
 
band    20 # energy   -4.87644672 # occ.  2.00000000
 
ion      s      p      d    tot
    1  0.000  0.000  0.021  0.021
    2  0.007  0.000  0.012  0.019
    3  0.007  0.001  0.007  0.015
    4  0.007  0.000  0.012  0.019
    5  0.000  0.001  0.019  0.020
    6  0.000  0.000  0.011  0.012
    7  0.007  0.001  0.007  0.015
    8  0.000  0.000  0.011  0.012
    9  0.000  0.001  0.004  0.005
   10  0.000  0.000  0.010  0.010
   11  0.000  0.000  0.052  0.053
   12  0.000  0.000  0.020  0.021
   13  0.000  0.000  0.052  0.053
   14  0.000  0.000  0.058  0.058
   15  0.000  0.000  0.023  0.024
   16  0.000  0.000  0.020  0.021
   17  0.000  0.000  0.023  0.024
   18  0.000  0.000  0.013  0.013
   19  0.000  0.000  0.011  0.012
   20  0.000  0.000  0.040  0.040
   21  0.001  0.000  0.072  0.074
   22  0.001  0.000  0.022  0.023
   23  0.001  0.000  0.072  0.074
   24  0.000  0.000  0.028  0.028
   25  0.000  0.000  0.006  0.006
   26  0.000  0.000  0.011  0.012
   27  0.001  0.000  0.022  0.023
   28  0.000  0.001  0.005  0.006
   29  0.000  0.000  0.006  0.006
   30  0.008  0.001  0.011  0.019
   31  0.000  0.000  0.006  0.006
   32  0.005  0.001  0.014  0.019
   33  0.008  0.001  0.011  0.019
   34  0.005  0.001  0.014  0.019
   35  0.000  0.000  0.017  0.017
   36  0.000  0.003  0.010  0.012
   37  0.000  0.000  0.000  0.000
   38  0.000  0.000  0.000  0.000
tot    0.060  0.016  0.755  0.831
 
band    21 # energy   -4.86324806 # occ.  2.00000000
 
ion      s      p      d    tot
    1  0.008  0.000  0.008  0.016
    2  0.000  0.001  0.013  0.014
    3  0.000  0.001  0.013  0.014
    4  0.000  0.001  0.013  0.014
    5  0.003  0.001  0.007  0.011
    6  0.000  0.001  0.013  0.014
    7  0.000  0.001  0.013  0.014
    8  0.000  0.001  0.013  0.014
    9  0.020  0.001  0.000  0.022
   10  0.000  0.000  0.027  0.027
   11  0.000  0.001  0.044  0.045
   12  0.000  0.000  0.027  0.027
   13  0.000  0.001  0.044  0.045
   14  0.000  0.001  0.044  0.045
   15  0.000  0.000  0.028  0.029
   16  0.000  0.000  0.027  0.027