PROCAR new format
# of k-points:   10         # of bands:  252         # of ions:   38

 k-point     1 :    0.00000000 0.00000000 0.00000000     weight = 0.01562500

band     1 # energy  -22.19019916 # occ.  2.00000000
 
ion      s      p      d    tot
    1  0.000  0.000  0.000  0.000
    2  0.000  0.000  0.000  0.000
    3  0.000  0.000  0.000  0.000
    4  0.000  0.000  0.000  0.000
    5  0.000  0.000  0.000  0.000
    6  0.000  0.000  0.000  0.000
    7  0.000  0.000  0.000  0.000
    8  0.000  0.000  0.000  0.000
    9  0.000  0.000  0.000  0.000
   10  0.000  0.000  0.000  0.000
   11  0.000  0.000  0.000  0.000
   12  0.000  0.000  0.000  0.000
   13  0.000  0.000  0.000  0.000
   14  0.000  0.000  0.000  0.000
   15  0.000  0.000  0.000  0.000
   16  0.000  0.000  0.000  0.000
   17  0.000  0.000  0.000  0.000
   18  0.000  0.000  0.000  0.000
   19  0.000  0.000  0.000  0.000
   20  0.000  0.000  0.000  0.000
   21  0.000  0.000  0.000  0.000
   22  0.000  0.000  0.000  0.000
   23  0.000  0.000  0.000  0.000
   24  0.000  0.000  0.000  0.000
   25  0.000  0.000  0.000  0.000
   26  0.000  0.000  0.000  0.000
   27  0.000  0.000  0.000  0.000
   28  0.000  0.000  0.000  0.000
   29  0.000  0.000  0.000  0.000
   30  0.000  0.000  0.000  0.000
   31  0.000  0.000  0.000  0.000
   32  0.000  0.000  0.000  0.000
   33  0.000  0.000  0.000  0.000
   34  0.000  0.000  0.000  0.000
   35  0.000  0.000  0.000  0.000
   36  0.000  0.000  0.000  0.001
   37  0.155  0.111  0.000  0.266
   38  0.637  0.091  0.000  0.728
tot    0.792  0.203  0.000  0.995
 
band     2 # energy   -8.23757695 # occ.  2.00000000
 
ion      s      p      d    tot
    1  0.000  0.000  0.000  0.000
    2  0.000  0.000  0.000  0.000
    3  0.000  0.000  0.000  0.000
    4  0.000  0.000  0.000  0.000
    5  0.000  0.000  0.000  0.000
    6  0.000  0.000  0.000  0.000
    7  0.000  0.000  0.000  0.000
    8  0.000  0.000  0.000  0.000
    9  0.000  0.000  0.000  0.000
   10  0.000  0.000  0.000  0.000
   11  0.000  0.000  0.000  0.000
   12  0.000  0.000  0.000  0.000
   13  0.000  0.000  0.000  0.000
   14  0.000  0.000  0.000  0.000
   15  0.000  0.000  0.000  0.000
   16  0.000  0.000  0.000  0.000
   17  0.000  0.000  0.000  0.000
   18  0.000  0.000  0.000  0.000
   19  0.000  0.000  0.000  0.000
   20  0.001  0.000  0.000  0.001
   21  0.001  0.000  0.000  0.001
   22  0.000  0.000  0.000  0.000
   23  0.001  0.000  0.000  0.001
   24  0.000  0.000  0.000  0.000
   25  0.000  0.000  0.000  0.000
   26  0.000  0.000  0.000  0.000
   27  0.000  0.000  0.000  0.000
   28  0.000  0.000  0.000  0.000
   29  0.001  0.000  0.001  0.002
   30  0.001  0.000  0.001  0.002
   31  0.001  0.000  0.001  0.002
   32  0.001  0.000  0.001  0.002
   33  0.001  0.000  0.001  0.002
   34  0.001  0.000  0.001  0.002
   35  0.000  0.000  0.000  0.000
   36  0.058  0.033  0.053  0.144
   37  0.287  0.011  0.000  0.298
   38  0.133  0.182  0.000  0.315
tot    0.487  0.229  0.061  0.776
 
band     3 # energy   -6.29981785 # occ.  2.00000000
 
ion      s      p      d    tot
    1  0.006  0.001  0.000  0.006
    2  0.005  0.001  0.000  0.006
    3  0.005  0.001  0.000  0.006
    4  0.005  0.001  0.000  0.006
    5  0.005  0.001  0.000  0.006
    6  0.005  0.001  0.000  0.006
    7  0.005  0.001  0.000  0.006
    8  0.005  0.001  0.000  0.006
    9  0.005  0.001  0.000  0.006
   10  0.022  0.000  0.000  0.022
   11  0.022  0.000  0.000  0.022
   12  0.022  0.000  0.000  0.022
   13  0.022  0.000  0.000  0.022
   14  0.022  0.000  0.000  0.022
   15  0.021  0.000  0.000  0.022
   16  0.022  0.000  0.000  0.022
   17  0.021  0.000  0.000  0.022
   18  0.021  0.000  0.000  0.022
   19  0.021  0.000  0.000  0.022
   20  0.024  0.000  0.000  0.025
   21  0.024  0.000  0.000  0.025
   22  0.022  0.000  0.000  0.022
   23  0.024  0.000  0.000  0.025
   24  0.022  0.000  0.000  0.022
   25  0.021  0.000  0.000  0.022
   26  0.021  0.000  0.000  0.022
   27  0.022  0.000  0.000  0.022
   28  0.005  0.001  0.000  0.006
   29  0.006  0.001  0.000  0.006
   30  0.006  0.001  0.000  0.006
   31  0.006  0.001  0.000  0.006
   32  0.006  0.001  0.000  0.006
   33  0.006  0.001  0.000  0.006
   34  0.006  0.001  0.000  0.006
   35  0.005  0.001  0.000  0.006
   36  0.011  0.000  0.001  0.012
   37  0.001  0.009  0.000  0.010
   38  0.005  0.027  0.000  0.032
tot    0.506  0.048  0.007  0.561
 
band     4 # energy   -5.71105805 # occ.  2.00000000
 
ion      s      p      d    tot
    1  0.003  0.000  0.000  0.003
    2  0.004  0.000  0.000  0.004
    3  0.004  0.000  0.000  0.004
    4  0.004  0.000  0.000  0.004
    5  0.004  0.000  0.000  0.004
    6  0.004  0.000  0.000  0.004
    7  0.004  0.000  0.000  0.004
    8  0.004  0.000  0.000  0.004
    9  0.004  0.000  0.000  0.004
   10  0.005  0.000  0.003  0.008
   11  0.006  0.000  0.001  0.008
   12  0.005  0.000  0.003  0.008
   13  0.006  0.000  0.001  0.008
   14  0.006  0.000  0.001  0.008
   15  0.008  0.000  0.001  0.009
   16  0.005  0.000  0.003  0.008
   17  0.008  0.000  0.001  0.009
   18  0.008  0.000  0.001  0.009
   19  0.000  0.000  0.001  0.001
   20  0.002  0.002  0.008  0.011
   21  0.002  0.002  0.008  0.011
   22  0.000  0.000  0.000  0.001
   23  0.002  0.002  0.008  0.011
   24  0.000  0.000  0.000  0.001
   25  0.000  0.000  0.001  0.001
   26  0.000  0.000  0.001  0.001
   27  0.000  0.000  0.000  0.001
   28  0.001  0.000  0.001  0.002
   29  0.003  0.000  0.005  0.008
   30  0.003  0.000  0.005  0.008
   31  0.003  0.000  0.005  0.008
   32  0.003  0.000  0.005  0.008
   33  0.003  0.000  0.005  0.008
   34  0.003  0.000  0.005  0.008
   35  0.001  0.000  0.001  0.002
   36  0.073  0.015  0.053  0.141
   37  0.004  0.157  0.000  0.161
   38  0.026  0.257  0.000  0.284
tot    0.219  0.441  0.127  0.788
 
band     5 # energy   -5.34758762 # occ.  2.00000000
 
ion      s      p      d    tot
    1  0.005  0.000  0.000  0.006
    2  0.004  0.000  0.000  0.004
    3  0.004  0.000  0.000  0.004
    4  0.004  0.000  0.000  0.004
    5  0.003  0.000  0.000  0.004
    6  0.004  0.000  0.000  0.004
    7  0.004  0.000  0.000  0.004
    8  0.004  0.000  0.000  0.004
    9  0.003  0.000  0.000  0.003
   10  0.009  0.001  0.014  0.024
   11  0.006  0.001  0.018  0.025
   12  0.009  0.001  0.014  0.024
   13  0.006  0.001  0.018  0.025
   14  0.006  0.001  0.018  0.025
   15  0.005  0.001  0.018  0.023
   16  0.009  0.001  0.014  0.024
   17  0.005  0.001  0.018  0.023
   18  0.005  0.001  0.018  0.023
   19  0.014  0.000  0.025  0.039
   20  0.009  0.000  0.032  0.041
   21  0.009  0.000  0.032  0.041
   22  0.017  0.000  0.022  0.040
   23  0.009  0.000  0.032  0.041
   24  0.017  0.000  0.022  0.040
   25  0.014  0.000  0.025  0.039
   26  0.014  0.000  0.025  0.039
   27  0.017  0.000  0.022  0.040
   28  0.004  0.001  0.001  0.006
   29  0.001  0.001  0.003  0.005
   30  0.001  0.001  0.003  0.005
   31  0.001  0.001  0.003  0.005
   32  0.001  0.001  0.003  0.005
   33  0.001  0.001  0.003  0.005
   34  0.001  0.001  0.003  0.005
   35  0.004  0.001  0.001  0.005
   36  0.005  0.005  0.009  0.020
   37  0.002  0.023  0.000  0.025
   38  0.002  0.028  0.000  0.030
tot    0.241  0.073  0.419  0.733
 
band     6 # energy   -5.26763305 # occ.  2.00000000
 
ion      s      p      d    tot
    1  0.000  0.000  0.000  0.000
    2  0.000  0.000  0.000  0.000
    3  0.000  0.000  0.000  0.000
    4  0.000  0.000  0.000  0.000
    5  0.000  0.000  0.000  0.000
    6  0.000  0.000  0.000  0.000
    7  0.000  0.000  0.000  0.000
    8  0.000  0.000  0.000  0.000
    9  0.000  0.000  0.000  0.000
   10  0.000  0.000  0.000  0.000
   11  0.000  0.000  0.000  0.000
   12  0.000  0.000  0.000  0.000
   13  0.000  0.000  0.000  0.000
   14  0.000  0.000  0.000  0.000
   15  0.000  0.000  0.000  0.000
   16  0.000  0.000  0.000  0.000
   17  0.000  0.000  0.000  0.000
   18  0.000  0.000  0.000  0.000
   19  0.000  0.000  0.002  0.002
   20  0.000  0.000  0.001  0.001
   21  0.000  0.000  0.000  0.000
   22  0.000  0.000  0.001  0.001
   23  0.000  0.000  0.000  0.000
   24  0.000  0.000  0.000  0.000
   25  0.000  0.000  0.000  0.000
   26  0.000  0.000  0.002  0.002
   27  0.000  0.000  0.001  0.001
   28  0.000  0.000  0.001  0.001
   29  0.002  0.001  0.004  0.006
   30  0.000  0.000  0.002  0.002
   31  0.002  0.001  0.004  0.006
   32  0.002  0.001  0.004  0.006
   33  0.000  0.000  0.002  0.002
   34  0.002  0.001  0.004  0.006
   35  0.000  0.000  0.001  0.001
   36  0.000  0.005  0.022  0.027
   37  0.000  0.174  0.000  0.174
   38  0.000  0.421  0.000  0.421
tot    0.009  0.602  0.053  0.664
 
band     7 # energy   -5.26750068 # occ.  2.00000000
 
ion      s      p      d    tot
    1  0.000  0.000  0.000  0.000
    2  0.000  0.000  0.000  0.000
    3  0.000  0.000  0.000  0.000
    4  0.000  0.000  0.000  0.000
    5  0.000  0.000  0.000  0.000
    6  0.000  0.000  0.000  0.000
    7  0.000  0.000  0.000  0.000
    8  0.000  0.000  0.000  0.000
    9  0.000  0.000  0.000  0.000
   10  0.000  0.000  0.000  0.000
   11  0.000  0.000  0.000  0.000
   12  0.000  0.000  0.000  0.000
   13  0.000  0.000  0.000  0.000
   14  0.000  0.000  0.000  0.000
   15  0.000  0.000  0.000  0.000
   16  0.000  0.000  0.000  0.000
   17  0.000  0.000  0.000  0.000
   18  0.000  0.000  0.000  0.000
   19  0.000  0.000  0.001  0.001
   20  0.000  0.000  0.000  0.000
   21  0.000  0.000  0.001  0.001
   22  0.000  0.000  0.000  0.001
   23  0.000  0.000  0.001  0.001
   24  0.000  0.000  0.001  0.001
   25  0.000  0.000  0.002  0.002
   26  0.000  0.000  0.001  0.001
   27  0.000  0.000  0.000  0.001
   28  0.000  0.000  0.001  0.001
   29  0.001  0.000  0.003  0.004
   30  0.003  0.001  0.004  0.008
   31  0.001  0.000  0.003  0.004
   32  0.001  0.000  0.003  0.004
   33  0.003  0.001  0.004  0.008
   34  0.001  0.000  0.003  0.004
   35  0.000  0.000  0.001  0.001
   36  0.000  0.005  0.022  0.027
   37  0.000  0.174  0.000  0.174
   38  0.000  0.421  0.000  0.421
tot    0.009  0.602  0.053  0.664
 
band     8 # energy   -5.10461993 # occ.  2.00000000
 
ion      s      p      d    tot
    1  0.023  0.000  0.028  0.052
    2  0.018  0.000  0.030  0.049
    3  0.018  0.000  0.030  0.049
    4  0.018  0.000  0.030  0.049
    5  0.016  0.000  0.031  0.047
    6  0.018  0.000  0.030  0.049
    7  0.018  0.000  0.030  0.049
    8  0.018  0.000  0.030  0.049
    9  0.017  0.000  0.032  0.048
   10  0.000  0.001  0.026  0.026
   11  0.001  0.001  0.020  0.021
   12  0.000  0.001  0.026  0.026
   13  0.001  0.001  0.020  0.021
   14  0.001  0.001  0.020  0.021
   15  0.002  0.001  0.019  0.022
   16  0.000  0.001  0.026  0.026
   17  0.002  0.001  0.019  0.022
   18  0.002  0.001  0.019  0.022
   19  0.000  0.000  0.004  0.004
   20  0.000  0.000  0.005  0.005
   21  0.000  0.000  0.005  0.005
   22  0.002  0.000  0.005  0.006
   23  0.000  0.000  0.005  0.005
   24  0.002  0.000  0.005  0.006
   25  0.000  0.000  0.004  0.004
   26  0.000  0.000  0.004  0.004
   27  0.002  0.000  0.005  0.006
   28  0.004  0.000  0.001  0.006
   29  0.003  0.000  0.003  0.006
   30  0.003  0.000  0.003  0.006
   31  0.003  0.000  0.003  0.006
   32  0.003  0.000  0.003  0.006
   33  0.003  0.000  0.003  0.006
   34  0.003  0.000  0.003  0.006
   35  0.005  0.000  0.002  0.008
   36  0.000  0.000  0.004  0.005
   37  0.001  0.003  0.000  0.003
   38  0.000  0.003  0.000  0.003
tot    0.207  0.014  0.534  0.754
 
band     9 # energy   -5.00498576 # occ.  2.00000000
 
ion      s      p      d    tot
    1  0.000  0.000  0.003  0.003
    2  0.000  0.000  0.006  0.006
    3  0.000  0.000  0.006  0.006
    4  0.000  0.000  0.006  0.006
    5  0.001  0.001  0.003  0.005
    6  0.000  0.000  0.006  0.006
    7  0.000  0.000  0.006  0.006
    8  0.000  0.000  0.006  0.006
    9  0.004  0.001  0.005  0.010
   10  0.001  0.001  0.035  0.036
   11  0.015  0.001  0.012  0.028
   12  0.001  0.001  0.034  0.036
   13  0.015  0.001  0.012  0.028
   14  0.015  0.001  0.012  0.028
   15  0.008  0.000  0.066  0.074
   16  0.001  0.001  0.034  0.036
   17  0.008  0.000  0.066  0.074
   18  0.008  0.000  0.066  0.074
   19  0.003  0.000  0.042  0.045
   20  0.012  0.001  0.018  0.031
   21  0.012  0.001  0.018  0.030
   22  0.001  0.001  0.020  0.022
   23  0.012  0.001  0.018  0.030
   24  0.001  0.001  0.020  0.022
   25  0.003  0.000  0.041  0.044
   26  0.003  0.000  0.042  0.045
   27  0.001  0.001  0.020  0.022
   28  0.004  0.001  0.002  0.006
   29  0.000  0.000  0.005  0.005
   30  0.000  0.000  0.005  0.005
   31  0.000  0.000  0.005  0.005
   32  0.000  0.000  0.005  0.005
   33  0.000  0.000  0.005  0.005
   34  0.000  0.000  0.005  0.005
   35  0.000  0.000  0.001  0.001
   36  0.000  0.001  0.000  0.002
   37  0.000  0.001  0.000  0.001
   38  0.000  0.001  0.000  0.002
tot    0.127  0.021  0.653  0.801
 
band    10 # energy   -4.99889808 # occ.  2.00000000
 
ion      s      p      d    tot
    1  0.000  0.001  0.009  0.009
    2  0.000  0.000  0.005  0.005
    3  0.000  0.000  0.005  0.005
    4  0.000  0.000  0.005  0.005
    5  0.004  0.000  0.000  0.004
    6  0.000  0.000  0.005  0.005
    7  0.000  0.000  0.005  0.005
    8  0.000  0.000  0.005  0.005
    9  0.000  0.000  0.000  0.000
   10  0.010  0.001  0.031  0.041
   11  0.001  0.000  0.042  0.042
   12  0.009  0.001  0.031  0.041
   13  0.001  0.000  0.042  0.042
   14  0.001  0.000  0.041  0.042
   15  0.003  0.001  0.014  0.018
   16  0.009  0.001  0.031  0.041
   17  0.003  0.001  0.014  0.018
   18  0.003  0.001  0.014  0.018
   19  0.013  0.001  0.011  0.026
   20  0.000  0.001  0.036  0.037
   21  0.000  0.001  0.036  0.037
   22  0.007  0.000  0.068  0.075
   23  0.000  0.001  0.036  0.037
   24  0.007  0.000  0.068  0.075
   25  0.013  0.001  0.011  0.025
   26  0.013  0.001  0.011  0.026
   27  0.007  0.000  0.068  0.075
   28  0.001  0.001  0.005  0.007
   29  0.000  0.000  0.004  0.005
   30  0.000  0.000  0.004  0.005
   31  0.000  0.000  0.004  0.005
   32  0.000  0.000  0.004  0.005
   33  0.000  0.000  0.004  0.005
   34  0.000  0.000  0.004  0.005
   35  0.003  0.001  0.005  0.009
   36  0.000  0.001  0.000  0.001
   37  0.000  0.001  0.000  0.002
   38  0.000  0.002  0.000  0.002
tot    0.113  0.019  0.676  0.808
 
band    11 # energy   -4.99638999 # occ.  2.00000000
 
ion      s      p      d    tot
    1  0.000  0.000  0.003  0.003
    2  0.000  0.000  0.003  0.003
    3  0.001  0.000  0.005  0.007
    4  0.000  0.000  0.003  0.003
    5  0.000  0.000  0.010  0.010
    6  0.001  0.001  0.004  0.006
    7  0.001  0.000  0.005  0.007
    8  0.001  0.001  0.004  0.006
    9  0.000  0.000  0.003  0.003
   10  0.006  0.001  0.012  0.019
   11  0.008  0.001  0.051  0.060
   12  0.001  0.000  0.060  0.062
   13  0.007  0.001  0.053  0.061
   14  0.029  0.001  0.011  0.041
   15  0.002  0.001  0.017  0.020
   16  0.002  0.000  0.058  0.060
   17  0.002  0.001  0.016  0.019
   18  0.009  0.000  0.037  0.046
   19  0.000  0.001  0.034  0.034
   20  0.015  0.001  0.028  0.043
   21  0.003  0.001  0.021  0.026
   22  0.005  0.000  0.055  0.060
   23  0.004  0.001  0.022  0.027
   24  0.021  0.001  0.005  0.027
   25  0.000  0.000  0.021  0.021
   26  0.000  0.001  0.034  0.035
   27  0.006  0.000  0.052  0.058
   28  0.000  0.000  0.001  0.001
   29  0.001  0.000  0.004  0.006
   30  0.000  0.000  0.003  0.003
   31  0.001  0.000  0.005  0.006
   32  0.000  0.000  0.002  0.003
   33  0.000  0.000  0.003  0.003
   34  0.001  0.000  0.002  0.003
   35  0.000  0.000  0.007  0.007
   36  0.000  0.000  0.001  0.001
   37  0.000  0.000  0.000  0.000
   38  0.000  0.001  0.000  0.001
tot    0.128  0.018  0.656  0.802
 
band    12 # energy   -4.99638790 # occ.  2.00000000
 
ion      s      p      d    tot
    1  0.000  0.000  0.003  0.003
    2  0.002  0.001  0.006  0.008
    3  0.000  0.000  0.003  0.004
    4  0.002  0.001  0.006  0.008
    5  0.000  0.000  0.010  0.010
    6  0.000  0.000  0.004  0.004
    7  0.001  0.000  0.003  0.004
    8  0.000  0.000  0.004  0.005
    9  0.000  0.000  0.003  0.003
   10  0.000  0.000  0.075  0.076
   11  0.021  0.001  0.026  0.048
   12  0.004  0.000  0.027  0.032
   13  0.022  0.001  0.024  0.047
   14  0.000  0.001  0.066  0.066
   15  0.006  0.001  0.030  0.036
   16  0.004  0.000  0.029  0.034
   17  0.007  0.001  0.031  0.038
   18  0.000  0.002  0.009  0.011
   19  0.000  0.000  0.025  0.026
   20  0.000  0.001  0.019  0.021
   21  0.011  0.001  0.026  0.038
   22  0.016  0.001  0.020  0.037
   23  0.011  0.001  0.026  0.037
   24  0.000  0.000  0.069  0.070
   25  0.000  0.001  0.038  0.039
   26  0.000  0.000  0.025  0.025
   27  0.015  0.001  0.022  0.038
   28  0.000  0.000  0.001  0.001
   29  0.000  0.000  0.002  0.002
   30  0.001  0.000  0.004  0.005
   31  0.000  0.000  0.002  0.002
   32  0.001  0.000  0.004  0.005
   33  0.001  0.000  0.004  0.005
   34  0.001  0.000  0.004  0.005
   35  0.000  0.000  0.007  0.007
   36  0.000  0.000  0.001  0.001
   37  0.000  0.000  0.000  0.000
   38  0.000  0.001  0.000  0.001
tot    0.128  0.018  0.656  0.802
 
band    13 # energy   -4.99212169 # occ.  2.00000000
 
ion      s      p      d    tot
    1  0.000  0.000  0.007  0.007
    2  0.002  0.001  0.005  0.008
    3  0.001  0.000  0.004  0.005
    4  0.002  0.001  0.006  0.008
    5  0.000  0.000  0.000  0.000
    6  0.001  0.000  0.004  0.005
    7  0.000  0.000  0.003  0.003
    8  0.000  0.000  0.003  0.003
    9  0.000  0.000  0.007  0.008
   10  0.020  0.000  0.030  0.051
   11  0.000  0.001  0.039  0.040
   12  0.008  0.001  0.025  0.034
   13  0.000  0.001  0.036  0.037
   14  0.000  0.000  0.030  0.030
   15  0.002  0.000  0.084  0.087
   16  0.003  0.001  0.022  0.026
   17  0.008  0.000  0.059  0.067
   18  0.019  0.001  0.007  0.027
   19  0.002  0.001  0.031  0.035
   20  0.009  0.001  0.010  0.020
   21  0.004  0.000  0.044  0.048
   22  0.001  0.001  0.025  0.027
   23  0.001  0.000  0.061  0.063
   24  0.003  0.000  0.032  0.034
   25  0.020  0.001  0.017  0.038
   26  0.008  0.001  0.027  0.036
   27  0.000  0.001  0.022  0.024
   28  0.000  0.000  0.006  0.006
   29  0.000  0.000  0.002  0.002
   30  0.001  0.000  0.003  0.004
   31  0.000  0.000  0.002  0.002
   32  0.000  0.000  0.003  0.003
   33  0.001  0.000  0.004  0.005
   34  0.001  0.000  0.003  0.004
   35  0.000  0.000  0.001  0.001
   36  0.000  0.000  0.000  0.000
   37  0.000  0.001  0.000  0.001
   38  0.000  0.004  0.000  0.004
tot    0.117  0.022  0.666  0.805
 
band    14 # energy   -4.99212063 # occ.  2.00000000
 
ion      s      p      d    tot
    1  0.000  0.000  0.007  0.007
    2  0.000  0.000  0.003  0.003
    3  0.001  0.000  0.005  0.006
    4  0.000  0.000  0.002  0.003
    5  0.000  0.000  0.000  0.000
    6  0.001  0.000  0.004  0.006
    7  0.001  0.000  0.005  0.007
    8  0.001  0.001  0.005  0.007
    9  0.000  0.000  0.007  0.008
   10  0.001  0.001  0.022  0.023
   11  0.000  0.000  0.031  0.031
   12  0.012  0.001  0.027  0.040
   13  0.000  0.001  0.034  0.035
   14  0.000  0.001  0.040  0.041
   15  0.018  0.001  0.016  0.034
   16  0.018  0.001  0.029  0.048
   17  0.012  0.000  0.041  0.054
   18  0.001  0.000  0.093  0.093
   19  0.018  0.001  0.019  0.038
   20  0.000  0.000  0.067  0.068
   21  0.005  0.000  0.033  0.039
   22  0.002  0.001  0.028  0.030
   23  0.008  0.001  0.016  0.025
   24  0.000  0.001  0.021  0.022
   25  0.001  0.001  0.033  0.034
   26  0.012  0.001  0.024  0.037
   27  0.002  0.000  0.031  0.034
   28  0.000  0.000  0.006  0.006
   29  0.001  0.000  0.003  0.005
   30  0.000  0.000  0.002  0.003
   31  0.001  0.000  0.004  0.005
   32  0.001  0.000  0.003  0.004
   33  0.000  0.000  0.002  0.002
   34  0.000  0.000  0.002  0.003
   35  0.000  0.000  0.001  0.001
   36  0.000  0.000  0.000  0.000
   37  0.000  0.001  0.000  0.001
   38  0.000  0.004  0.000  0.004
tot    0.117  0.022  0.666  0.805
 
band    15 # energy   -4.97714889 # occ.  2.00000000
 
ion      s      p      d    tot
    1  0.000  0.001  0.016  0.017
    2  0.000  0.000  0.009  0.010
    3  0.000  0.000  0.009  0.010
    4  0.000  0.000  0.009  0.010
    5  0.000  0.000  0.002  0.002
    6  0.000  0.000  0.009  0.010
    7  0.000  0.000  0.009  0.010
    8  0.000  0.000  0.009  0.010
    9  0.008  0.001  0.001  0.009
   10  0.006  0.000  0.038  0.044
   11  0.000  0.000  0.060  0.060
   12  0.006  0.000  0.038  0.044
   13  0.000  0.000  0.060  0.060
   14  0.000  0.000  0.060  0.060
   15  0.002  0.000  0.012  0.015
   16  0.006  0.000  0.038  0.044
   17  0.002  0.000  0.012  0.015
   18  0.002  0.000  0.012  0.015
   19  0.001  0.000  0.007  0.009
   20  0.001  0.000  0.041  0.042
   21  0.001  0.000  0.041  0.042
   22  0.002  0.000  0.044  0.046
   23  0.001  0.000  0.041  0.042
   24  0.002  0.000  0.044  0.046
   25  0.001  0.000  0.007  0.009
   26  0.001  0.000  0.007  0.009
   27  0.002  0.000  0.044  0.046
   28  0.008  0.001  0.001  0.009
   29  0.001  0.000  0.011  0.013
   30  0.001  0.000  0.011  0.013
   31  0.001  0.000  0.011  0.013
   32  0.001  0.000  0.011  0.013
   33  0.001  0.000  0.011  0.013
   34  0.001  0.000  0.011  0.013
   35  0.001  0.000  0.017  0.018
   36  0.000  0.000  0.000  0.001
   37  0.000  0.000  0.000  0.000
   38  0.000  0.000  0.000  0.000
tot    0.066  0.007  0.764  0.838
 
band    16 # energy   -4.95781994 # occ.  2.00000000
 
ion      s      p      d    tot
    1  0.000  0.000  0.020  0.020
    2  0.003  0.000  0.006  0.009
    3  0.001  0.000  0.010  0.010
    4  0.003  0.000  0.006  0.009
    5  0.000  0.000  0.007  0.007
    6  0.001  0.000  0.007  0.009
    7  0.001  0.000  0.010  0.010
    8  0.001  0.000  0.007  0.009
    9  0.000  0.000  0.007  0.007
   10  0.000  0.000  0.044  0.044
   11  0.001  0.000  0.031  0.032
   12  0.003  0.000  0.036  0.039
   13  0.001  0.000  0.031  0.032
   14  0.000  0.000  0.016  0.016
   15  0.005  0.000  0.023  0.028
   16  0.003  0.000  0.036  0.039
   17  0.005  0.000  0.023  0.028
   18  0.000  0.000  0.070  0.070
   19  0.006  0.000  0.034  0.040
   20  0.000  0.000  0.085  0.085
   21  0.006  0.000  0.027  0.033
   22  0.000  0.000  0.032  0.032
   23  0.006  0.000  0.026  0.033
   24  0.000  0.000  0.015  0.015
   25  0.000  0.000  0.052  0.052
   26  0.006  0.000  0.034  0.040
   27  0.000  0.000  0.032  0.032
   28  0.000  0.000  0.012  0.012
   29  0.000  0.000  0.008  0.008
   30  0.002  0.000  0.004  0.007
   31  0.000  0.000  0.008  0.008
   32  0.002  0.001  0.005  0.007
   33  0.002  0.000  0.004  0.007
   34  0.002  0.001  0.005  0.007
   35  0.000  0.000  0.005  0.005
   36  0.000  0.000  0.001  0.001
   37  0.000  0.000  0.000  0.000
   38  0.000  0.000  0.000  0.000
tot    0.056  0.008  0.780  0.844
 
band    17 # energy   -4.95779218 # occ.  2.00000000
 
ion      s      p      d    tot
    1  0.000  0.000  0.020  0.020
    2  0.000  0.000  0.009  0.010
    3  0.002  0.000  0.006  0.009
    4  0.000  0.000  0.009  0.010
    5  0.000  0.000  0.007  0.007
    6  0.002  0.000  0.008  0.010
    7  0.002  0.000  0.006  0.009
    8  0.002  0.000  0.008  0.010
    9  0.000  0.000  0.007  0.007
   10  0.003  0.000  0.034  0.037
   11  0.000  0.000  0.021  0.021
   12  0.001  0.000  0.042  0.043
   13  0.000  0.000  0.021  0.021
   14  0.001  0.000  0.036  0.037
   15  0.002  0.000  0.054  0.056
   16  0.001  0.000  0.042  0.043
   17  0.002  0.000  0.054  0.056
   18  0.007  0.000  0.007  0.014
   19  0.002  0.000  0.046  0.048
   20  0.008  0.000  0.007  0.015
   21  0.002  0.000  0.066  0.068
   22  0.000  0.000  0.020  0.021
   23  0.002  0.000  0.066  0.068
   24  0.000  0.000  0.038  0.038
   25  0.008  0.000  0.028  0.036
   26  0.002  0.000  0.046  0.048
   27  0.000  0.000  0.020  0.021
   28  0.000  0.000  0.012  0.012
   29  0.002  0.000  0.004  0.007
   30  0.001  0.000  0.007  0.008
   31  0.002  0.000  0.004  0.007
   32  0.001  0.000  0.006  0.007
   33  0.001  0.000  0.007  0.008
   34  0.001  0.000  0.006  0.007
   35  0.000  0.000  0.005  0.005
   36  0.000  0.000  0.001  0.001
   37  0.000  0.000  0.000  0.000
   38  0.000  0.000  0.000  0.000
tot    0.056  0.008  0.780  0.844
 
band    18 # energy   -4.95048371 # occ.  2.00000000
 
ion      s      p      d    tot
    1  0.003  0.000  0.000  0.004
    2  0.000  0.000  0.012  0.012
    3  0.000  0.000  0.012  0.012
    4  0.000  0.000  0.012  0.012
    5  0.007  0.001  0.000  0.007
    6  0.000  0.000  0.012  0.012
    7  0.000  0.000  0.012  0.012
    8  0.000  0.000  0.012  0.012
    9  0.001  0.000  0.015  0.016
   10  0.002  0.000  0.030  0.032
   11  0.002  0.000  0.013  0.015
   12  0.002  0.000  0.030  0.032
   13  0.002  0.000  0.013  0.015
   14  0.002  0.000  0.013  0.015
   15  0.001  0.000  0.048  0.049
   16  0.002  0.000  0.030  0.032
   17  0.001  0.000  0.048  0.049
   18  0.001  0.000  0.048  0.049
   19  0.000  0.000  0.059  0.060
   20  0.007  0.000  0.036  0.043
   21  0.007  0.000  0.036  0.043
   22  0.004  0.000  0.014  0.018
   23  0.007  0.000  0.036  0.043
   24  0.004  0.000  0.014  0.018
   25  0.000  0.000  0.059  0.060
   26  0.000  0.000  0.059  0.060
   27  0.004  0.000  0.014  0.018
   28  0.000  0.000  0.002  0.002
   29  0.001  0.000  0.010  0.011
   30  0.001  0.000  0.010  0.011
   31  0.001  0.000  0.010  0.011
   32  0.001  0.000  0.010  0.011
   33  0.001  0.000  0.010  0.011
   34  0.001  0.000  0.010  0.011
   35  0.010  0.001  0.002  0.012
   36  0.000  0.003  0.000  0.003
   37  0.000  0.002  0.000  0.002
   38  0.000  0.003  0.000  0.003
tot    0.073  0.015  0.747  0.836
 
band    19 # energy   -4.94358877 # occ.  2.00000000
 
ion      s      p      d    tot
    1  0.000  0.000  0.005  0.005
    2  0.004  0.000  0.006  0.010
    3  0.001  0.000  0.011  0.011
    4  0.004  0.000  0.006  0.010
    5  0.000  0.000  0.015  0.015
    6  0.001  0.000  0.009  0.010
    7  0.001  0.000  0.011  0.011
    8  0.001  0.000  0.009  0.010
    9  0.000  0.000  0.018  0.018
   10  0.006  0.000  0.014  0.021
   11  0.002  0.000  0.053  0.055
   12  0.002  0.000  0.044  0.046
   13  0.002  0.000  0.052  0.054
   14  0.008  0.000  0.017  0.025
   15  0.000  0.000  0.024  0.024
   16  0.002  0.000  0.045  0.046
   17  0.000  0.000  0.024  0.024
   18  0.000  0.000  0.049  0.049
   19  0.001  0.000  0.044  0.045
   20  0.001  0.000  0.043  0.045
   21  0.000  0.000  0.022  0.022
   22  0.003  0.000  0.062  0.065
   23  0.000  0.000  0.021  0.022
   24  0.011  0.000  0.012  0.023
   25  0.004  0.000  0.015  0.019
   26  0.001  0.000  0.044  0.045
   27  0.003  0.000  0.063  0.066
   28  0.000  0.000  0.003  0.003
   29  0.000  0.000  0.007  0.007
   30  0.001  0.000  0.002  0.003
   31  0.000  0.000  0.007  0.007
   32  0.001  0.001  0.005  0.007
   33  0.001  0.000  0.002  0.003
   34  0.001  0.001  0.005  0.007
   35  0.000  0.000  0.007  0.007
   36  0.000  0.000  0.001  0.001
   37  0.000  0.000  0.000  0.000
   38  0.000  0.000  0.000  0.000
tot    0.060  0.008  0.776  0.844
 
band    20 # energy   -4.94356146 # occ.  2.00000000
 
ion      s      p      d    tot
    1  0.000  0.000  0.005  0.005
    2  0.000  0.000  0.011  0.011
    3  0.003  0.001  0.006  0.010
    4  0.000  0.000  0.011  0.011
    5  0.000  0.000  0.015  0.015
    6  0.002  0.000  0.008  0.011
    7  0.003  0.001  0.006  0.010
    8  0.003  0.000  0.008  0.011
    9  0.000  0.000  0.018  0.018
   10  0.000  0.000  0.054  0.054
   11  0.006  0.000  0.029  0.035
   12  0.005  0.000  0.025  0.029
   13  0.006  0.000  0.029  0.035
   14  0.000  0.000  0.064  0.065
   15  0.000  0.000  0.041  0.041
   16  0.005  0.000  0.024  0.029
   17  0.000  0.000  0.040  0.040
   18  0.000  0.000  0.016  0.016
   19  0.003  0.000  0.025  0.028
   20  0.000  0.000  0.014  0.015
   21  0.001  0.000  0.036  0.037
   22  0.008  0.000  0.030  0.038
   23  0.001  0.000  0.036  0.037
   24  0.000  0.000  0.079  0.079
   25  0.000  0.000  0.054  0.054
   26  0.003  0.000  0.025  0.028
   27  0.008  0.000  0.029  0.037
   28  0.000  0.000  0.003  0.003
   29  0.001  0.000  0.002  0.004
   30  0.000  0.000  0.007  0.008
   31  0.001  0.000  0.002  0.004
   32  0.000  0.000  0.004  0.004
   33  0.000  0.000  0.008  0.008
   34  0.000  0.000  0.004  0.004
   35  0.000  0.000  0.007  0.007
   36  0.000  0.000  0.001  0.001
   37  0.000  0.000  0.000  0.000
   38  0.000  0.000  0.000  0.000
tot    0.060  0.008  0.776  0.844
 
band    21 # energy   -4.83589471 # occ.  2.00000000
 
ion      s      p      d    tot
    1  0.003  0.000  0.000  0.004
    2  0.000  0.000  0.008  0.008
    3  0.000  0.000  0.008  0.008
    4  0.000  0.000  0.008  0.008
    5  0.001  0.000  0.015  0.016
    6  0.000  0.000  0.008  0.008
    7  0.000  0.000  0.008  0.008
    8  0.000  0.000  0.008  0.008
    9  0.001  0.000  0.001  0.002
   10  0.000  0.000  0.006  0.007
   11  0.001  0.000  0.032  0.033
   12  0.000  0.000  0.006  0.007
   13  0.001  0.000  0.032  0.033
   14  0.001  0.000  0.032  0.033
   15  0.005  0.000  0.006  0.011
   16  0.000  0.000  0.006  0.007