 vasp.6.2.0 18Jan21 (build Jun 12 2021 23:27:24) complex                        
  
 executed on             LinuxIFC date 2022.05.28  02:51:25
 running on   28 total cores
 distrk:  each k-point on   28 cores,    1 groups
 distr:  one band on NCORE=   1 cores,   28 groups


--------------------------------------------------------------------------------------------------------


 INCAR:
   ISMEAR = -5
   SIGMA = 0.1
   ISPIN = 1
   EDIFF = 1.d-5
   EDIFFG = -0.01
   NSW = 0
   NELM = 150
   ENCUT = 500
   ISIF = 2
   IBRION = 2
   LREAL = Auto
   ALGO = Fast
   ICHARG = 11
   LORBIT = 10
   LCHARG = .F.
   LWAVE = .F.

 POTCAR:    PAW_PBE Cu 22Jun2005                  
 POTCAR:    PAW_PBE Os 17Jan2003                  
 POTCAR:    PAW_PBE O 08Apr2002                   
 POTCAR:    PAW_PBE H 15Jun2001                   
 -----------------------------------------------------------------------------
|                                                                             |
|           W    W    AA    RRRRR   N    N  II  N    N   GGGG   !!!           |
|           W    W   A  A   R    R  NN   N  II  NN   N  G    G  !!!           |
|           W    W  A    A  R    R  N N  N  II  N N  N  G       !!!           |
|           W WW W  AAAAAA  RRRRR   N  N N  II  N  N N  G  GGG   !            |
|           WW  WW  A    A  R   R   N   NN  II  N   NN  G    G                |
|           W    W  A    A  R    R  N    N  II  N    N   GGGG   !!!           |
|                                                                             |
|     For optimal performance we recommend to set                             |
|       NCORE = 2 up to number-of-cores-per-socket                            |
|     NCORE specifies how many cores store one orbital (NPAR=cpu/NCORE).      |
|     This setting can greatly improve the performance of VASP for DFT.       |
|     The default, NCORE=1 might be grossly inefficient on modern             |
|     multi-core architectures or massively parallel machines. Do your        |
|     own testing! More info at https://www.vasp.at/wiki/index.php/NCORE      |
|     Unfortunately you need to use the default for GW and RPA                |
|     calculations (for HF NCORE is supported but not extensively tested      |
|     yet).                                                                   |
|                                                                             |
 -----------------------------------------------------------------------------

 POTCAR:    PAW_PBE Cu 22Jun2005                  
   VRHFIN =Cu: d10 p1                                                                               
   LEXCH  = PE                                                                                      
   EATOM  =  1390.9808 eV,  102.2342 Ry                                                             
                                                                                                    
   TITEL  = PAW_PBE Cu 22Jun2005                                                                    
   LULTRA =        F    use ultrasoft PP ?                                                          
   IUNSCR =        1    unscreen: 0-lin 1-nonlin 2-no                                               
   RPACOR =    2.000    partial core radius                                                         
   POMASS =   63.546; ZVAL   =   11.000    mass and valenz                                          
   RCORE  =    2.300    outmost cutoff radius                                                       
   RWIGS  =    2.200; RWIGS  =    1.164    wigner-seitz radius (au A)                               
   ENMAX  =  295.446; ENMIN  =  221.585 eV                                                          
   ICORE  =        3    local potential                                                             
   LCOR   =        T    correct aug charges                                                         
   LPAW   =        T    paw PP                                                                      
   EAUG   =  586.980                                                                                
   DEXC   =    0.000                                                                                
   RMAX   =    2.344    core radius for proj-oper                                                   
   RAUG   =    1.300    factor for augmentation sphere                                              
   RDEP   =    2.302    radius for radial grids                                                     
   RDEPT  =    1.771    core radius for aug-charge                                                  
                                                                                                    
   Atomic configuration                                                                             
    9 entries                                                                                       
     n  l   j            E        occ.                                                              
     1  0  0.50     -8850.2468   2.0000                                                             
     2  0  0.50     -1062.3498   2.0000                                                             
     2  1  1.50      -916.8226   6.0000                                                             
     3  0  0.50      -114.6929   2.0000                                                             
     3  1  1.50       -72.1325   6.0000                                                             
     3  2  2.50        -5.0394  10.0000                                                             
     4  0  0.50        -4.6097   1.0000                                                             
     4  1  0.50        -4.0817   0.0000                                                             
     4  3  2.50        -1.3606   0.0000                                                             
   Description                                                                                      
     l       E           TYP  RCUT    TYP  RCUT                                                     
     2     -5.0393973     23  2.200                                                                 
     2     10.8846608     23  2.200                                                                 
     0     -4.6097109     23  2.200                                                                 
     0      8.2520465     23  2.200                                                                 
     1     -2.7211652     23  2.200                                                                 
     1     21.7055443     23  2.200                                                                 
     3      2.7211652     23  2.300                                                                 
  local pseudopotential read in
  partial core-charges read in
  partial kinetic energy density read in
  atomic valenz-charges read in
  non local Contribution for L=           2  read in
    real space projection operators read in
  non local Contribution for L=           2  read in
    real space projection operators read in
  non local Contribution for L=           0  read in
    real space projection operators read in
  non local Contribution for L=           0  read in
    real space projection operators read in
  non local Contribution for L=           1  read in
    real space projection operators read in
  non local Contribution for L=           1  read in
    real space projection operators read in
    PAW grid and wavefunctions read in
 
   number of l-projection  operators is LMAX  =           6
   number of lm-projection operators is LMMAX =          18
 
 POTCAR:    PAW_PBE Os 17Jan2003                  
   VRHFIN =Os: 6s5d                                                                                 
   LEXCH  = PE                                                                                      
   EATOM  =   417.5999 eV,   30.6927 Ry                                                             
                                                                                                    
   TITEL  = PAW_PBE Os 17Jan2003                                                                    
   LULTRA =        F    use ultrasoft PP ?                                                          
   IUNSCR =        1    unscreen: 0-lin 1-nonlin 2-no                                               
   RPACOR =    2.250    partial core radius                                                         
   POMASS =  190.200; ZVAL   =    8.000    mass and valenz                                          
   RCORE  =    2.700    outmost cutoff radius                                                       
   RWIGS  =    2.670; RWIGS  =    1.413    wigner-seitz radius (au A)                               
   ENMAX  =  228.022; ENMIN  =  171.017 eV                                                          
   RCLOC  =    2.004    cutoff for local pot                                                        
   LCOR   =        T    correct aug charges                                                         
   LPAW   =        T    paw PP                                                                      
   EAUG   =  365.080                                                                                
   DEXC   =    0.000                                                                                
   RMAX   =    2.766    core radius for proj-oper                                                   
   RAUG   =    1.300    factor for augmentation sphere                                              
   RDEP   =    2.738    radius for radial grids                                                     
   RDEPT  =    2.220    core radius for aug-charge                                                  
                                                                                                    
   Atomic configuration                                                                             
   16 entries                                                                                       
     n  l   j            E        occ.                                                              
     1  0  0.50    -73844.2437   2.0000                                                             
     2  0  0.50    -12856.6893   2.0000                                                             
     2  1  1.50    -11191.7995   6.0000                                                             
     3  0  0.50     -2990.1422   2.0000                                                             
     3  1  1.50     -2501.5221   6.0000                                                             
     3  2  2.50     -1956.5818  10.0000                                                             
     4  0  0.50      -629.1606   2.0000                                                             
     4  1  1.50      -468.9548   6.0000                                                             
     4  2  2.50      -270.2868  10.0000                                                             
     4  3  3.50       -49.5699  14.0000                                                             
     5  0  0.50       -89.1521   2.0000                                                             
     5  1  1.50       -48.6063   6.0000                                                             
     5  2  2.50        -4.7055   7.0000                                                             
     6  0  0.50        -5.4288   1.0000                                                             
     6  1  1.50        -2.7212   0.0000                                                             
     5  3  2.50        -6.8029   0.0000                                                             
   Description                                                                                      
     l       E           TYP  RCUT    TYP  RCUT                                                     
     2     -4.7055230     23  2.500                                                                 
     2     -6.0661056     23  2.500                                                                 
     0     -5.4288441     23  2.500                                                                 
     0      3.7338294     23  2.500                                                                 
     1     -2.7211652     23  2.700                                                                 
     1     27.2116520     23  2.700                                                                 
  local pseudopotential read in
  partial core-charges read in
  partial kinetic energy density read in
  atomic valenz-charges read in
  non local Contribution for L=           2  read in
    real space projection operators read in
  non local Contribution for L=           2  read in
    real space projection operators read in
  non local Contribution for L=           0  read in
    real space projection operators read in
  non local Contribution for L=           0  read in
    real space projection operators read in
  non local Contribution for L=           1  read in
    real space projection operators read in
  non local Contribution for L=           1  read in
    real space projection operators read in
    PAW grid and wavefunctions read in
 
   number of l-projection  operators is LMAX  =           6
   number of lm-projection operators is LMMAX =          18
 
 POTCAR:    PAW_PBE O 08Apr2002                   
   VRHFIN =O: s2p4                                                                                  
   LEXCH  = PE                                                                                      
   EATOM  =   432.3788 eV,   31.7789 Ry                                                             
                                                                                                    
   TITEL  = PAW_PBE O 08Apr2002                                                                     
   LULTRA =        F    use ultrasoft PP ?                                                          
   IUNSCR =        1    unscreen: 0-lin 1-nonlin 2-no                                               
   RPACOR =    1.200    partial core radius                                                         
   POMASS =   16.000; ZVAL   =    6.000    mass and valenz                                          
   RCORE  =    1.520    outmost cutoff radius                                                       
   RWIGS  =    1.550; RWIGS  =    0.820    wigner-seitz radius (au A)                               
   ENMAX  =  400.000; ENMIN  =  300.000 eV                                                          
   ICORE  =        2    local potential                                                             
   LCOR   =        T    correct aug charges                                                         
   LPAW   =        T    paw PP                                                                      
   EAUG   =  605.392                                                                                
   DEXC   =    0.000                                                                                
   RMAX   =    1.553    core radius for proj-oper                                                   
   RAUG   =    1.300    factor for augmentation sphere                                              
   RDEP   =    1.550    radius for radial grids                                                     
   RDEPT  =    1.329    core radius for aug-charge                                                  
                                                                                                    
   Atomic configuration                                                                             
    4 entries                                                                                       
     n  l   j            E        occ.                                                              
     1  0  0.50      -514.6923   2.0000                                                             
     2  0  0.50       -23.9615   2.0000                                                             
     2  1  0.50        -9.0305   4.0000                                                             
     3  2  1.50        -9.5241   0.0000                                                             
   Description                                                                                      
     l       E           TYP  RCUT    TYP  RCUT                                                     
     0    -23.9615318     23  1.200                                                                 
     0     -9.5240782     23  1.200                                                                 
     1     -9.0304911     23  1.520                                                                 
     1      8.1634956     23  1.520                                                                 
     2     -9.5240782      7  1.500                                                                 
  local pseudopotential read in
  partial core-charges read in
  partial kinetic energy density read in
  kinetic energy density of atom read in
  atomic valenz-charges read in
  non local Contribution for L=           0  read in
    real space projection operators read in
  non local Contribution for L=           0  read in
    real space projection operators read in
  non local Contribution for L=           1  read in
    real space projection operators read in
  non local Contribution for L=           1  read in
    real space projection operators read in
    PAW grid and wavefunctions read in
 
   number of l-projection  operators is LMAX  =           4
   number of lm-projection operators is LMMAX =           8
 
 POTCAR:    PAW_PBE H 15Jun2001                   
   VRHFIN =H: ultrasoft test                                                                        
   LEXCH  = PE                                                                                      
   EATOM  =    12.4884 eV,    0.9179 Ry                                                             
                                                                                                    
   TITEL  = PAW_PBE H 15Jun2001                                                                     
   LULTRA =        F    use ultrasoft PP ?                                                          
   IUNSCR =        0    unscreen: 0-lin 1-nonlin 2-no                                               
   RPACOR =    0.000    partial core radius                                                         
   POMASS =    1.000; ZVAL   =    1.000    mass and valenz                                          
   RCORE  =    1.100    outmost cutoff radius                                                       
   RWIGS  =    0.700; RWIGS  =    0.370    wigner-seitz radius (au A)                               
   ENMAX  =  250.000; ENMIN  =  200.000 eV                                                          
   RCLOC  =    0.701    cutoff for local pot                                                        
   LCOR   =        T    correct aug charges                                                         
   LPAW   =        T    paw PP                                                                      
   EAUG   =  400.000                                                                                
   RMAX   =    1.123    core radius for proj-oper                                                   
   RAUG   =    1.200    factor for augmentation sphere                                              
   RDEP   =    1.112    radius for radial grids                                                     
   RDEPT  =    0.926    core radius for aug-charge                                                  
                                                                                                    
   Atomic configuration                                                                             
    2 entries                                                                                       
     n  l   j            E        occ.                                                              
     1  0  0.50        -6.4927   1.0000                                                             
     2  1  0.50        -3.4015   0.0000                                                             
   Description                                                                                      
     l       E           TYP  RCUT    TYP  RCUT                                                     
     0     -6.4927494     23  1.100                                                                 
     0      6.8029130     23  1.100                                                                 
     1     -4.0817478     23  1.100                                                                 
  local pseudopotential read in
  atomic valenz-charges read in
  non local Contribution for L=           0  read in
    real space projection operators read in
  non local Contribution for L=           0  read in
    real space projection operators read in
  non local Contribution for L=           1  read in
    real space projection operators read in
    PAW grid and wavefunctions read in
 
   number of l-projection  operators is LMAX  =           3
   number of lm-projection operators is LMMAX =           5
 
 Optimization of the real space projectors (new method)

 maximal supplied QI-value         = 16.25
 optimisation between [QCUT,QGAM] = [ 11.38, 22.75] = [ 36.24,144.96] Ry 
 Optimized for a Real-space Cutoff    1.52 Angstroem

   l    n(q)    QCUT    max X(q) W(low)/X(q) W(high)/X(q)  e(spline) 
   2      9    11.376     4.610    0.21E-03    0.10E-03    0.26E-06
   2      9    11.376     8.522    0.33E-03    0.16E-03    0.37E-06
   0     10    11.376    51.609    0.62E-04    0.20E-04    0.13E-06
   0     10    11.376    27.747    0.54E-04    0.20E-04    0.13E-06
   1     10    11.376    20.408    0.13E-04    0.99E-04    0.19E-06
   1     10    11.376    13.425    0.12E-04    0.87E-04    0.17E-06
 Optimization of the real space projectors (new method)

 maximal supplied QI-value         = 13.98
 optimisation between [QCUT,QGAM] = [ 11.33, 22.79] = [ 35.93,145.49] Ry 
 Optimized for a Real-space Cutoff    1.56 Angstroem

   l    n(q)    QCUT    max X(q) W(low)/X(q) W(high)/X(q)  e(spline) 
   2     10    11.327   152.873    0.32E-03    0.72E-03    0.11E-05
   2     10    11.327   151.010    0.32E-03    0.72E-03    0.11E-05
   0     11    11.327    72.114    0.43E-04    0.61E-04    0.13E-06
   0     11    11.327    44.596    0.40E-04    0.57E-04    0.12E-06
   1     10    11.327    13.742    0.16E-03    0.10E-03    0.19E-06
   1     10    11.327     8.461    0.12E-03    0.78E-04    0.15E-06
 Optimization of the real space projectors (new method)

 maximal supplied QI-value         = 24.76
 optimisation between [QCUT,QGAM] = [ 11.39, 22.77] = [ 36.31,145.25] Ry 
 Optimized for a Real-space Cutoff    1.00 Angstroem

   l    n(q)    QCUT    max X(q) W(low)/X(q) W(high)/X(q)  e(spline) 
   0      7    11.387    20.381    0.39E-03    0.13E-02    0.15E-06
   0      7    11.387    15.268    0.42E-03    0.14E-02    0.17E-06
   1      6    11.387     5.964    0.41E-03    0.11E-02    0.17E-06
   1      6    11.387     5.382    0.39E-03    0.87E-03    0.15E-06
 Optimization of the real space projectors (new method)

 maximal supplied QI-value         = 34.20
 optimisation between [QCUT,QGAM] = [ 11.29, 22.57] = [ 35.68,142.71] Ry 
 Optimized for a Real-space Cutoff    1.16 Angstroem

   l    n(q)    QCUT    max X(q) W(low)/X(q) W(high)/X(q)  e(spline) 
   0      8    11.287    19.460    0.40E-03    0.73E-03    0.16E-06
   0      8    11.287    12.209    0.38E-03    0.70E-03    0.15E-06
   1      7    11.287     4.655    0.22E-03    0.25E-04    0.22E-06
  PAW_PBE Cu 22Jun2005                  :
 energy of atom  1       EATOM=-1390.9808
 kinetic energy error for atom=    0.0043 (will be added to EATOM!!)
  PAW_PBE Os 17Jan2003                  :
 energy of atom  2       EATOM= -417.5999
 kinetic energy error for atom=    0.0029 (will be added to EATOM!!)
  PAW_PBE O 08Apr2002                   :
 energy of atom  3       EATOM= -432.3788
 kinetic energy error for atom=    0.0224 (will be added to EATOM!!)
  PAW_PBE H 15Jun2001                   :
 energy of atom  4       EATOM=  -12.4884
 kinetic energy error for atom=    0.0020 (will be added to EATOM!!)
 
 
 POSCAR: Cu-Os-OOH
  positions in direct lattice
  velocities in cartesian coordinates
 exchange correlation table for  LEXCH =        8
   RHO(1)=    0.500       N(1)  =     2000
   RHO(2)=  100.500       N(2)  =     4000

 VTST: version 3.2, (02/03/18)

 CHAIN: initializing optimizer
 
 OPT: Using VASP Conjugate-Gradient optimizer
 CHAIN: Read ICHAIN            0
 
 POSCAR: Cu-Os-OOH
  positions in direct lattice
  velocities in cartesian coordinates
 


--------------------------------------------------------------------------------------------------------


 ion  position               nearest neighbor table
   1  0.000  0.000  0.212-   7 2.57   3 2.57   4 2.57   2 2.57   6 2.57   8 2.57  12 2.57  10 2.57
                            16 2.57
   2  0.333  0.000  0.212-   8 2.57   9 2.57   5 2.57   1 2.57   3 2.57  11 2.57   4 2.57  10 2.57
                            17 2.57
   3  0.667  0.000  0.212-   1 2.57   7 2.57   6 2.57   9 2.57   2 2.57  12 2.57   5 2.57  18 2.57
                            11 2.57
   4  0.000  0.333  0.212-   5 2.57   6 2.57   1 2.57   7 2.57   2 2.57  13 2.57   9 2.57  10 2.57
                            15 2.57
   5  0.333  0.333  0.212-   4 2.57   2 2.57   7 2.57  13 2.57   8 2.57   6 2.57   3 2.57  11 2.57
                            14 2.57
   6  0.667  0.333  0.212-   4 2.57   9 2.57  15 2.57   3 2.57   1 2.57   8 2.57  14 2.57   5 2.57
                            12 2.57
   7  0.000  0.667  0.212-   1 2.57   3 2.57  16 2.57  18 2.57   4 2.57   5 2.57   8 2.57   9 2.57
                            13 2.57
   8  0.333  0.667  0.212-   9 2.57   2 2.57  17 2.57   6 2.57   1 2.57   7 2.57   5 2.57  14 2.57
                            16 2.57
   9  0.667  0.667  0.212-   8 2.57   6 2.57   2 2.57  17 2.57   3 2.57   7 2.57   4 2.57  15 2.57
                            18 2.57
  10  0.111  0.111  0.294-  20 2.53  11 2.57  12 2.57  13 2.57   1 2.57   2 2.57   4 2.57  15 2.57
                            16 2.57  17 2.57  26 2.57  19 2.57
  11  0.444  0.111  0.294-  20 2.54  21 2.54  10 2.57  13 2.57   2 2.57  17 2.57  14 2.57  12 2.57
                             5 2.57   3 2.57  18 2.57  27 2.57
  12  0.778  0.111  0.294-  21 2.53  15 2.57  10 2.57  14 2.57  18 2.57   3 2.57   1 2.57  16 2.57
                            11 2.57   6 2.57  19 2.57  25 2.57
  13  0.111  0.444  0.294-  23 2.54  20 2.54  16 2.57  18 2.57  10 2.57  11 2.57  14 2.57   5 2.57
                             4 2.57   7 2.57  15 2.57  22 2.57
  14  0.444  0.444  0.294-  21 2.54  23 2.54  15 2.57  17 2.57  12 2.57  16 2.57  13 2.57  11 2.57
                             6 2.57   8 2.57   5 2.57  24 2.57
  15  0.778  0.444  0.294-  19 2.56  14 2.57  17 2.57  12 2.57   6 2.57  18 2.57  10 2.57   9 2.57
                            13 2.57   4 2.57  24 2.57  22 2.57
  16  0.111  0.778  0.294-  23 2.53  18 2.57  13 2.57   7 2.57  14 2.57  17 2.57  12 2.57  10 2.57
                             8 2.57   1 2.57  25 2.57  26 2.57
  17  0.444  0.778  0.294-  26 2.56  14 2.57  15 2.57   8 2.57   9 2.57  11 2.57  16 2.57  18 2.57
                            10 2.57   2 2.57  27 2.57  24 2.57
  18  0.778  0.778  0.294-  25 2.56  16 2.57  13 2.57   7 2.57  15 2.57  12 2.57  17 2.57   9 2.57
                             3 2.57  11 2.57  22 2.57  27 2.57
  19  0.888  0.223  0.377-  21 2.55  20 2.55  28 2.55  22 2.56  24 2.56  15 2.56  12 2.57  10 2.57
                            32 2.57  31 2.57  25 2.57  26 2.57
  20  0.221  0.221  0.376-  10 2.53  36 2.53  11 2.54  13 2.54  26 2.55  19 2.55  27 2.57  22 2.57
                            23 2.59  21 2.59  29 2.60  31 2.60
  21  0.558  0.221  0.376-  12 2.53  36 2.53  14 2.54  11 2.54  19 2.55  25 2.55  24 2.57  27 2.57
                            20 2.59  23 2.59  32 2.60  30 2.60
  22  0.888  0.556  0.377-  35 2.55  24 2.55  27 2.55  19 2.56  25 2.56  18 2.57  15 2.57  23 2.57
                            20 2.57  13 2.57  31 2.58  33 2.58
  23  0.221  0.558  0.376-  16 2.53  36 2.53  13 2.54  14 2.54  25 2.55  26 2.55  22 2.57  24 2.57
                            20 2.59  21 2.59  33 2.60  34 2.60
  24  0.556  0.556  0.377-  35 2.55  22 2.55  27 2.55  19 2.56  26 2.56  15 2.57  17 2.57  21 2.57
                            23 2.57  14 2.57  32 2.58  34 2.58
  25  0.888  0.888  0.377-  21 2.55  23 2.55  28 2.55  22 2.56  27 2.56  18 2.56  16 2.57  12 2.57
                            33 2.57  30 2.57  19 2.57  26 2.57
  26  0.223  0.888  0.377-  20 2.55  23 2.55  28 2.55  27 2.56  24 2.56  17 2.56  10 2.57  16 2.57
                            29 2.57  34 2.57  25 2.57  19 2.57
  27  0.556  0.888  0.377-  35 2.55  24 2.55  22 2.55  26 2.56  25 2.56  17 2.57  18 2.57  20 2.57
                            21 2.57  11 2.57  29 2.58  30 2.58
  28  0.000  0.000  0.459-  38 1.98  25 2.55  19 2.55  26 2.55  33 2.56  30 2.56  31 2.56  29 2.56
                            32 2.56  34 2.56
  29  0.333  0.000  0.460-  38 2.07  31 2.56  28 2.56  34 2.57  36 2.57  35 2.57  30 2.57  26 2.57
                            27 2.58  20 2.60
  30  0.667  0.000  0.460-  32 2.56  28 2.56  33 2.57  36 2.57  35 2.57  29 2.57  25 2.57  27 2.58
                            21 2.60
  31  0.000  0.333  0.460-  38 2.08  29 2.56  28 2.56  32 2.57  36 2.57  35 2.57  33 2.57  19 2.57
                            22 2.58  20 2.60
  32  0.667  0.333  0.460-  30 2.56  28 2.56  31 2.57  36 2.57  35 2.57  34 2.57  19 2.57  24 2.58
                            21 2.60
  33  0.000  0.667  0.460-  34 2.56  28 2.56  30 2.57  36 2.57  35 2.57  31 2.57  25 2.57  22 2.58
                            23 2.60
  34  0.333  0.667  0.460-  33 2.56  28 2.56  29 2.57  36 2.57  35 2.57  32 2.57  26 2.57  24 2.58
                            23 2.60
  35  0.667  0.667  0.459-  24 2.55  27 2.55  22 2.55  34 2.57  32 2.57  29 2.57  30 2.57  33 2.57
                            31 2.57
  36  0.333  0.333  0.456-  37 1.76  23 2.53  20 2.53  21 2.53  31 2.57  29 2.57  33 2.57  34 2.57
                            32 2.57  30 2.57
  37  0.338  0.341  0.525-  36 1.76
  38  0.104  0.101  0.515-  39 0.97  28 1.98  29 2.07  31 2.08
  39  0.100  0.096  0.553-  38 0.97
 
  LATTYP: Found a hexagonal cell.
 ALAT       =     7.6967864036
 C/A-ratio  =     3.2973366172
  
  Lattice vectors:
  
 A1 = (  -3.8483927580,  -6.6656128093,   0.0000000000)
 A2 = (   7.6967864037,   0.0000000000,   0.0000000000)
 A3 = (   0.0000000000,   0.0000000000,  25.3788956434)


Analysis of symmetry for initial positions (statically):
=====================================================================
 Subroutine PRICEL returns:
 Original cell was already a primitive cell.
 

 Routine SETGRP: Setting up the symmetry group for a 
 hexagonal supercell.


 Subroutine GETGRP returns: Found  1 space group operations
 (whereof  1 operations were pure point group operations)
 out of a pool of 24 trial point group operations.


The static configuration has the point symmetry C_1 .


Analysis of symmetry for dynamics (positions and initial velocities):
=====================================================================
 Subroutine PRICEL returns:
 Original cell was already a primitive cell.
 

 Routine SETGRP: Setting up the symmetry group for a 
 hexagonal supercell.


 Subroutine GETGRP returns: Found  1 space group operations
 (whereof  1 operations were pure point group operations)
 out of a pool of 24 trial point group operations.


The dynamic configuration has the point symmetry C_1 .


Analysis of constrained symmetry for selective dynamics:
=====================================================================
 Subroutine PRICEL returns:
 Original cell was already a primitive cell.
 

 Routine SETGRP: Setting up the symmetry group for a 
 hexagonal supercell.


 Subroutine GETGRP returns: Found  1 space group operations
 (whereof  1 operations were pure point group operations)
 out of a pool of 24 trial point group operations.


The constrained configuration has the point symmetry C_1 .


 Subroutine INISYM returns: Found  1 space group operations
 (whereof  1 operations are pure point group operations),
 and found     1 'primitive' translations


----------------------------------------------------------------------------------------

                                     Primitive cell                                     

  volume of cell :    1302.0337

  direct lattice vectors                    reciprocal lattice vectors
     7.696786404  0.000000000  0.000000000     0.129924354 -0.075011849  0.000000000
     3.848392758  6.665612809  0.000000000     0.000000000  0.150023716  0.000000000
     0.000000000  0.000000000 25.378895643     0.000000000  0.000000000  0.039402818

  length of vectors
     7.696786404  7.696786404 25.378895643     0.150023716  0.150023716  0.039402818

  position of ions in fractional coordinates (direct lattice)
     0.000000000  0.000000000  0.211654586
     0.333333343  0.000000000  0.211654586
     0.666666687  0.000000000  0.211654586
     1.000000000  0.333333343  0.211654586
     0.333333313  0.333333343  0.211654586
     0.666666687  0.333333343  0.211654586
     1.000000000  0.666666687  0.211654586
     0.333333373  0.666666687  0.211654586
     0.666666627  0.666666687  0.211654586
     0.111111119  0.111111112  0.294195619
     0.444444418  0.111111112  0.294195619
     0.777777791  0.111111112  0.294195619
     0.111111119  0.444444448  0.294195619
     0.444444478  0.444444448  0.294195619
     0.777777731  0.444444448  0.294195619
     0.111111112  0.777777731  0.294195619
     0.444444478  0.777777731  0.294195619
     0.777777851  0.777777731  0.294195619
     0.888489608  0.223020800  0.376848408
     0.221224753  0.221224738  0.375504729
     0.557550555  0.221224738  0.375504729
     0.887835629  0.556082155  0.376898179
     0.221224723  0.557550495  0.375504729
     0.556082215  0.556082155  0.376898179
     0.888489608  0.888489608  0.376848408
     0.223020815  0.888489608  0.376848408
     0.556082155  0.887835629  0.376898179
     0.000000000  0.000000000  0.458721138
     0.332662001  0.000362845  0.459931095
     0.666975184  0.000362845  0.459931095
     0.000362845  0.332662001  0.459931095
     0.666975184  0.332662001  0.459931095
     0.000362845  0.666975184  0.459931095
     0.332662031  0.666975184  0.459931095
     0.666666627  0.666666687  0.458662582
     0.333333313  0.333333343  0.456118851
     0.338250561  0.340991308  0.525266958
     0.103999020  0.101282214  0.515049951
     0.100026886  0.095921211  0.553312773

  ion indices of the primitive-cell ions
   primitive index   ion index
                 1           1
                 2           2
                 3           3
                 4           4
                 5           5
                 6           6
                 7           7
                 8           8
                 9           9
                10          10
                11          11
                12          12
                13          13
                14          14
                15          15
                16          16
                17          17
                18          18
                19          19
                20          20
                21          21
                22          22
                23          23
                24          24
                25          25
                26          26
                27          27
                28          28
                29          29
                30          30
                31          31
                32          32
                33          33
                34          34
                35          35
                36          36
                37          37
                38          38
                39          39

----------------------------------------------------------------------------------------

 
 
 KPOINTS: Automatic mesh                          

Automatic generation of k-mesh.
 Grid dimensions read from file:
 generate k-points for:    8    8    1

 Generating k-lattice:

  Cartesian coordinates                     Fractional coordinates (reciprocal lattice)
     0.016240544 -0.009376481  0.000000000     0.125000000 -0.000000000  0.000000000
     0.000000000  0.018752964  0.000000000     0.000000000  0.125000000  0.000000000
     0.000000000  0.000000000  0.039402818     0.000000000  0.000000000  1.000000000

  Length of vectors
     0.018752964  0.018752964  0.039402818

  Shift w.r.t. Gamma in fractional coordinates (k-lattice)
     0.000000000  0.000000000  0.000000000

 TETIRR: Found    192 inequivalent tetrahedra from      384
 
 Subroutine IBZKPT returns following result:
 ===========================================
 
 Found     34 irreducible k-points:
 
 Following reciprocal coordinates:
            Coordinates               Weight
  0.000000  0.000000  0.000000      1.000000
  0.125000  0.000000  0.000000      2.000000
  0.125000  0.125000  0.000000      2.000000
  0.000000  0.125000  0.000000      2.000000
  0.250000  0.000000  0.000000      2.000000
  0.250000  0.250000  0.000000      2.000000
  0.000000  0.250000  0.000000      2.000000
  0.375000  0.000000  0.000000      2.000000
  0.375000  0.375000  0.000000      2.000000
  0.000000  0.375000  0.000000      2.000000
  0.500000  0.000000  0.000000      1.000000
  0.500000  0.500000  0.000000      1.000000
  0.000000  0.500000  0.000000      1.000000
  0.250000  0.125000  0.000000      2.000000
  0.125000  0.250000  0.000000      2.000000
 -0.125000  0.125000  0.000000      2.000000
  0.375000  0.125000  0.000000      2.000000
  0.250000  0.375000  0.000000      2.000000
 -0.125000  0.250000  0.000000      2.000000
  0.250000 -0.125000  0.000000      2.000000
 -0.125000 -0.375000  0.000000      2.000000
 -0.375000 -0.250000  0.000000      2.000000
  0.500000  0.125000  0.000000      2.000000
  0.375000  0.500000  0.000000      2.000000
 -0.125000  0.375000  0.000000      2.000000
  0.375000 -0.125000  0.000000      2.000000
 -0.125000  0.500000  0.000000      2.000000
  0.500000 -0.375000  0.000000      2.000000
  0.500000  0.250000  0.000000      2.000000
  0.250000  0.500000  0.000000      2.000000
 -0.250000  0.250000  0.000000      2.000000
 -0.375000  0.250000  0.000000      2.000000
  0.375000 -0.375000  0.000000      2.000000
 -0.250000  0.375000  0.000000      2.000000
 
 Following cartesian coordinates:
            Coordinates               Weight
  0.000000  0.000000  0.000000      1.000000
  0.016241 -0.009376  0.000000      2.000000
  0.016241  0.009376  0.000000      2.000000
  0.000000  0.018753  0.000000      2.000000
  0.032481 -0.018753  0.000000      2.000000
  0.032481  0.018753  0.000000      2.000000
  0.000000  0.037506  0.000000      2.000000
  0.048722 -0.028129  0.000000      2.000000
  0.048722  0.028129  0.000000      2.000000
  0.000000  0.056259  0.000000      2.000000
  0.064962 -0.037506  0.000000      1.000000
  0.064962  0.037506  0.000000      1.000000
  0.000000  0.075012  0.000000      1.000000
  0.032481  0.000000  0.000000      2.000000
  0.016241  0.028129  0.000000      2.000000
 -0.016241  0.028129  0.000000      2.000000
  0.048722 -0.009376  0.000000      2.000000
  0.032481  0.037506  0.000000      2.000000
 -0.016241  0.046882  0.000000      2.000000
  0.032481 -0.037506  0.000000      2.000000
 -0.016241 -0.046882  0.000000      2.000000
 -0.048722 -0.009376  0.000000      2.000000
  0.064962 -0.018753  0.000000      2.000000
  0.048722  0.046882  0.000000      2.000000
 -0.016241  0.065635  0.000000      2.000000
  0.048722 -0.046882  0.000000      2.000000
 -0.016241  0.084388  0.000000      2.000000
  0.064962 -0.093765  0.000000      2.000000
  0.064962  0.000000  0.000000      2.000000
  0.032481  0.056259  0.000000      2.000000
 -0.032481  0.056259  0.000000      2.000000
 -0.048722  0.065635  0.000000      2.000000
  0.048722 -0.084388  0.000000      2.000000
 -0.032481  0.075012  0.000000      2.000000
 


--------------------------------------------------------------------------------------------------------




 Dimension of arrays:
   k-points           NKPTS =     34   k-points in BZ     NKDIM =     34   number of bands    NBANDS=    252
   number of dos      NEDOS =    301   number of ions     NIONS =     39
   non local maximal  LDIM  =      6   non local SUM 2l+1 LMDIM =     18
   total plane-waves  NPLWV = 246960
   max r-space proj   IRMAX =   3090   max aug-charges    IRDMAX=  11399
   dimension x,y,z NGX =    42 NGY =   42 NGZ =  140
   dimension x,y,z NGXF=    84 NGYF=   84 NGZF=  280
   support grid    NGXF=    84 NGYF=   84 NGZF=  280
   ions per type =              35   1   2   1
   NGX,Y,Z   is equivalent  to a cutoff of   9.07,  9.07,  9.17 a.u.
   NGXF,Y,Z  is equivalent  to a cutoff of  18.14, 18.14, 18.34 a.u.

 SYSTEM =  unknown system                          
 POSCAR =  Cu-Os-OOH                               

 Startparameter for this run:
   NWRITE =      2    write-flag & timer
   PREC   = normal    normal or accurate (medium, high low for compatibility)
   ISTART =      0    job   : 0-new  1-cont  2-samecut
   ICHARG =     11    charge: 1-file 2-atom 10-const
   ISPIN  =      1    spin polarized calculation?
   LNONCOLLINEAR =      F non collinear calculations
   LSORBIT =      F    spin-orbit coupling
   INIWAV =      1    electr: 0-lowe 1-rand  2-diag
   LASPH  =      F    aspherical Exc in radial PAW
   METAGGA=      F    non-selfconsistent MetaGGA calc.

 Electronic Relaxation 1
   ENCUT  =  500.0 eV  36.75 Ry    6.06 a.u.  14.03 14.03 46.27*2*pi/ulx,y,z
   ENINI  =  500.0     initial cutoff
   ENAUG  =  605.4 eV  augmentation charge cutoff
   NELM   =    150;   NELMIN=  2; NELMDL= -5     # of ELM steps 
   EDIFF  = 0.1E-04   stopping-criterion for ELM
   LREAL  =      T    real-space projection
   NLSPLINE    = F    spline interpolate recip. space projectors
   LCOMPAT=      F    compatible to vasp.4.4
   GGA_COMPAT  = T    GGA compatible to vasp.4.4-vasp.4.6
   LMAXPAW     = -100 max onsite density
   LMAXMIX     =    2 max onsite mixed and CHGCAR
   VOSKOWN=      0    Vosko Wilk Nusair interpolation
   ROPT   =   -0.00050  -0.00050  -0.00050  -0.00050
 Ionic relaxation
   EDIFFG = -.1E-01   stopping-criterion for IOM
   NSW    =      0    number of steps for IOM
   NBLOCK =      1;   KBLOCK =      1    inner block; outer block 
   IBRION =     -1    ionic relax: 0-MD 1-quasi-New 2-CG
   NFREE  =      1    steps in history (QN), initial steepest desc. (CG)
   ISIF   =      2    stress and relaxation
   IWAVPR =     10    prediction:  0-non 1-charg 2-wave 3-comb
   ISYM   =      2    0-nonsym 1-usesym 2-fastsym
   LCORR  =      T    Harris-Foulkes like correction to forces

   POTIM  = 0.5000    time-step for ionic-motion
   TEIN   =    0.0    initial temperature
   TEBEG  =    0.0;   TEEND  =   0.0 temperature during run
   SMASS  =  -3.00    Nose mass-parameter (am)
   estimated Nose-frequenzy (Omega)   =  0.10E-29 period in steps = 0.13E+47 mass=  -0.135E-26a.u.
   SCALEE = 1.0000    scale energy and forces
   NPACO  =    256;   APACO  = 16.0  distance and # of slots for P.C.
   PSTRESS=    0.0 pullay stress

  Mass of Ions in am
   POMASS =  63.55190.20 16.00  1.00
  Ionic Valenz
   ZVAL   =  11.00  8.00  6.00  1.00
  Atomic Wigner-Seitz radii
   RWIGS  =  -1.00 -1.00 -1.00 -1.00
  virtual crystal weights 
   VCA    =   1.00  1.00  1.00  1.00
   NELECT =     406.0000    total number of electrons
   NUPDOWN=      -1.0000    fix difference up-down

 DOS related values:
   EMIN   =  10.00;   EMAX   =-10.00  energy-range for DOS
   EFERMI =   0.00
   ISMEAR =    -5;   SIGMA  =   0.10  broadening in eV -4-tet -1-fermi 0-gaus

 Electronic relaxation 2 (details)
   IALGO  =     68    algorithm
   LDIAG  =      T    sub-space diagonalisation (order eigenvalues)
   LSUBROT=      F    optimize rotation matrix (better conditioning)
   TURBO    =      0    0=normal 1=particle mesh
   IRESTART =      0    0=no restart 2=restart with 2 vectors
   NREBOOT  =      0    no. of reboots
   NMIN     =      0    reboot dimension
   EREF     =   0.00    reference energy to select bands
   IMIX   =      4    mixing-type and parameters
     AMIX     =   0.40;   BMIX     =  1.00
     AMIX_MAG =   1.60;   BMIX_MAG =  1.00
     AMIN     =   0.10
     WC   =   100.;   INIMIX=   1;  MIXPRE=   1;  MAXMIX= -45

 Intra band minimization:
   WEIMIN = 0.0000     energy-eigenvalue tresh-hold
   EBREAK =  0.99E-08  absolut break condition
   DEPER  =   0.30     relativ break condition  

   TIME   =   0.40     timestep for ELM

  volume/ion in A,a.u.               =      33.39       225.30
  Fermi-wavevector in a.u.,A,eV,Ry     =   1.110136  2.097852 16.767839  1.232401
  Thomas-Fermi vector in A             =   2.246684
 
 Write flags
   LWAVE        =      F    write WAVECAR
   LDOWNSAMPLE  =      F    k-point downsampling of WAVECAR
   LCHARG       =      F    write CHGCAR
   LVTOT        =      F    write LOCPOT, total local potential
   LVHAR        =      F    write LOCPOT, Hartree potential only
   LELF         =      F    write electronic localiz. function (ELF)
   LORBIT       =     10    0 simple, 1 ext, 2 COOP (PROOUT), +10 PAW based schemes


 Dipole corrections
   LMONO  =      F    monopole corrections only (constant potential shift)
   LDIPOL =      F    correct potential (dipole corrections)
   IDIPOL =      0    1-x, 2-y, 3-z, 4-all directions 
   EPSILON=  1.0000000 bulk dielectric constant

 Exchange correlation treatment:
   GGA     =    --    GGA type
   LEXCH   =     8    internal setting for exchange type
   VOSKOWN=      0    Vosko Wilk Nusair interpolation
   LHFCALC =     F    Hartree Fock is set to
   LHFONE  =     F    Hartree Fock one center treatment
   AEXX    =    0.0000 exact exchange contribution

 Linear response parameters
   LEPSILON=     F    determine dielectric tensor
   LRPA    =     F    only Hartree local field effects (RPA)
   LNABLA  =     F    use nabla operator in PAW spheres
   LVEL    =     F    velocity operator in full k-point grid
   LINTERFAST=   F  fast interpolation
   KINTER  =     0    interpolate to denser k-point grid
   CSHIFT  =0.1000    complex shift for real part using Kramers Kronig
   OMEGAMAX=  -1.0    maximum frequency
   DEG_THRESHOLD= 0.2000000E-02 threshold for treating states as degnerate
   RTIME   =   -0.100 relaxation time in fs
  (WPLASMAI=    0.000 imaginary part of plasma frequency in eV, 0.658/RTIME)
   DFIELD  = 0.0000000 0.0000000 0.0000000 field for delta impulse in time
 
 Orbital magnetization related:
   ORBITALMAG=     F  switch on orbital magnetization
   LCHIMAG   =     F  perturbation theory with respect to B field
   DQ        =  0.001000  dq finite difference perturbation B field
   LLRAUG    =     F  two centre corrections for induced B field



--------------------------------------------------------------------------------------------------------


 Static calculation
 charge density and potential remain constant during run
 non-spin polarized calculation
 RMM-DIIS sequential band-by-band and
  variant of blocked Davidson during initial phase
 perform sub-space diagonalisation
    before iterative eigenvector-optimisation
 no mixing
 using additional bands           49
 real space projection scheme for non local part
 use partial core corrections
 calculate Harris-corrections to forces 
   (improved forces if not selfconsistent)
 use gradient corrections 
 WARNING: stress and forces are not correct
  (second derivative of E(xc) not defined)
 use of overlap-Matrix (Vanderbilt PP)
 Fermi weights with tetrahedron method with Bloechl corrections


--------------------------------------------------------------------------------------------------------


  energy-cutoff  :      500.00
  volume of cell :     1302.03
      direct lattice vectors                 reciprocal lattice vectors
     7.696786404  0.000000000  0.000000000     0.129924354 -0.075011849  0.000000000
     3.848392758  6.665612809  0.000000000     0.000000000  0.150023716  0.000000000
     0.000000000  0.000000000 25.378895643     0.000000000  0.000000000  0.039402818

  length of vectors
     7.696786404  7.696786404 25.378895643     0.150023716  0.150023716  0.039402818


 
 k-points in units of 2pi/SCALE and weight: Automatic mesh                          
   0.00000000  0.00000000  0.00000000       0.016
   0.01624054 -0.00937648  0.00000000       0.031
   0.01624054  0.00937648  0.00000000       0.031
   0.00000000  0.01875296  0.00000000       0.031
   0.03248109 -0.01875296  0.00000000       0.031
   0.03248109  0.01875297  0.00000000       0.031
   0.00000000  0.03750593  0.00000000       0.031
   0.04872163 -0.02812944  0.00000000       0.031
   0.04872163  0.02812945  0.00000000       0.031
   0.00000000  0.05625889  0.00000000       0.031
   0.06496218 -0.03750592  0.00000000       0.016
   0.06496218  0.03750593  0.00000000       0.016
   0.00000000  0.07501186  0.00000000       0.016
   0.03248109  0.00000000  0.00000000       0.031
   0.01624054  0.02812945  0.00000000       0.031
  -0.01624054  0.02812945  0.00000000       0.031
   0.04872163 -0.00937648  0.00000000       0.031
   0.03248109  0.03750593  0.00000000       0.031
  -0.01624054  0.04688241  0.00000000       0.031
   0.03248109 -0.03750593  0.00000000       0.031
  -0.01624054 -0.04688241  0.00000000       0.031
  -0.04872163 -0.00937649  0.00000000       0.031
   0.06496218 -0.01875296  0.00000000       0.031
   0.04872163  0.04688241  0.00000000       0.031
  -0.01624054  0.06563537  0.00000000       0.031
   0.04872163 -0.04688241  0.00000000       0.031
  -0.01624054  0.08438834  0.00000000       0.031
   0.06496218 -0.09376482  0.00000000       0.031
   0.06496218  0.00000000  0.00000000       0.031
   0.03248109  0.05625890  0.00000000       0.031
  -0.03248109  0.05625889  0.00000000       0.031
  -0.04872163  0.06563537  0.00000000       0.031
   0.04872163 -0.08438834  0.00000000       0.031
  -0.03248109  0.07501186  0.00000000       0.031
 
 k-points in reciprocal lattice and weights: Automatic mesh                          
   0.00000000  0.00000000  0.00000000       0.016
   0.12500000  0.00000000  0.00000000       0.031
   0.12500000  0.12500000  0.00000000       0.031
   0.00000000  0.12500000  0.00000000       0.031
   0.25000000  0.00000000  0.00000000       0.031
   0.25000000  0.25000000  0.00000000       0.031
   0.00000000  0.25000000  0.00000000       0.031
   0.37500000  0.00000000  0.00000000       0.031
   0.37500000  0.37500000  0.00000000       0.031
   0.00000000  0.37500000  0.00000000       0.031
   0.50000000  0.00000000  0.00000000       0.016
   0.50000000  0.50000000  0.00000000       0.016
   0.00000000  0.50000000  0.00000000       0.016
   0.25000000  0.12500000  0.00000000       0.031
   0.12500000  0.25000000  0.00000000       0.031
  -0.12500000  0.12500000  0.00000000       0.031
   0.37500000  0.12500000  0.00000000       0.031
   0.25000000  0.37500000  0.00000000       0.031
  -0.12500000  0.25000000  0.00000000       0.031
   0.25000000 -0.12500000  0.00000000       0.031
  -0.12500000 -0.37500000  0.00000000       0.031
  -0.37500000 -0.25000000  0.00000000       0.031
   0.50000000  0.12500000  0.00000000       0.031
   0.37500000  0.50000000  0.00000000       0.031
  -0.12500000  0.37500000  0.00000000       0.031
   0.37500000 -0.12500000  0.00000000       0.031
  -0.12500000  0.50000000  0.00000000       0.031
   0.50000000 -0.37500000  0.00000000       0.031
   0.50000000  0.25000000  0.00000000       0.031
   0.25000000  0.50000000  0.00000000       0.031
  -0.25000000  0.25000000  0.00000000       0.031
  -0.37500000  0.25000000  0.00000000       0.031
   0.37500000 -0.37500000  0.00000000       0.031
  -0.25000000  0.37500000  0.00000000       0.031
 
 position of ions in fractional coordinates (direct lattice) 
   0.00000000  0.00000000  0.21165459
   0.33333334  0.00000000  0.21165459
   0.66666669  0.00000000  0.21165459
   0.00000000  0.33333334  0.21165459
   0.33333331  0.33333334  0.21165459
   0.66666669  0.33333334  0.21165459
   0.00000000  0.66666669  0.21165459
   0.33333337  0.66666669  0.21165459
   0.66666663  0.66666669  0.21165459
   0.11111112  0.11111111  0.29419562
   0.44444442  0.11111111  0.29419562
   0.77777779  0.11111111  0.29419562
   0.11111112  0.44444445  0.29419562
   0.44444448  0.44444445  0.29419562
   0.77777773  0.44444445  0.29419562
   0.11111111  0.77777773  0.29419562
   0.44444448  0.77777773  0.29419562
   0.77777785  0.77777773  0.29419562
   0.88848961  0.22302080  0.37684841
   0.22122475  0.22122474  0.37550473
   0.55755055  0.22122474  0.37550473
   0.88783563  0.55608216  0.37689818
   0.22122472  0.55755049  0.37550473
   0.55608222  0.55608216  0.37689818
   0.88848961  0.88848961  0.37684841
   0.22302082  0.88848961  0.37684841
   0.55608216  0.88783563  0.37689818
   0.00000000  0.00000000  0.45872114
   0.33266200  0.00036284  0.45993109
   0.66697518  0.00036284  0.45993109
   0.00036284  0.33266200  0.45993109
   0.66697518  0.33266200  0.45993109
   0.00036284  0.66697518  0.45993109
   0.33266203  0.66697518  0.45993109
   0.66666663  0.66666669  0.45866258
   0.33333331  0.33333334  0.45611885
   0.33825056  0.34099131  0.52526696
   0.10399902  0.10128221  0.51504995
   0.10002689  0.09592121  0.55331277
 
 position of ions in cartesian coordinates  (Angst):
   0.00000000  0.00000000  5.37155964
   2.56559554  0.00000000  5.37155964
   5.13119109  0.00000000  5.37155964
   1.28279762  2.22187100  5.37155964
   3.84839293  2.22187100  5.37155964
   6.41398872  2.22187100  5.37155964
   2.56559525  4.44374201  5.37155964
   5.13119102  4.44374201  5.37155964
   7.69678588  4.44374201  5.37155964
   1.28279775  0.74062365  7.46635991
   3.84839295  0.74062365  7.46635991
   6.41398873  0.74062365  7.46635991
   2.56559535  2.96249461  7.46635991
   5.13119101  2.96249461  7.46635991
   7.69678586  2.96249461  7.46635991
   3.84839268  5.18436521  7.46635991
   6.41398840  5.18436521  7.46635991
   8.97958418  5.18436521  7.46635991
   7.69678637  1.48657030  9.56399641
   2.55407935  1.47459845  9.52989534
   5.14270721  1.47459845  9.52989534
   8.97350374  3.70662834  9.56525955
   3.84839272  3.71641572  9.52989534
   6.42006857  3.70662834  9.56525955
  10.25777171  5.92232771  9.56399641
   5.13580055  5.92232771  9.56399641
   7.69678578  5.91796854  9.56525955
   0.00000000  0.00000000 11.64183588
   2.56182473  0.00241858 11.67254326
   5.13496190  0.00241858 11.67254326
   1.28300677  2.21739609 11.67254326
   6.41377957  2.21739609 11.67254326
   2.56957521  4.44579833 11.67254326
   5.12721107  4.44579833 11.67254326
   7.69678588  4.44374201 11.64034980
   3.84839293  2.22187100 11.57579272
   3.91571080  2.27291603 13.33069531
   1.19023198  0.67510803 13.07139896
   1.13902807  0.63937365 14.04246712
 


--------------------------------------------------------------------------------------------------------


 k-point   1 :   0.0000 0.0000 0.0000  plane waves:   33027
 k-point   2 :   0.1250 0.0000 0.0000  plane waves:   32999
 k-point   3 :   0.1250 0.1250 0.0000  plane waves:   32999
 k-point   4 :   0.0000 0.1250 0.0000  plane waves:   32999
 k-point   5 :   0.2500 0.0000 0.0000  plane waves:   33054
 k-point   6 :   0.2500 0.2500 0.0000  plane waves:   33054
 k-point   7 :   0.0000 0.2500 0.0000  plane waves:   33054
 k-point   8 :   0.3750 0.0000 0.0000  plane waves:   33036
 k-point   9 :   0.3750 0.3750 0.0000  plane waves:   33036
 k-point  10 :   0.0000 0.3750 0.0000  plane waves:   33036
 k-point  11 :   0.5000 0.0000 0.0000  plane waves:   33066
 k-point  12 :   0.5000 0.5000 0.0000  plane waves:   33066
 k-point  13 :   0.0000 0.5000 0.0000  plane waves:   33066
 k-point  14 :   0.2500 0.1250 0.0000  plane waves:   33058
 k-point  15 :   0.1250 0.2500 0.0000  plane waves:   33058
 k-point  16 :  -0.1250 0.1250 0.0000  plane waves:   33058
 k-point  17 :   0.3750 0.1250 0.0000  plane waves:   33072
 k-point  18 :   0.2500 0.3750 0.0000  plane waves:   33072
 k-point  19 :  -0.1250 0.2500 0.0000  plane waves:   33072
 k-point  20 :   0.2500-0.1250 0.0000  plane waves:   33072
 k-point  21 :  -0.1250-0.3750 0.0000  plane waves:   33072
 k-point  22 :  -0.3750-0.2500 0.0000  plane waves:   33072
 k-point  23 :   0.5000 0.1250 0.0000  plane waves:   33053
 k-point  24 :   0.3750 0.5000 0.0000  plane waves:   33053
 k-point  25 :  -0.1250 0.3750 0.0000  plane waves:   33053
 k-point  26 :   0.3750-0.1250 0.0000  plane waves:   33053
 k-point  27 :  -0.1250 0.5000 0.0000  plane waves:   33053
 k-point  28 :   0.5000-0.3750 0.0000  plane waves:   33053
 k-point  29 :   0.5000 0.2500 0.0000  plane waves:   33084
 k-point  30 :   0.2500 0.5000 0.0000  plane waves:   33084
 k-point  31 :  -0.2500 0.2500 0.0000  plane waves:   33084
 k-point  32 :  -0.3750 0.2500 0.0000  plane waves:   33108
 k-point  33 :   0.3750-0.3750 0.0000  plane waves:   33108
 k-point  34 :  -0.2500 0.3750 0.0000  plane waves:   33108

 maximum and minimum number of plane-waves per node :     33108    32999

 maximum number of plane-waves:     33108
 maximum index in each direction: 
   IXMAX=   14   IYMAX=   14   IZMAX=   46
   IXMIN=  -14   IYMIN=  -14   IZMIN=  -46


 serial   3D FFT for wavefunctions
 parallel 3D FFT for charge:
    minimum data exchange during FFTs selected (reduces bandwidth)


 total amount of memory used by VASP MPI-rank0   232066. kBytes
=======================================================================

   base      :      30000. kBytes
   nonlr-proj:      17586. kBytes
   fftplans  :       3394. kBytes
   grid      :      15015. kBytes
   one-center:        606. kBytes
   wavefun   :     165465. kBytes
 
     INWAV:  cpu time    0.0000: real time    0.0000
 initial charge density was supplied:
 number of electron     405.9999105 magnetization 
 keeping initial charge density in first step


--------------------------------------------------------------------------------------------------------


 Maximum index for non-local projection operator         2933
 Maximum index for augmentation-charges          538 (set IRDMAX)


--------------------------------------------------------------------------------------------------------


 First call to EWALD:  gamma=   0.162
 Maximum number of real-space cells 4x 4x 1
 Maximum number of reciprocal cells 2x 2x 6

    FEWALD:  cpu time    0.0011: real time    0.0011


--------------------------------------- Iteration      1(   1)  ---------------------------------------


    POTLOK:  cpu time    0.0305: real time    0.0308
    SETDIJ:  cpu time    0.0038: real time    0.0039
     EDDAV:  cpu time   20.9321: real time   20.9338
 BZINTS: Fermi energy:   12.900405;  406.000000 electrons
         Band energy: 0.234514E+04;  BLOECHL correction:   -0.042803
       DOS:  cpu time    0.0510: real time    0.0511
    --------------------------------------------
      LOOP:  cpu time   21.0173: real time   21.0196

 eigenvalue-minimisations  : 17136
 total energy-change (2. order) : 0.3643722E+04  (-0.1735561E+05)
 number of electron     405.9999105 magnetization 
 augmentation part      405.9999105 magnetization 

 Free energy of the ion-electron system (eV)
  ---------------------------------------------------
  alpha Z        PSCENC =       782.98315579
  Ewald energy   TEWEN  =    233562.45122590
  -Hartree energ DENC   =   -280886.79140756
  -exchange      EXHF   =         0.00000000
  -V(xc)+E(xc)   XCENC  =      1586.34833138
  PAW double counting   =     47416.55444930   -51141.94245280
  entropy T*S    EENTRO =         0.00000000
  eigenvalues    EBANDS =      2345.14360980
  atomic energy  EATOM  =     49978.97540658
  Solvation  Ediel_sol  =         0.00000000
  ---------------------------------------------------
  free energy    TOTEN  =      3643.72231841 eV

  energy without entropy =     3643.72231841  energy(sigma->0) =     3643.72231841


--------------------------------------------------------------------------------------------------------




--------------------------------------- Iteration      1(   2)  ---------------------------------------


     EDDAV:  cpu time   21.0610: real time   21.0616
 BZINTS: Fermi energy:    2.828225;  406.000000 electrons
         Band energy:-0.943486E+03;  BLOECHL correction:   -0.019154
       DOS:  cpu time    0.0530: real time    0.0530
    --------------------------------------------
      LOOP:  cpu time   21.1140: real time   21.1146

 eigenvalue-minimisations  : 17136
 total energy-change (2. order) :-0.3288630E+04  (-0.3165536E+04)
 number of electron     405.9999105 magnetization 
 augmentation part      405.9999105 magnetization 

 Free energy of the ion-electron system (eV)
  ---------------------------------------------------
  alpha Z        PSCENC =       782.98315579
  Ewald energy   TEWEN  =    233562.45122590
  -Hartree energ DENC   =   -280886.79140756
  -exchange      EXHF   =         0.00000000
  -V(xc)+E(xc)   XCENC  =      1586.34833138
  PAW double counting   =     47416.55444930   -51141.94245280
  entropy T*S    EENTRO =         0.00000000
  eigenvalues    EBANDS =      -943.48649237
  atomic energy  EATOM  =     49978.97540658
  Solvation  Ediel_sol  =         0.00000000
  ---------------------------------------------------
  free energy    TOTEN  =       355.09221623 eV

  energy without entropy =      355.09221623  energy(sigma->0) =      355.09221623


--------------------------------------------------------------------------------------------------------




--------------------------------------- Iteration      1(   3)  ---------------------------------------


     EDDAV:  cpu time   23.5421: real time   23.5429
 BZINTS: Fermi energy:   -0.080433;  406.000000 electrons
         Band energy:-0.140189E+04;  BLOECHL correction:   -0.029918
       DOS:  cpu time    0.0496: real time    0.0496
    --------------------------------------------
      LOOP:  cpu time   23.5917: real time   23.5925

 eigenvalue-minimisations  : 19544
 total energy-change (2. order) :-0.4583999E+03  (-0.4358061E+03)
 number of electron     405.9999105 magnetization 
 augmentation part      405.9999105 magnetization 

 Free energy of the ion-electron system (eV)
  ---------------------------------------------------
  alpha Z        PSCENC =       782.98315579
  Ewald energy   TEWEN  =    233562.45122590
  -Hartree energ DENC   =   -280886.79140756
  -exchange      EXHF   =         0.00000000
  -V(xc)+E(xc)   XCENC  =      1586.34833138
  PAW double counting   =     47416.55444930   -51141.94245280
  entropy T*S    EENTRO =         0.00000000
  eigenvalues    EBANDS =     -1401.88635847
  atomic energy  EATOM  =     49978.97540658
  Solvation  Ediel_sol  =         0.00000000
  ---------------------------------------------------
  free energy    TOTEN  =      -103.30764987 eV

  energy without entropy =     -103.30764987  energy(sigma->0) =     -103.30764987


--------------------------------------------------------------------------------------------------------




--------------------------------------- Iteration      1(   4)  ---------------------------------------


     EDDAV:  cpu time   30.4245: real time   30.4255
 BZINTS: Fermi energy:   -0.486774;  406.000000 electrons
         Band energy:-0.144635E+04;  BLOECHL correction:   -0.039501
       DOS:  cpu time    0.0526: real time    0.0526
    --------------------------------------------
      LOOP:  cpu time   30.4771: real time   30.4781

 eigenvalue-minimisations  : 26712
 total energy-change (2. order) :-0.4446788E+02  (-0.4294147E+02)
 number of electron     405.9999105 magnetization 
 augmentation part      405.9999105 magnetization 

 Free energy of the ion-electron system (eV)
  ---------------------------------------------------
  alpha Z        PSCENC =       782.98315579
  Ewald energy   TEWEN  =    233562.45122590
  -Hartree energ DENC   =   -280886.79140756
  -exchange      EXHF   =         0.00000000
  -V(xc)+E(xc)   XCENC  =      1586.34833138
  PAW double counting   =     47416.55444930   -51141.94245280
  entropy T*S    EENTRO =         0.00000000
  eigenvalues    EBANDS =     -1446.35423363
  atomic energy  EATOM  =     49978.97540658
  Solvation  Ediel_sol  =         0.00000000
  ---------------------------------------------------
  free energy    TOTEN  =      -147.77552503 eV

  energy without entropy =     -147.77552503  energy(sigma->0) =     -147.77552503


--------------------------------------------------------------------------------------------------------




--------------------------------------- Iteration      1(   5)  ---------------------------------------


     EDDAV:  cpu time   24.9144: real time   24.9179
 BZINTS: Fermi energy:   -0.503261;  406.000000 electrons
         Band energy:-0.144746E+04;  BLOECHL correction:   -0.036455
       DOS:  cpu time    0.0519: real time    0.0519
    --------------------------------------------
      LOOP:  cpu time   24.9663: real time   24.9698

 eigenvalue-minimisations  : 21056
 total energy-change (2. order) :-0.1104643E+01  (-0.1100980E+01)
 number of electron     405.9999105 magnetization 
 augmentation part      405.9999105 magnetization 

 Free energy of the ion-electron system (eV)
  ---------------------------------------------------
  alpha Z        PSCENC =       782.98315579
  Ewald energy   TEWEN  =    233562.45122590
  -Hartree energ DENC   =   -280886.79140756
  -exchange      EXHF   =         0.00000000
  -V(xc)+E(xc)   XCENC  =      1586.34833138
  PAW double counting   =     47416.55444930   -51141.94245280
  entropy T*S    EENTRO =         0.00000000
  eigenvalues    EBANDS =     -1447.45887712
  atomic energy  EATOM  =     49978.97540658
  Solvation  Ediel_sol  =         0.00000000
  ---------------------------------------------------
  free energy    TOTEN  =      -148.88016852 eV

  energy without entropy =     -148.88016852  energy(sigma->0) =     -148.88016852


--------------------------------------------------------------------------------------------------------




--------------------------------------- Iteration      1(   6)  ---------------------------------------


    EDDIAG:  cpu time    3.9220: real time    3.9224
  RMM-DIIS:  cpu time   12.2687: real time   12.2690
    ORTHCH:  cpu time    0.7391: real time    0.7391
 BZINTS: Fermi energy:   -0.503338;  406.000000 electrons
         Band energy:-0.144747E+04;  BLOECHL correction:   -0.036441
       DOS:  cpu time    0.0518: real time    0.0518
    --------------------------------------------
      LOOP:  cpu time   16.9815: real time   16.9823

 eigenvalue-minimisations  : 18390
 total energy-change (2. order) :-0.1325145E-01  (-0.1325378E-01)
 number of electron     405.9999105 magnetization 
 augmentation part      405.9999105 magnetization 

 Free energy of the ion-electron system (eV)
  ---------------------------------------------------
  alpha Z        PSCENC =       782.98315579
  Ewald energy   TEWEN  =    233562.45122590
  -Hartree energ DENC   =   -280886.79140756
  -exchange      EXHF   =         0.00000000
  -V(xc)+E(xc)   XCENC  =      1586.34833138
  PAW double counting   =     47416.55444930   -51141.94245280
  entropy T*S    EENTRO =         0.00000000
  eigenvalues    EBANDS =     -1447.47212857
  atomic energy  EATOM  =     49978.97540658
  Solvation  Ediel_sol  =         0.00000000
  ---------------------------------------------------
  free energy    TOTEN  =      -148.89341997 eV

  energy without entropy =     -148.89341997  energy(sigma->0) =     -148.89341997


--------------------------------------------------------------------------------------------------------




--------------------------------------- Iteration      1(   7)  ---------------------------------------


    EDDIAG:  cpu time    3.9388: real time    3.9391
  RMM-DIIS:  cpu time   16.7017: real time   16.7021
    ORTHCH:  cpu time    0.7384: real time    0.7384
 BZINTS: Fermi energy:   -0.503366;  406.000000 electrons
         Band energy:-0.144748E+04;  BLOECHL correction:   -0.036437
       DOS:  cpu time    0.0519: real time    0.0519
    --------------------------------------------
      LOOP:  cpu time   21.4308: real time   21.4315

 eigenvalue-minimisations  : 25431
 total energy-change (2. order) :-0.5890767E-02  (-0.5721082E-02)
 number of electron     405.9999105 magnetization 
 augmentation part      405.9999105 magnetization 

 Free energy of the ion-electron system (eV)
  ---------------------------------------------------
  alpha Z        PSCENC =       782.98315579
  Ewald energy   TEWEN  =    233562.45122590
  -Hartree energ DENC   =   -280886.79140756
  -exchange      EXHF   =         0.00000000
  -V(xc)+E(xc)   XCENC  =      1586.34833138
  PAW double counting   =     47416.55444930   -51141.94245280
  entropy T*S    EENTRO =         0.00000000
  eigenvalues    EBANDS =     -1447.47801934
  atomic energy  EATOM  =     49978.97540658
  Solvation  Ediel_sol  =         0.00000000
  ---------------------------------------------------
  free energy    TOTEN  =      -148.89931073 eV

  energy without entropy =     -148.89931073  energy(sigma->0) =     -148.89931073


--------------------------------------------------------------------------------------------------------




--------------------------------------- Iteration      1(   8)  ---------------------------------------


    EDDIAG:  cpu time    3.9297: real time    3.9300
  RMM-DIIS:  cpu time   14.0277: real time   14.0281
    ORTHCH:  cpu time    0.7385: real time    0.7385
 BZINTS: Fermi energy:   -0.503369;  406.000000 electrons
         Band energy:-0.144748E+04;  BLOECHL correction:   -0.036436
       DOS:  cpu time    0.0530: real time    0.0530
    --------------------------------------------
      LOOP:  cpu time   18.7489: real time   18.7496

 eigenvalue-minimisations  : 21394
 total energy-change (2. order) :-0.4782063E-03  (-0.4768221E-03)
 number of electron     405.9999105 magnetization 
 augmentation part      405.9999105 magnetization 

 Free energy of the ion-electron system (eV)
  ---------------------------------------------------
  alpha Z        PSCENC =       782.98315579
  Ewald energy   TEWEN  =    233562.45122590
  -Hartree energ DENC   =   -280886.79140756
  -exchange      EXHF   =         0.00000000
  -V(xc)+E(xc)   XCENC  =      1586.34833138
  PAW double counting   =     47416.55444930   -51141.94245280
  entropy T*S    EENTRO =         0.00000000
  eigenvalues    EBANDS =     -1447.47849754
  atomic energy  EATOM  =     49978.97540658
  Solvation  Ediel_sol  =         0.00000000
  ---------------------------------------------------
  free energy    TOTEN  =      -148.89978894 eV

  energy without entropy =     -148.89978894  energy(sigma->0) =     -148.89978894


--------------------------------------------------------------------------------------------------------




--------------------------------------- Iteration      1(   9)  ---------------------------------------


    EDDIAG:  cpu time    3.9421: real time    3.9425
  RMM-DIIS:  cpu time   16.8520: real time   16.8524
    ORTHCH:  cpu time    0.7407: real time    0.7407
 BZINTS: Fermi energy:   -0.503369;  406.000000 electrons
         Band energy:-0.144748E+04;  BLOECHL correction:   -0.036436
       DOS:  cpu time    0.0508: real time    0.0508
    --------------------------------------------
      LOOP:  cpu time   21.5857: real time   21.5864

 eigenvalue-minimisations  : 25115
 total energy-change (2. order) :-0.8355360E-04  (-0.7974548E-04)
 number of electron     405.9999105 magnetization 
 augmentation part      405.9999105 magnetization 

 Free energy of the ion-electron system (eV)
  ---------------------------------------------------
  alpha Z        PSCENC =       782.98315579
  Ewald energy   TEWEN  =    233562.45122590
  -Hartree energ DENC   =   -280886.79140756
  -exchange      EXHF   =         0.00000000
  -V(xc)+E(xc)   XCENC  =      1586.34833138
  PAW double counting   =     47416.55444930   -51141.94245280
  entropy T*S    EENTRO =         0.00000000
  eigenvalues    EBANDS =     -1447.47858110
  atomic energy  EATOM  =     49978.97540658
  Solvation  Ediel_sol  =         0.00000000
  ---------------------------------------------------
  free energy    TOTEN  =      -148.89987249 eV

  energy without entropy =     -148.89987249  energy(sigma->0) =     -148.89987249


--------------------------------------------------------------------------------------------------------




--------------------------------------- Iteration      1(  10)  ---------------------------------------


    EDDIAG:  cpu time    3.9349: real time    3.9352
  RMM-DIIS:  cpu time    9.7911: real time    9.7915
    ORTHCH:  cpu time    0.7279: real time    0.7279
 BZINTS: Fermi energy:   -0.503369;  406.000000 electrons
         Band energy:-0.144748E+04;  BLOECHL correction:   -0.036436
       DOS:  cpu time    0.0532: real time    0.0532
    --------------------------------------------
      LOOP:  cpu time   14.5070: real time   14.5078

 eigenvalue-minimisations  : 13339
 total energy-change (2. order) :-0.4294910E-05  (-0.3886877E-05)
 number of electron     405.9999105 magnetization 
 augmentation part      405.9999105 magnetization 

 Free energy of the ion-electron system (eV)
  ---------------------------------------------------
  alpha Z        PSCENC =       782.98315579
  Ewald energy   TEWEN  =    233562.45122590
  -Hartree energ DENC   =   -280886.79140756
  -exchange      EXHF   =         0.00000000
  -V(xc)+E(xc)   XCENC  =      1586.34833138
  PAW double counting   =     47416.55444930   -51141.94245280
  entropy T*S    EENTRO =         0.00000000
  eigenvalues    EBANDS =     -1447.47858539
  atomic energy  EATOM  =     49978.97540658
  Solvation  Ediel_sol  =         0.00000000
  ---------------------------------------------------
  free energy    TOTEN  =      -148.89987679 eV

  energy without entropy =     -148.89987679  energy(sigma->0) =     -148.89987679


--------------------------------------------------------------------------------------------------------




 average (electrostatic) potential at core
  the test charge radii are     0.9430  1.1957  0.7215  0.5201
  (the norm of the test charge is              1.0000)
       1 -71.4781       2 -71.4650       3 -71.4710       4 -71.4650       5 -71.4676
       6 -71.4631       7 -71.4710       8 -71.4630       9 -71.4993      10 -71.7503
      11 -71.7314      12 -71.7532      13 -71.7315      14 -71.7309      15 -71.7345
      16 -71.7532      17 -71.7340      18 -71.7595      19 -71.6973      20 -71.9176
      21 -71.9148      22 -71.7151      23 -71.9152      24 -71.7230      25 -71.7257
      26 -71.6969      27 -71.7161      28 -71.5828      29 -71.5761      30 -71.4912
      31 -71.5700      32 -71.5020      33 -71.4912      34 -71.5020      35 -71.3785
      36 -53.3046      37 -77.2328      38 -76.7351      39 -40.8383
 
 
 
 E-fermi :  -0.5034     XC(G=0):  -5.0974     alpha+bet : -4.5627

 Fermi energy:        -0.5033687956

 k-point     1 :       0.0000    0.0000    0.0000
  band No.  band energies     occupation 
      1     -20.4637      2.00000
      2     -19.4487      2.00000
      3      -9.4698      2.00000
      4      -9.0196      2.00000
      5      -7.9566      2.00000
      6      -6.6944      2.00000
      7      -6.4642      2.00000
      8      -6.4361      2.00000
      9      -6.4300      2.00000
     10      -6.3695      2.00000
     11      -6.3247      2.00000
     12      -6.3090      2.00000
     13      -6.0802      2.00000
     14      -5.9851      2.00000
     15      -5.8967      2.00000
     16      -5.7757      2.00000
     17      -5.7130      2.00000
     18      -5.6463      2.00000
     19      -5.6250      2.00000
     20      -5.5593      2.00000
     21      -5.4854      2.00000
     22      -5.3425      2.00000
     23      -5.1902      2.00000
     24      -5.0976      2.00000
     25      -4.9839      2.00000
     26      -4.9194      2.00000
     27      -4.9083      2.00000
     28      -4.7835      2.00000
     29      -4.7647      2.00000
     30      -4.6603      2.00000
     31      -4.5893      2.00000
     32      -4.5878      2.00000
     33      -4.5586      2.00000
     34      -4.5531      2.00000
     35      -4.5241      2.00000
     36      -4.4964      2.00000
     37      -4.4723      2.00000
     38      -4.4674      2.00000
     39      -4.3900      2.00000
     40      -4.3848      2.00000
     41      -4.3808      2.00000
     42      -4.3672      2.00000
     43      -4.3634      2.00000
     44      -4.3566      2.00000
     45      -4.3406      2.00000
     46      -4.3111      2.00000
     47      -4.2864      2.00000
     48      -4.2787      2.00000
     49      -4.2487      2.00000
     50      -4.2462      2.00000
     51      -4.2277      2.00000
     52      -4.2262      2.00000
     53      -4.1029      2.00000
     54      -4.0951      2.00000
     55      -4.0679      2.00000
     56      -4.0647      2.00000
     57      -4.0442      2.00000
     58      -4.0275      2.00000
     59      -4.0117      2.00000
     60      -3.9732      2.00000
     61      -3.9626      2.00000
     62      -3.9325      2.00000
     63      -3.7023      2.00000
     64      -3.7006      2.00000
[...]
  0.000   0.000   0.000   0.000   0.000   0.000   0.000   0.000   0.000   0.000   1.000   0.000   0.000   0.000   0.000   0.000
  0.000   0.000   0.000   0.000   0.000   0.000   0.000   0.000   0.000   0.000   0.000   0.000   0.000   0.000   0.000   0.000
  0.000   0.000   0.000   0.000   0.000   0.000   0.000   0.000   0.000   0.000   0.000   0.000   0.000   0.000   0.000   0.000
  0.000   0.000   0.000   0.000   0.000   0.000   0.000   0.000   0.000   0.000   0.000   0.000   0.000   0.000   0.000   0.000
  0.000   0.000   0.000   0.000   0.000   0.000   0.000   0.000   0.000   0.000   0.000   0.000   0.000   0.000   0.000   0.000
  0.000   0.000   0.000   0.000   0.000   0.000   0.000   0.000   0.000   0.000   0.000   0.000   0.000   0.000   0.000   0.000
  0.000   0.000   0.000   0.000   0.000   0.000   0.000   0.000   0.000   0.000   0.000   0.000   0.000   0.000   0.000   0.000
  0.000   0.000   0.000   0.000   0.000   0.000   0.000   0.000   0.000   0.000   0.000   0.000   0.000   0.000   0.000   0.000


------------------------ aborting loop because EDIFF is reached ----------------------------------------





 total charge

# of ion       s       p       d       tot
------------------------------------------
    1        0.449   0.282   9.191   9.922
    2        0.448   0.285   9.187   9.920
    3        0.448   0.285   9.187   9.920
    4        0.448   0.285   9.187   9.920
    5        0.450   0.285   9.183   9.918
    6        0.448   0.285   9.187   9.920
    7        0.448   0.285   9.187   9.920
    8        0.448   0.285   9.186   9.920
    9        0.445   0.285   9.186   9.917
   10        0.444   0.370   9.179   9.993
   11        0.441   0.370   9.181   9.993
   12        0.447   0.369   9.178   9.994
   13        0.441   0.371   9.181   9.993
   14        0.439   0.371   9.182   9.992
   15        0.439   0.367   9.182   9.988
   16        0.447   0.369   9.178   9.994
   17        0.439   0.366   9.182   9.988
   18        0.437   0.372   9.177   9.986
   19        0.442   0.370   9.181   9.993
   20        0.465   0.408   9.159  10.032
   21        0.468   0.402   9.161  10.031
   22        0.430   0.372   9.183   9.984
   23        0.467   0.403   9.161  10.031
   24        0.429   0.369   9.185   9.983
   25        0.437   0.375   9.176   9.988
   26        0.442   0.370   9.181   9.993
   27        0.430   0.372   9.183   9.984
   28        0.423   0.354   9.188   9.965
   29        0.415   0.350   9.192   9.957
   30        0.446   0.307   9.192   9.945
   31        0.415   0.347   9.193   9.954
   32        0.440   0.301   9.203   9.944
   33        0.446   0.307   9.192   9.945
   34        0.440   0.301   9.204   9.944
   35        0.447   0.287   9.195   9.930
   36        0.728   0.734   6.042   7.505
   37        1.606   3.266   0.000   4.872
   38        1.549   3.533   0.000   5.082
   39        0.608   0.120   0.000   0.728
--------------------------------------------------
tot         19.983  19.533 327.474 366.990
 
    CHARGE:  cpu time    0.7680: real time    0.7681
    FORLOC:  cpu time    0.0086: real time    0.0086
    FORNL :  cpu time    4.2172: real time    4.2174
    STRESS:  cpu time   12.6297: real time   12.6302
    FORCOR:  cpu time    0.0299: real time    0.0300
    FORHAR:  cpu time    0.0130: real time    0.0132
    OFIELD:  cpu time    0.0002: real time    0.0002

  FORCE on cell =-STRESS in cart. coord.  units (eV):
  Direction    XX          YY          ZZ          XY          YZ          ZX
  --------------------------------------------------------------------------------------
  Alpha Z   782.98316   782.98316   782.98316
  Ewald  259665.79294259614.47171************    44.33831    16.29219    26.94115
  Hartree272507.51087272471.26965************    32.16634    13.08978    23.00083
  E(xc)   -2347.60121 -2347.61021 -2350.45721     0.00503     0.00771     0.00650
  Local  ************************545328.69893   -76.65444   -29.23673   -49.80335
  n-local  -825.34898  -825.36495  -832.45607     0.00755     0.33788     0.45931
  augment  3339.00735  3339.15593  3350.09657    -0.09670    -0.26668    -0.39488
  Kinetic  3533.63751  3532.80519  3504.98304     0.79055    -0.24162    -0.28551
  Fock        0.00000     0.00000     0.00000     0.00000     0.00000     0.00000
  -------------------------------------------------------------------------------------
  Total       0.20579    -0.46966     1.64986     0.55664    -0.01747    -0.07593
  in kB       0.25323    -0.57792     2.03018     0.68495    -0.02150    -0.09344
  external pressure =        0.57 kB  Pullay stress =        0.00 kB


 VOLUME and BASIS-vectors are now :
 -----------------------------------------------------------------------------
  energy-cutoff  :      500.00
  volume of cell :     1302.03
      direct lattice vectors                 reciprocal lattice vectors
     7.696786404  0.000000000  0.000000000     0.129924354 -0.075011849  0.000000000
     3.848392758  6.665612809  0.000000000     0.000000000  0.150023716  0.000000000
     0.000000000  0.000000000 25.378895643     0.000000000  0.000000000  0.039402818

  length of vectors
     7.696786404  7.696786404 25.378895643     0.150023716  0.150023716  0.039402818


 FORCES acting on ions
    electron-ion (+dipol)            ewald-force                    non-local-force                 convergence-correction
 -----------------------------------------------------------------------------------------------
   0.309E+00 0.172E+00 0.391E+04   -.233E+00 -.131E+00 -.391E+04   -.708E-01 -.399E-01 -.265E+01   -.165E-02 0.379E-03 -.412E+00
   -.611E+00 0.246E+00 0.391E+04   0.271E+00 -.309E+00 -.391E+04   0.198E+00 0.772E-01 -.182E+01   0.145E+00 0.393E-02 -.432E+00
   0.291E+00 0.110E+00 0.391E+04   -.385E-01 -.240E+00 -.391E+04   -.122E+00 0.153E+00 -.182E+01   -.134E+00 -.962E-02 -.453E+00
   -.948E-01 -.649E+00 0.391E+04   -.135E+00 0.389E+00 -.391E+04   0.171E+00 0.131E+00 -.182E+01   0.762E-01 0.122E+00 -.435E+00
   -.173E+00 -.994E-01 0.391E+04   0.173E+00 0.978E-01 -.391E+04   0.328E-01 0.211E-01 -.172E+01   -.168E-01 -.105E-01 -.343E+00
   0.221E+00 -.352E+00 0.391E+04   -.378E-01 0.220E+00 -.391E+04   -.168E+00 -.270E-01 -.173E+01   -.424E-01 0.148E+00 -.400E+00
   0.247E+00 0.199E+00 0.391E+04   -.230E+00 0.868E-01 -.391E+04   0.699E-01 -.184E+00 -.183E+01   -.766E-01 -.110E+00 -.451E+00
   -.201E+00 0.368E+00 0.391E+04   0.174E+00 -.146E+00 -.391E+04   -.105E+00 -.131E+00 -.173E+01   0.110E+00 -.111E+00 -.396E+00
   0.268E-01 0.174E-01 0.391E+04   0.567E-01 0.308E-01 -.391E+04   -.149E-01 -.106E-01 -.230E+01   -.629E-01 -.347E-01 -.479E+00
   0.330E+01 0.189E+01 0.139E+04   -.281E+01 -.160E+01 -.139E+04   -.569E+00 -.325E+00 -.128E+01   0.412E-01 0.229E-01 0.559E-02
   -.183E+01 0.127E+01 0.138E+04   0.172E+01 -.161E+01 -.138E+04   0.123E+00 0.200E+00 -.212E+00   -.517E-02 0.864E-01 -.293E-01
   -.149E+01 0.191E+01 0.139E+04   0.109E+01 -.172E+01 -.139E+04   0.464E+00 -.303E+00 -.114E+01   -.317E-01 0.980E-01 0.153E-01
   0.203E+00 -.220E+01 0.138E+04   -.550E+00 0.228E+01 -.138E+04   0.234E+00 0.131E-02 -.206E+00   0.758E-01 -.490E-01 -.308E-01
   -.916E+00 -.505E+00 0.138E+04   0.131E+01 0.735E+00 -.138E+04   -.320E+00 -.185E+00 -.284E-01   -.287E-01 -.155E-01 0.160E-01
   0.806E+00 -.200E+01 0.139E+04   -.765E+00 0.177E+01 -.138E+04   -.290E-01 0.160E+00 -.761E+00   -.355E-01 0.417E-01 -.720E-02
   0.926E+00 -.227E+01 0.139E+04   -.965E+00 0.182E+01 -.139E+04   -.284E-01 0.560E+00 -.115E+01   0.698E-01 -.787E-01 0.167E-01
   -.135E+01 0.170E+01 0.139E+04   0.117E+01 -.156E+01 -.138E+04   0.117E+00 -.104E+00 -.760E+00   0.201E-01 -.486E-01 -.635E-02
   0.422E+00 0.241E+00 0.138E+04   -.210E+00 -.116E+00 -.138E+04   -.115E+00 -.699E-01 -.862E+00   -.717E-01 -.413E-01 -.669E-01
   0.131E+02 -.954E+01 -.114E+04   -.129E+02 0.942E+01 0.114E+04   -.117E+00 0.923E-01 0.254E-01   -.237E-01 -.135E-01 0.571E+00
   -.359E+02 -.208E+02 -.114E+04   0.368E+02 0.213E+02 0.114E+04   -.983E+00 -.563E+00 -.868E+00   0.122E-01 0.520E-02 0.594E+00
   0.230E+02 -.143E+02 -.116E+04   -.245E+02 0.149E+02 0.116E+04   0.156E+01 -.733E+00 -.485E+00   -.294E-01 0.915E-01 0.571E+00
   -.164E+02 -.816E+00 -.117E+04   0.157E+02 0.114E+01 0.117E+04   0.762E+00 -.438E+00 0.893E+00   -.485E-01 -.512E-01 0.562E+00
   -.879E+00 0.272E+02 -.116E+04   0.694E+00 -.288E+02 0.116E+04   0.136E+00 0.171E+01 -.471E+00   0.800E-01 -.436E-01 0.574E+00
   0.172E+02 0.101E+02 -.117E+04   -.165E+02 -.968E+01 0.117E+04   -.716E+00 -.418E+00 0.132E+01   -.240E-01 -.113E-01 0.510E+00
   0.108E+02 0.610E+01 -.117E+04   -.106E+02 -.596E+01 0.116E+04   -.134E+00 -.726E-01 0.405E+00   0.612E-01 0.305E-01 0.576E+00
   -.169E+01 0.159E+02 -.114E+04   0.166E+01 -.158E+02 0.114E+04   0.207E-01 -.139E+00 0.228E-01   -.244E-01 -.187E-01 0.571E+00
   -.906E+01 -.138E+02 -.117E+04   0.901E+01 0.131E+02 0.117E+04   0.108E-01 0.871E+00 0.867E+00   -.711E-01 -.152E-01 0.560E+00
   0.136E+03 0.770E+02 -.356E+04   -.139E+03 -.789E+02 0.356E+04   0.267E+01 0.152E+01 0.260E+01   0.364E-01 0.207E-01 0.567E+00
   -.143E+03 0.584E+02 -.359E+04   0.146E+03 -.609E+02 0.358E+04   -.283E+01 0.167E+01 0.330E+01   0.741E-01 0.123E+00 0.629E+00
   0.128E+02 0.262E+01 -.371E+04   -.122E+02 -.419E+01 0.371E+04   -.385E+00 0.100E+01 0.231E+01   -.991E-01 0.116E+00 0.659E+00
   -.194E+02 -.152E+03 -.359E+04   0.186E+02 0.155E+03 0.359E+04   0.811E-01 -.333E+01 0.342E+01   0.145E+00 0.422E-02 0.632E+00
   0.498E+02 -.294E+02 -.370E+04   -.493E+02 0.304E+02 0.369E+04   -.135E+00 -.807E+00 0.351E+01   -.137E+00 0.466E-01 0.580E+00
   0.961E+01 0.931E+01 -.371E+04   -.107E+02 -.789E+01 0.371E+04   0.701E+00 -.884E+00 0.235E+01   0.521E-01 -.146E+00 0.659E+00
   -.109E+01 0.586E+02 -.370E+04   0.222E+01 -.587E+02 0.369E+04   -.778E+00 0.325E+00 0.357E+01   -.290E-01 -.143E+00 0.577E+00
   -.887E+01 -.475E+01 -.372E+04   0.865E+01 0.461E+01 0.371E+04   0.261E+00 0.160E+00 0.204E+01   -.315E-01 -.170E-01 0.574E+00
   -.194E+02 -.986E+01 -.245E+04   0.196E+02 0.995E+01 0.245E+04   0.141E+00 0.900E-01 0.242E+01   0.693E-02 0.624E-02 0.550E+00
   -.303E+02 -.176E+02 -.251E+04   0.310E+02 0.182E+02 0.254E+04   -.641E+00 -.545E+00 -.319E+02   -.221E-01 -.987E-02 -.780E-01
   0.104E+02 0.526E+01 -.254E+04   -.677E+01 -.281E+01 0.252E+04   -.363E+01 -.246E+01 0.216E+02   0.293E-01 0.196E-01 0.109E+00
   0.711E+01 0.464E+01 -.477E+03   -.751E+01 -.492E+01 0.485E+03   0.400E+00 0.280E+00 -.817E+01   0.599E-02 0.368E-02 -.659E-02
 -----------------------------------------------------------------------------------------------
   0.374E+01 0.271E+01 0.840E+01   -.160E-13 0.398E-12 -.750E-11   -.373E+01 -.275E+01 -.151E+02   -.594E-02 0.113E-01 0.665E+01
 
 
 POSITION                                       TOTAL-FORCE (eV/Angst)
 -----------------------------------------------------------------------------------
      0.00000      0.00000      5.37156         0.003552      0.002353     -0.034043
      2.56560      0.00000      5.37156         0.003435      0.018629      0.068090
      5.13119      0.00000      5.37156        -0.003407      0.013980      0.071982
      1.28280      2.22187      5.37156         0.017184     -0.005851      0.068345
      3.84839      2.22187      5.37156         0.015925      0.009588      0.028181
      6.41399      2.22187      5.37156        -0.027483     -0.009328      0.061657
      2.56560      4.44374      5.37156         0.010052     -0.008615      0.072337
      5.13119      4.44374      5.37156        -0.022547     -0.018099      0.061255
      7.69679      4.44374      5.37156         0.005714      0.003550      0.047396
      1.28280      0.74062      7.46636        -0.029602     -0.015989     -0.115611
      3.84839      0.74062      7.46636         0.003797     -0.044631     -0.089545
      6.41399      0.74062      7.46636         0.029508     -0.013619     -0.094742
      2.56560      2.96249      7.46636        -0.036862      0.026160     -0.089333
      5.13119      2.96249      7.46636         0.049809      0.029372     -0.063706
      7.69679      2.96249      7.46636        -0.023439     -0.024958     -0.032275
      3.84839      5.18437      7.46636         0.002156      0.033064     -0.093970
      6.41399      5.18437      7.46636        -0.034242     -0.006598     -0.032952
      8.97958      5.18437      7.46636         0.025782      0.014837      0.059854
      7.69679      1.48657      9.56400         0.014688     -0.042454     -0.034611
      2.55408      1.47460      9.52990        -0.092262     -0.053104     -0.158229
      5.14271      1.47460      9.52990         0.066885     -0.001043     -0.179785
      8.97350      3.70663      9.56526         0.057053     -0.164317      0.084072
      3.84839      3.71642      9.52990         0.031805      0.056262     -0.173512
      6.42007      3.70663      9.56526        -0.028982     -0.015360      0.050183
     10.25777      5.92233      9.56400         0.157971      0.092241      0.121815
      5.13580      5.92233      9.56400        -0.029151      0.034444     -0.036814
      7.69679      5.91797      9.56526        -0.115429      0.134657      0.085924
      0.00000      0.00000     11.64184        -0.639976     -0.365463      0.050839
      2.56182      0.00242     11.67254         0.241765     -0.689341     -0.075742
      5.13496      0.00242     11.67254         0.177424     -0.452294     -0.333910
      1.28301      2.21740     11.67254        -0.485748      0.530555     -0.065606
      6.41378      2.21740     11.67254         0.283681      0.211554     -0.438120
      2.56958      4.44580     11.67254        -0.310207      0.389025     -0.331742
      5.12721      4.44580     11.67254         0.328031      0.139446     -0.440048
      7.69679      4.44374     11.64035         0.011309      0.003820     -0.030342
      3.84839      2.22187     11.57579         0.333098      0.183234      2.068563
      3.91571      2.27292     13.33070        -0.000251     -0.000704     -0.036347
      1.19023      0.67511     13.07140         0.006260      0.003816     -0.016104
      1.13903      0.63937     14.04247         0.002701      0.001178     -0.003407
 -----------------------------------------------------------------------------------
    total drift:                               -0.002264     -0.025025     -0.063601


--------------------------------------------------------------------------------------------------------



  FREE ENERGIE OF THE ION-ELECTRON SYSTEM (eV)
  ---------------------------------------------------
  free  energy   TOTEN  =      -148.89987679 eV

  energy  without entropy=     -148.89987679  energy(sigma->0) =     -148.89987679
 


--------------------------------------------------------------------------------------------------------


    POTLOK:  cpu time    0.0303: real time    0.0303


--------------------------------------------------------------------------------------------------------


 stress matrix after NEB project (eV)
      0.20579      0.55664     -0.07593
      0.55664     -0.46966     -0.01747
     -0.07593     -0.01747      1.64986
  FORCES: max atom, RMS     0.036354    0.006514
  FORCE total and by dimension    0.040682    0.036347
  Stress total and by dimension    1.901787    1.649858
     LOOP+:  cpu time  232.2220: real time  232.2398
 -----------------------------------------------------------------------------
|                                                                             |
|           W    W    AA    RRRRR   N    N  II  N    N   GGGG   !!!           |
|           W    W   A  A   R    R  NN   N  II  NN   N  G    G  !!!           |
|           W    W  A    A  R    R  N N  N  II  N N  N  G       !!!           |
|           W WW W  AAAAAA  RRRRR   N  N N  II  N  N N  G  GGG   !            |
|           WW  WW  A    A  R   R   N   NN  II  N   NN  G    G                |
|           W    W  A    A  R    R  N    N  II  N    N   GGGG   !!!           |
|                                                                             |
|     Tetrahedron method does not include variations of the Fermi             |
|     occupations, so forces and stress will be inaccurate. We suggest        |
|     using a different smearing scheme ISMEAR = 1 or 2 for metals in         |
|     relaxations.                                                            |
|                                                                             |
 -----------------------------------------------------------------------------

    4ORBIT:  cpu time    0.0000: real time    0.0000



 total charge

# of ion       s       p       d       tot
------------------------------------------
    1        0.449   0.282   9.191   9.922
    2        0.448   0.285   9.187   9.920
    3        0.448   0.285   9.187   9.920
    4        0.448   0.285   9.187   9.920
    5        0.450   0.285   9.183   9.918
    6        0.448   0.285   9.187   9.920
    7        0.448   0.285   9.187   9.920
    8        0.448   0.285   9.186   9.920
    9        0.445   0.285   9.186   9.917
   10        0.444   0.370   9.179   9.993
   11        0.441   0.370   9.181   9.993
   12        0.447   0.369   9.178   9.994
   13        0.441   0.371   9.181   9.993
   14        0.439   0.371   9.182   9.992
   15        0.439   0.367   9.182   9.988
   16        0.447   0.369   9.178   9.994
   17        0.439   0.366   9.182   9.988
   18        0.437   0.372   9.177   9.986
   19        0.442   0.370   9.181   9.993
   20        0.465   0.408   9.159  10.032
   21        0.468   0.402   9.161  10.031
   22        0.430   0.372   9.183   9.984
   23        0.467   0.403   9.161  10.031
   24        0.429   0.369   9.185   9.983
   25        0.437   0.375   9.176   9.988
   26        0.442   0.370   9.181   9.993
   27        0.430   0.372   9.183   9.984
   28        0.423   0.354   9.188   9.965
   29        0.415   0.350   9.192   9.957
   30        0.446   0.307   9.192   9.945
   31        0.415   0.347   9.193   9.954
   32        0.440   0.301   9.203   9.944
   33        0.446   0.307   9.192   9.945
   34        0.440   0.301   9.204   9.944
   35        0.447   0.287   9.195   9.930
   36        0.728   0.734   6.042   7.505
   37        1.606   3.266   0.000   4.872
   38        1.549   3.533   0.000   5.082
   39        0.608   0.120   0.000   0.728
--------------------------------------------------
tot         19.983  19.533 327.474 366.990
 
 BZINTS: Fermi energy:   -0.503369;  406.000000 electrons
         Band energy:-0.144748E+04;  BLOECHL correction:   -0.036436

 total amount of memory used by VASP MPI-rank0   232066. kBytes
=======================================================================

   base      :      30000. kBytes
   nonlr-proj:      17586. kBytes
   fftplans  :       3394. kBytes
   grid      :      15015. kBytes
   one-center:        606. kBytes
   wavefun   :     165465. kBytes
 
  
  
 General timing and accounting informations for this job:
 ========================================================
  
                  Total CPU time used (sec):      249.643
                            User time (sec):      240.889
                          System time (sec):        8.754
                         Elapsed time (sec):      250.037
  
                   Maximum memory used (kb):      514140.
                   Average memory used (kb):          N/A
  
                          Minor page faults:       192660
                          Major page faults:            0
                 Voluntary context switches:         6620
