 vasp.6.2.0 18Jan21 (build Jun 12 2021 23:27:24) complex                        
  
 executed on             LinuxIFC date 2022.05.27  05:51:52
 running on   16 total cores
 distrk:  each k-point on   16 cores,    1 groups
 distr:  one band on NCORE=   1 cores,   16 groups


--------------------------------------------------------------------------------------------------------


 INCAR:
   ISMEAR = -5
   SIGMA = 0.1
   ISPIN = 1
   EDIFF = 1.d-5
   EDIFFG = -0.01
   NSW = 0
   NELM = 150
   ENCUT = 500
   ISIF = 2
   IBRION = 2
   LREAL = Auto
   ALGO = Fast
   ICHARG = 11
   LORBIT = 10
   LCHARG = .F.
   LWAVE = .F.

 POTCAR:    PAW_PBE Ag 02Apr2005                  
 POTCAR:    PAW_PBE Re 17Jan2003                  
 POTCAR:    PAW_PBE H 15Jun2001                   
 -----------------------------------------------------------------------------
|                                                                             |
|           W    W    AA    RRRRR   N    N  II  N    N   GGGG   !!!           |
|           W    W   A  A   R    R  NN   N  II  NN   N  G    G  !!!           |
|           W    W  A    A  R    R  N N  N  II  N N  N  G       !!!           |
|           W WW W  AAAAAA  RRRRR   N  N N  II  N  N N  G  GGG   !            |
|           WW  WW  A    A  R   R   N   NN  II  N   NN  G    G                |
|           W    W  A    A  R    R  N    N  II  N    N   GGGG   !!!           |
|                                                                             |
|     For optimal performance we recommend to set                             |
|       NCORE = 2 up to number-of-cores-per-socket                            |
|     NCORE specifies how many cores store one orbital (NPAR=cpu/NCORE).      |
|     This setting can greatly improve the performance of VASP for DFT.       |
|     The default, NCORE=1 might be grossly inefficient on modern             |
|     multi-core architectures or massively parallel machines. Do your        |
|     own testing! More info at https://www.vasp.at/wiki/index.php/NCORE      |
|     Unfortunately you need to use the default for GW and RPA                |
|     calculations (for HF NCORE is supported but not extensively tested      |
|     yet).                                                                   |
|                                                                             |
 -----------------------------------------------------------------------------

 POTCAR:    PAW_PBE Ag 02Apr2005                  
   VRHFIN =Ag : s1 d10                                                                              
   LEXCH  = PE                                                                                      
   EATOM  =  1037.2675 eV,   76.2370 Ry                                                             
                                                                                                    
   TITEL  = PAW_PBE Ag 02Apr2005                                                                    
   LULTRA =        F    use ultrasoft PP ?                                                          
   IUNSCR =        1    unscreen: 0-lin 1-nonlin 2-no                                               
   RPACOR =    2.000    partial core radius                                                         
   POMASS =  107.868; ZVAL   =   11.000    mass and valenz                                          
   RCORE  =    2.500    outmost cutoff radius                                                       
   RWIGS  =    2.840; RWIGS  =    1.503    wigner-seitz radius (au A)                               
   ENMAX  =  249.844; ENMIN  =  187.383 eV                                                          
   ICORE  =        3    local potential                                                             
   LCOR   =        T    correct aug charges                                                         
   LPAW   =        T    paw PP                                                                      
   EAUG   =  412.496                                                                                
   DEXC   =    0.000                                                                                
   RMAX   =    2.560    core radius for proj-oper                                                   
   RAUG   =    1.300    factor for augmentation sphere                                              
   RDEP   =    2.576    radius for radial grids                                                     
   RDEPT  =    2.072    core radius for aug-charge                                                  
                                                                                                    
   Atomic configuration                                                                             
   12 entries                                                                                       
     n  l   j            E        occ.                                                              
     1  0  0.50    -25324.9161   2.0000                                                             
     2  0  0.50     -3728.5341   2.0000                                                             
     2  1  1.50     -3344.0404   6.0000                                                             
     3  0  0.50      -683.5581   2.0000                                                             
     3  1  1.50      -557.3225   6.0000                                                             
     3  2  2.50      -358.3853  10.0000                                                             
     4  0  0.50       -95.0341   2.0000                                                             
     4  1  1.50       -58.5511   6.0000                                                             
     4  2  2.50        -7.4440  10.0000                                                             
     5  0  0.50        -4.4045   1.0000                                                             
     5  1  0.50        -1.3606   0.0000                                                             
     4  3  2.50        -1.3606   0.0000                                                             
   Description                                                                                      
     l       E           TYP  RCUT    TYP  RCUT                                                     
     2     -7.4439781     23  2.400                                                                 
     2     -8.8045607     23  2.400                                                                 
     0     -4.4044681     23  2.400                                                                 
     0      1.9520038     23  2.400                                                                 
     1     -1.3605826     23  2.500                                                                 
     1     27.2116520     23  2.500                                                                 
     3     -4.0817478     23  2.400                                                                 
  local pseudopotential read in
  partial core-charges read in
  partial kinetic energy density read in
  atomic valenz-charges read in
  non local Contribution for L=           2  read in
    real space projection operators read in
  non local Contribution for L=           2  read in
    real space projection operators read in
  non local Contribution for L=           0  read in
    real space projection operators read in
  non local Contribution for L=           0  read in
    real space projection operators read in
  non local Contribution for L=           1  read in
    real space projection operators read in
  non local Contribution for L=           1  read in
    real space projection operators read in
    PAW grid and wavefunctions read in
 
   number of l-projection  operators is LMAX  =           6
   number of lm-projection operators is LMMAX =          18
 
 POTCAR:    PAW_PBE Re 17Jan2003                  
   VRHFIN =Re: 5p6s5d                                                                               
   LEXCH  = PE                                                                                      
   EATOM  =   299.6589 eV,   22.0243 Ry                                                             
                                                                                                    
   TITEL  = PAW_PBE Re 17Jan2003                                                                    
   LULTRA =        F    use ultrasoft PP ?                                                          
   IUNSCR =        1    unscreen: 0-lin 1-nonlin 2-no                                               
   RPACOR =    2.250    partial core radius                                                         
   POMASS =  186.207; ZVAL   =    7.000    mass and valenz                                          
   RCORE  =    2.700    outmost cutoff radius                                                       
   RWIGS  =    2.710; RWIGS  =    1.434    wigner-seitz radius (au A)                               
   ENMAX  =  226.216; ENMIN  =  169.662 eV                                                          
   RCLOC  =    2.105    cutoff for local pot                                                        
   LCOR   =        T    correct aug charges                                                         
   LPAW   =        T    paw PP                                                                      
   EAUG   =  370.280                                                                                
   DEXC   =    0.000                                                                                
   RMAX   =    2.768    core radius for proj-oper                                                   
   RAUG   =    1.300    factor for augmentation sphere                                              
   RDEP   =    2.719    radius for radial grids                                                     
   RDEPT  =    2.204    core radius for aug-charge                                                  
                                                                                                    
   Atomic configuration                                                                             
   16 entries                                                                                       
     n  l   j            E        occ.                                                              
     1  0  0.50    -71633.0043   2.0000                                                             
     2  0  0.50    -12416.1215   2.0000                                                             
     2  1  1.50    -10832.4223   6.0000                                                             
     3  0  0.50     -2872.9330   2.0000                                                             
     3  1  1.50     -2406.1720   6.0000                                                             
     3  2  2.50     -1877.8916  10.0000                                                             
     4  0  0.50      -597.8463   2.0000                                                             
     4  1  1.50      -444.8000   6.0000                                                             
     4  2  2.50      -252.9938  10.0000                                                             
     4  3  3.50       -40.1243  14.0000                                                             
     5  0  0.50       -83.0609   2.0000                                                             
     5  1  1.50       -44.9781   6.0000                                                             
     5  2  2.50        -4.0055   6.0000                                                             
     6  0  0.50        -5.2962   1.0000                                                             
     6  1  1.50        -2.7212   0.0000                                                             
     5  3  2.50        -1.3606   0.0000                                                             
   Description                                                                                      
     l       E           TYP  RCUT    TYP  RCUT                                                     
     2     -4.0054887     23  2.500                                                                 
     2     -2.6236470     23  2.500                                                                 
     0     -5.2961782     23  2.600                                                                 
     0      4.1641227     23  2.600                                                                 
     1     -2.7211652     23  2.700                                                                 
     1     27.2116520     23  2.700                                                                 
  local pseudopotential read in
  partial core-charges read in
  partial kinetic energy density read in
  kinetic energy density of atom read in
  atomic valenz-charges read in
  non local Contribution for L=           2  read in
    real space projection operators read in
  non local Contribution for L=           2  read in
    real space projection operators read in
  non local Contribution for L=           0  read in
    real space projection operators read in
  non local Contribution for L=           0  read in
    real space projection operators read in
  non local Contribution for L=           1  read in
    real space projection operators read in
  non local Contribution for L=           1  read in
    real space projection operators read in
    PAW grid and wavefunctions read in
 
   number of l-projection  operators is LMAX  =           6
   number of lm-projection operators is LMMAX =          18
 
 POTCAR:    PAW_PBE H 15Jun2001                   
   VRHFIN =H: ultrasoft test                                                                        
   LEXCH  = PE                                                                                      
   EATOM  =    12.4884 eV,    0.9179 Ry                                                             
                                                                                                    
   TITEL  = PAW_PBE H 15Jun2001                                                                     
   LULTRA =        F    use ultrasoft PP ?                                                          
   IUNSCR =        0    unscreen: 0-lin 1-nonlin 2-no                                               
   RPACOR =    0.000    partial core radius                                                         
   POMASS =    1.000; ZVAL   =    1.000    mass and valenz                                          
   RCORE  =    1.100    outmost cutoff radius                                                       
   RWIGS  =    0.700; RWIGS  =    0.370    wigner-seitz radius (au A)                               
   ENMAX  =  250.000; ENMIN  =  200.000 eV                                                          
   RCLOC  =    0.701    cutoff for local pot                                                        
   LCOR   =        T    correct aug charges                                                         
   LPAW   =        T    paw PP                                                                      
   EAUG   =  400.000                                                                                
   RMAX   =    1.123    core radius for proj-oper                                                   
   RAUG   =    1.200    factor for augmentation sphere                                              
   RDEP   =    1.112    radius for radial grids                                                     
   RDEPT  =    0.926    core radius for aug-charge                                                  
                                                                                                    
   Atomic configuration                                                                             
    2 entries                                                                                       
     n  l   j            E        occ.                                                              
     1  0  0.50        -6.4927   1.0000                                                             
     2  1  0.50        -3.4015   0.0000                                                             
   Description                                                                                      
     l       E           TYP  RCUT    TYP  RCUT                                                     
     0     -6.4927494     23  1.100                                                                 
     0      6.8029130     23  1.100                                                                 
     1     -4.0817478     23  1.100                                                                 
  local pseudopotential read in
  atomic valenz-charges read in
  non local Contribution for L=           0  read in
    real space projection operators read in
  non local Contribution for L=           0  read in
    real space projection operators read in
  non local Contribution for L=           1  read in
    real space projection operators read in
    PAW grid and wavefunctions read in
 
   number of l-projection  operators is LMAX  =           3
   number of lm-projection operators is LMMAX =           5
 
 Optimization of the real space projectors (new method)

 maximal supplied QI-value         = 15.12
 optimisation between [QCUT,QGAM] = [ 11.34, 22.83] = [ 36.00,145.93] Ry 
 Optimized for a Real-space Cutoff    1.43 Angstroem

   l    n(q)    QCUT    max X(q) W(low)/X(q) W(high)/X(q)  e(spline) 
   2      9    11.338    53.897    0.16E-03    0.20E-03    0.28E-06
   2      9    11.338    52.416    0.16E-03    0.20E-03    0.29E-06
   0     10    11.338   122.045    0.31E-04    0.76E-04    0.15E-06
   0     10    11.338    73.629    0.30E-04    0.72E-04    0.15E-06
   1      9    11.338    15.255    0.20E-03    0.19E-04    0.17E-06
   1      9    11.338     9.562    0.16E-03    0.15E-04    0.14E-06
 Optimization of the real space projectors (new method)

 maximal supplied QI-value         = 13.98
 optimisation between [QCUT,QGAM] = [ 11.33, 22.79] = [ 35.93,145.49] Ry 
 Optimized for a Real-space Cutoff    1.56 Angstroem

   l    n(q)    QCUT    max X(q) W(low)/X(q) W(high)/X(q)  e(spline) 
   2     10    11.327   884.633    0.22E-03    0.51E-03    0.88E-06
   2     10    11.327   796.723    0.22E-03    0.51E-03    0.88E-06
   0     11    11.327    65.348    0.44E-04    0.11E-03    0.75E-06
   0     11    11.327    39.642    0.40E-04    0.10E-03    0.69E-06
   1     10    11.327    13.988    0.15E-03    0.10E-03    0.19E-06
   1     10    11.327     8.682    0.11E-03    0.76E-04    0.14E-06
 Optimization of the real space projectors (new method)

 maximal supplied QI-value         = 34.20
 optimisation between [QCUT,QGAM] = [ 11.29, 22.57] = [ 35.68,142.71] Ry 
 Optimized for a Real-space Cutoff    1.16 Angstroem

   l    n(q)    QCUT    max X(q) W(low)/X(q) W(high)/X(q)  e(spline) 
   0      8    11.287    19.460    0.40E-03    0.73E-03    0.16E-06
   0      8    11.287    12.209    0.38E-03    0.70E-03    0.15E-06
   1      7    11.287     4.655    0.22E-03    0.25E-04    0.22E-06
  PAW_PBE Ag 02Apr2005                  :
 energy of atom  1       EATOM=-1037.2675
 kinetic energy error for atom=    0.0052 (will be added to EATOM!!)
  PAW_PBE Re 17Jan2003                  :
 energy of atom  2       EATOM= -299.6589
 kinetic energy error for atom=    0.0023 (will be added to EATOM!!)
  PAW_PBE H 15Jun2001                   :
 energy of atom  3       EATOM=  -12.4884
 kinetic energy error for atom=    0.0020 (will be added to EATOM!!)
 
 
 POSCAR: Ag-Re-H2
  positions in direct lattice
  velocities in cartesian coordinates
 exchange correlation table for  LEXCH =        8
   RHO(1)=    0.500       N(1)  =     2000
   RHO(2)=  100.500       N(2)  =     4000

 VTST: version 3.2, (02/03/18)

 CHAIN: initializing optimizer
 
 OPT: Using VASP Conjugate-Gradient optimizer
 CHAIN: Read ICHAIN            0
 
 POSCAR: Ag-Re-H2
  positions in direct lattice
  velocities in cartesian coordinates
 


--------------------------------------------------------------------------------------------------------


 ion  position               nearest neighbor table
   1  0.000  0.000  0.222-   2 2.93   8 2.93   7 2.93   6 2.93   4 2.93  12 2.93  16 2.93  10 2.93
                             3 2.93
   2  0.333  0.000  0.222-   1 2.93   8 2.93   9 2.93   3 2.93   4 2.93   5 2.93  10 2.93  17 2.93
                            11 2.93
   3  0.667  0.000  0.222-   9 2.93   2 2.93   5 2.93  11 2.93   7 2.93  18 2.93   1 2.93   6 2.93
                            12 2.93
   4  0.000  0.333  0.222-   5 2.93   6 2.93   2 2.93   1 2.93   7 2.93  13 2.93  15 2.93   9 2.93
                            10 2.93
   5  0.333  0.333  0.222-   4 2.93   3 2.93   7 2.93   2 2.93   8 2.93  14 2.93  13 2.93  11 2.93
                             6 2.93
   6  0.667  0.333  0.222-   4 2.93   9 2.93   1 2.93  15 2.93   8 2.93  12 2.93   3 2.93   5 2.93
                            14 2.93
   7  0.000  0.667  0.222-   8 2.93   1 2.93   5 2.93   3 2.93   4 2.93  16 2.93  18 2.93  13 2.93
                             9 2.93
   8  0.333  0.667  0.222-   7 2.93   1 2.93   2 2.93   9 2.93   5 2.93  16 2.93   6 2.93  17 2.93
                            14 2.93
   9  0.667  0.667  0.222-   3 2.93   2 2.93   8 2.93   6 2.93  17 2.93   4 2.93  15 2.93   7 2.93
                            18 2.93
  10  0.111  0.111  0.323-  20 2.89  12 2.93  16 2.93  15 2.93  17 2.93  13 2.93  11 2.93   2 2.93
                             1 2.93   4 2.93  19 2.93  26 2.93
  11  0.444  0.111  0.323-  21 2.89  20 2.89  27 2.93  14 2.93  17 2.93  18 2.93   3 2.93  12 2.93
                            13 2.93  10 2.93   5 2.93   2 2.93
  12  0.778  0.111  0.323-  21 2.89  10 2.93  16 2.93  18 2.93  15 2.93  11 2.93   1 2.93  14 2.93
                             6 2.93   3 2.93  25 2.93  19 2.93
  13  0.111  0.444  0.323-  20 2.89  23 2.89  22 2.93  15 2.93  14 2.93  18 2.93  10 2.93  11 2.93
                            16 2.93   4 2.93   5 2.93   7 2.93
  14  0.444  0.444  0.323-  23 2.89  21 2.89  24 2.93  13 2.93  11 2.93  16 2.93   5 2.93  12 2.93
                            17 2.93   8 2.93  15 2.93   6 2.93
  15  0.778  0.444  0.323-  24 2.92  22 2.92  19 2.93  13 2.93  10 2.93  12 2.93  17 2.93  18 2.93
                             4 2.93   6 2.93   9 2.93  14 2.93
  16  0.111  0.778  0.323-  23 2.89  18 2.93  12 2.93  10 2.93  14 2.93  17 2.93  13 2.93   7 2.93
                             8 2.93   1 2.93  26 2.93  25 2.93
  17  0.444  0.778  0.323-  27 2.92  24 2.92  26 2.93  11 2.93  10 2.93   9 2.93  18 2.93  15 2.93
                            16 2.93   2 2.93  14 2.93   8 2.93
  18  0.778  0.778  0.323-  22 2.92  27 2.92  25 2.93  16 2.93  12 2.93  13 2.93  11 2.93  17 2.93
                            15 2.93   7 2.93   3 2.93   9 2.93
  19  0.889  0.223  0.423-  28 2.91  24 2.93  22 2.93  15 2.93  20 2.93  21 2.93  10 2.93  12 2.93
                            26 2.94  25 2.94  32 2.97  31 2.97
  20  0.222  0.222  0.421-  36 2.76  10 2.89  13 2.89  11 2.89  19 2.93  26 2.93  21 2.93  23 2.93
                            27 2.94  22 2.94  31 2.94  29 2.94
  21  0.556  0.222  0.421-  36 2.76  12 2.89  11 2.89  14 2.89  25 2.93  19 2.93  20 2.93  23 2.93
                            27 2.94  24 2.94  30 2.94  32 2.94
  22  0.888  0.556  0.423-  35 2.91  24 2.92  27 2.92  18 2.92  15 2.92  13 2.93  25 2.93  19 2.93
                            23 2.94  20 2.94  33 2.95  31 2.95
  23  0.222  0.556  0.421-  36 2.76  16 2.89  14 2.89  13 2.89  26 2.93  25 2.93  21 2.93  20 2.93
                            22 2.94  24 2.94  34 2.94  33 2.94
  24  0.556  0.556  0.423-  35 2.91  27 2.92  22 2.92  15 2.92  17 2.92  14 2.93  19 2.93  26 2.93
                            23 2.94  21 2.94  32 2.95  34 2.95
  25  0.889  0.889  0.423-  28 2.91  22 2.93  27 2.93  18 2.93  23 2.93  21 2.93  16 2.93  12 2.93
                            26 2.94  19 2.94  33 2.97  30 2.97
  26  0.223  0.889  0.423-  28 2.91  27 2.93  24 2.93  17 2.93  23 2.93  20 2.93  16 2.93  10 2.93
                            25 2.94  19 2.94  34 2.97  29 2.97
  27  0.556  0.888  0.423-  35 2.91  24 2.92  22 2.92  17 2.92  18 2.92  11 2.93  26 2.93  25 2.93
                            20 2.94  21 2.94  29 2.95  30 2.95
  28  0.000  0.000  0.523-  26 2.91  25 2.91  19 2.91  29 2.96  34 2.96  33 2.96  32 2.96  31 2.96
                            30 2.96
  29  0.333  0.008  0.524-  31 2.86  30 2.87  36 2.88  20 2.94  27 2.95  28 2.96  26 2.97  35 2.97
                            34 3.06
  30  0.659  0.008  0.524-  32 2.86  29 2.87  36 2.88  21 2.94  27 2.95  28 2.96  25 2.97  35 2.97
                            33 3.06
  31  0.008  0.333  0.524-  29 2.86  33 2.87  36 2.88  20 2.94  22 2.95  28 2.96  19 2.97  35 2.97
                            32 3.06
  32  0.659  0.333  0.524-  30 2.86  34 2.87  36 2.88  21 2.94  24 2.95  28 2.96  19 2.97  35 2.97
                            31 3.06
  33  0.008  0.659  0.524-  34 2.86  31 2.87  36 2.88  23 2.94  22 2.95  28 2.96  25 2.97  35 2.97
                            30 3.06
  34  0.333  0.659  0.524-  33 2.86  32 2.87  36 2.88  23 2.94  24 2.95  28 2.96  26 2.97  35 2.97
                            29 3.06
  35  0.667  0.667  0.522-  24 2.91  27 2.91  22 2.91  30 2.97  32 2.97  29 2.97  34 2.97  31 2.97
                            33 2.97
  36  0.333  0.333  0.513-  38 1.69  37 1.69  21 2.76  20 2.76  23 2.76  31 2.88  30 2.88  33 2.88
                            29 2.88  34 2.88  32 2.88
  37  0.253  0.293  0.572-  36 1.69
  38  0.454  0.293  0.572-  36 1.69
 
  LATTYP: Found a hexagonal cell.
 ALAT       =     8.7913665772
 C/A-ratio  =     2.7054077548
  
  Lattice vectors:
  
 A1 = (  -4.3956832886,  -7.6135467898,   0.0000000000)
 A2 = (   8.7913665771,   0.0000000000,   0.0000000000)
 A3 = (   0.0000000000,   0.0000000000,  23.7842313128)


Analysis of symmetry for initial positions (statically):
=====================================================================
 Subroutine PRICEL returns:
 Original cell was already a primitive cell.
 

 Routine SETGRP: Setting up the symmetry group for a 
 hexagonal supercell.


 Subroutine GETGRP returns: Found  2 space group operations
 (whereof  2 operations were pure point group operations)
 out of a pool of 24 trial point group operations.


The static configuration has the point symmetry C_1h.


Analysis of symmetry for dynamics (positions and initial velocities):
=====================================================================
 Subroutine PRICEL returns:
 Original cell was already a primitive cell.
 

 Routine SETGRP: Setting up the symmetry group for a 
 hexagonal supercell.


 Subroutine GETGRP returns: Found  2 space group operations
 (whereof  2 operations were pure point group operations)
 out of a pool of 24 trial point group operations.


The dynamic configuration has the point symmetry C_1h.


Analysis of constrained symmetry for selective dynamics:
=====================================================================
 Subroutine PRICEL returns:
 Original cell was already a primitive cell.
 

 Routine SETGRP: Setting up the symmetry group for a 
 hexagonal supercell.


 Subroutine GETGRP returns: Found  2 space group operations
 (whereof  2 operations were pure point group operations)
 out of a pool of 24 trial point group operations.


The constrained configuration has the point symmetry C_1h.


 Subroutine INISYM returns: Found  2 space group operations
 (whereof  2 operations are pure point group operations),
 and found     1 'primitive' translations


----------------------------------------------------------------------------------------

                                     Primitive cell                                     

  volume of cell :    1591.9614

  direct lattice vectors                    reciprocal lattice vectors
     8.791366577  0.000000000  0.000000000     0.113747958 -0.065672414  0.000000000
     4.395683289  7.613546790  0.000000000     0.000000000  0.131344829  0.000000000
     0.000000000  0.000000000 23.784231313     0.000000000  0.000000000  0.042044663

  length of vectors
     8.791366577  8.791366577 23.784231313     0.131344829  0.131344829  0.042044663

  position of ions in fractional coordinates (direct lattice)
     0.000000000  0.000000000  0.222087822
     0.333333313  0.000000000  0.222087822
     0.666666627  0.000000000  0.222087822
     1.000000000  0.333333343  0.222087822
     0.333333313  0.333333343  0.222087822
     0.666666687  0.333333343  0.222087822
     1.000000000  0.666666687  0.222087822
     0.333333313  0.666666687  0.222087822
     0.666666627  0.666666687  0.222087822
     0.111111104  0.111111112  0.322688392
     0.444444448  0.111111112  0.322688392
     0.777777791  0.111111112  0.322688392
     0.111111097  0.444444448  0.322688392
     0.444444418  0.444444448  0.322688392
     0.777777791  0.444444448  0.322688392
     0.111111104  0.777777791  0.322688392
     0.444444448  0.777777791  0.322688392
     0.777777791  0.777777791  0.322688392
     0.888537475  0.222925067  0.423294602
     0.222149514  0.222149529  0.421336339
     0.555700912  0.222149529  0.421336339
     0.887981608  0.556009226  0.422841542
     0.222149529  0.555700972  0.421336339
     0.556009226  0.556009226  0.422841542
     0.888537475  0.888537475  0.423294602
     0.222925037  0.888537475  0.423294602
     0.556009166  0.887981608  0.422841542
     0.000000000  0.000000000  0.522632136
     0.333030248  0.007722346  0.524058699
     0.659247346  0.007722346  0.524058699
     0.007722346  0.333030278  0.524058699
     0.659247406  0.333030278  0.524058699
     0.007722346  0.659247406  0.524058699
     0.333030248  0.659247406  0.524058699
     0.666666627  0.666666687  0.522426949
     0.333333313  0.333333343  0.512893839
     0.253014498  0.292588156  0.571967577
     0.454397315  0.292588156  0.571967577

  ion indices of the primitive-cell ions
   primitive index   ion index
                 1           1
                 2           2
                 3           3
                 4           4
                 5           5
                 6           6
                 7           7
                 8           8
                 9           9
                10          10
                11          11
                12          12
                13          13
                14          14
                15          15
                16          16
                17          17
                18          18
                19          19
                20          20
                21          21
                22          22
                23          23
                24          24
                25          25
                26          26
                27          27
                28          28
                29          29
                30          30
                31          31
                32          32
                33          33
                34          34
                35          35
                36          36
                37          37
                38          38

----------------------------------------------------------------------------------------

 
 
 KPOINTS: Automatic mesh                          

Automatic generation of k-mesh.
 Grid dimensions read from file:
 generate k-points for:    8    8    1

 Generating k-lattice:

  Cartesian coordinates                     Fractional coordinates (reciprocal lattice)
     0.014218495 -0.008209052  0.000000000     0.125000000 -0.000000000  0.000000000
     0.000000000  0.016418104  0.000000000     0.000000000  0.125000000  0.000000000
     0.000000000  0.000000000  0.042044663     0.000000000  0.000000000  1.000000000

  Length of vectors
     0.016418104  0.016418104  0.042044663

  Shift w.r.t. Gamma in fractional coordinates (k-lattice)
     0.000000000  0.000000000  0.000000000

 TETIRR: Found    100 inequivalent tetrahedra from      384
 
 Subroutine IBZKPT returns following result:
 ===========================================
 
 Found     21 irreducible k-points:
 
 Following reciprocal coordinates:
            Coordinates               Weight
  0.000000  0.000000  0.000000      1.000000
  0.125000 -0.000000  0.000000      4.000000
  0.000000  0.125000  0.000000      2.000000
  0.250000 -0.000000  0.000000      4.000000
  0.000000  0.250000  0.000000      2.000000
  0.375000 -0.000000  0.000000      4.000000
  0.000000  0.375000  0.000000      2.000000
  0.500000 -0.000000  0.000000      2.000000
  0.000000  0.500000  0.000000      1.000000
  0.250000  0.125000  0.000000      2.000000
  0.125000  0.250000  0.000000      4.000000
  0.375000  0.125000  0.000000      4.000000
  0.250000  0.375000  0.000000      4.000000
 -0.125000  0.250000  0.000000      4.000000
  0.500000  0.125000  0.000000      4.000000
  0.375000  0.500000  0.000000      4.000000
 -0.125000  0.375000  0.000000      4.000000
  0.500000  0.250000  0.000000      2.000000
  0.250000  0.500000  0.000000      4.000000
 -0.375000  0.250000  0.000000      4.000000
 -0.250000  0.375000  0.000000      2.000000
 
 Following cartesian coordinates:
            Coordinates               Weight
  0.000000  0.000000  0.000000      1.000000
  0.014218 -0.008209  0.000000      4.000000
  0.000000  0.016418  0.000000      2.000000
  0.028437 -0.016418  0.000000      4.000000
  0.000000  0.032836  0.000000      2.000000
  0.042655 -0.024627  0.000000      4.000000
  0.000000  0.049254  0.000000      2.000000
  0.056874 -0.032836  0.000000      2.000000
  0.000000  0.065672  0.000000      1.000000
  0.028437 -0.000000  0.000000      2.000000
  0.014218  0.024627  0.000000      4.000000
  0.042655 -0.008209  0.000000      4.000000
  0.028437  0.032836  0.000000      4.000000
 -0.014218  0.041045  0.000000      4.000000
  0.056874 -0.016418  0.000000      4.000000
  0.042655  0.041045  0.000000      4.000000
 -0.014218  0.057463  0.000000      4.000000
  0.056874 -0.000000  0.000000      2.000000
  0.028437  0.049254  0.000000      4.000000
 -0.042655  0.057463  0.000000      4.000000
 -0.028437  0.065672  0.000000      2.000000
 


--------------------------------------------------------------------------------------------------------




 Dimension of arrays:
   k-points           NKPTS =     21   k-points in BZ     NKDIM =     21   number of bands    NBANDS=    240
   number of dos      NEDOS =    301   number of ions     NIONS =     38
   non local maximal  LDIM  =      6   non local SUM 2l+1 LMDIM =     18
   total plane-waves  NPLWV = 322560
   max r-space proj   IRMAX =   3298   max aug-charges    IRDMAX=  11912
   dimension x,y,z NGX =    48 NGY =   48 NGZ =  140
   dimension x,y,z NGXF=    96 NGYF=   96 NGZF=  280
   support grid    NGXF=    96 NGYF=   96 NGZF=  280
   ions per type =              35   1   2
   NGX,Y,Z   is equivalent  to a cutoff of   9.08,  9.08,  9.79 a.u.
   NGXF,Y,Z  is equivalent  to a cutoff of  18.15, 18.15, 19.57 a.u.

 SYSTEM =  unknown system                          
 POSCAR =  Ag-Re-H2                                

 Startparameter for this run:
   NWRITE =      2    write-flag & timer
   PREC   = normal    normal or accurate (medium, high low for compatibility)
   ISTART =      0    job   : 0-new  1-cont  2-samecut
   ICHARG =     11    charge: 1-file 2-atom 10-const
   ISPIN  =      1    spin polarized calculation?
   LNONCOLLINEAR =      F non collinear calculations
   LSORBIT =      F    spin-orbit coupling
   INIWAV =      1    electr: 0-lowe 1-rand  2-diag
   LASPH  =      F    aspherical Exc in radial PAW
   METAGGA=      F    non-selfconsistent MetaGGA calc.

 Electronic Relaxation 1
   ENCUT  =  500.0 eV  36.75 Ry    6.06 a.u.  16.03 16.03 43.36*2*pi/ulx,y,z
   ENINI  =  500.0     initial cutoff
   ENAUG  =  412.5 eV  augmentation charge cutoff
   NELM   =    150;   NELMIN=  2; NELMDL= -5     # of ELM steps 
   EDIFF  = 0.1E-04   stopping-criterion for ELM
   LREAL  =      T    real-space projection
   NLSPLINE    = F    spline interpolate recip. space projectors
   LCOMPAT=      F    compatible to vasp.4.4
   GGA_COMPAT  = T    GGA compatible to vasp.4.4-vasp.4.6
   LMAXPAW     = -100 max onsite density
   LMAXMIX     =    2 max onsite mixed and CHGCAR
   VOSKOWN=      0    Vosko Wilk Nusair interpolation
   ROPT   =   -0.00050  -0.00050  -0.00050
 Ionic relaxation
   EDIFFG = -.1E-01   stopping-criterion for IOM
   NSW    =      0    number of steps for IOM
   NBLOCK =      1;   KBLOCK =      1    inner block; outer block 
   IBRION =     -1    ionic relax: 0-MD 1-quasi-New 2-CG
   NFREE  =      1    steps in history (QN), initial steepest desc. (CG)
   ISIF   =      2    stress and relaxation
   IWAVPR =     10    prediction:  0-non 1-charg 2-wave 3-comb
   ISYM   =      2    0-nonsym 1-usesym 2-fastsym
   LCORR  =      T    Harris-Foulkes like correction to forces

   POTIM  = 0.5000    time-step for ionic-motion
   TEIN   =    0.0    initial temperature
   TEBEG  =    0.0;   TEEND  =   0.0 temperature during run
   SMASS  =  -3.00    Nose mass-parameter (am)
   estimated Nose-frequenzy (Omega)   =  0.10E-29 period in steps = 0.13E+47 mass=  -0.177E-26a.u.
   SCALEE = 1.0000    scale energy and forces
   NPACO  =    256;   APACO  = 16.0  distance and # of slots for P.C.
   PSTRESS=    0.0 pullay stress

  Mass of Ions in am
   POMASS = 107.87186.21  1.00
  Ionic Valenz
   ZVAL   =  11.00  7.00  1.00
  Atomic Wigner-Seitz radii
   RWIGS  =  -1.00 -1.00 -1.00
  virtual crystal weights 
   VCA    =   1.00  1.00  1.00
   NELECT =     394.0000    total number of electrons
   NUPDOWN=      -1.0000    fix difference up-down

 DOS related values:
   EMIN   =  10.00;   EMAX   =-10.00  energy-range for DOS
   EFERMI =   0.00
   ISMEAR =    -5;   SIGMA  =   0.10  broadening in eV -4-tet -1-fermi 0-gaus

 Electronic relaxation 2 (details)
   IALGO  =     68    algorithm
   LDIAG  =      T    sub-space diagonalisation (order eigenvalues)
   LSUBROT=      F    optimize rotation matrix (better conditioning)
   TURBO    =      0    0=normal 1=particle mesh
   IRESTART =      0    0=no restart 2=restart with 2 vectors
   NREBOOT  =      0    no. of reboots
   NMIN     =      0    reboot dimension
   EREF     =   0.00    reference energy to select bands
   IMIX   =      4    mixing-type and parameters
     AMIX     =   0.40;   BMIX     =  1.00
     AMIX_MAG =   1.60;   BMIX_MAG =  1.00
     AMIN     =   0.10
     WC   =   100.;   INIMIX=   1;  MIXPRE=   1;  MAXMIX= -45

 Intra band minimization:
   WEIMIN = 0.0000     energy-eigenvalue tresh-hold
   EBREAK =  0.10E-07  absolut break condition
   DEPER  =   0.30     relativ break condition  

   TIME   =   0.40     timestep for ELM

  volume/ion in A,a.u.               =      41.89       282.71
  Fermi-wavevector in a.u.,A,eV,Ry     =   1.027849  1.942353 14.374201  1.056474
  Thomas-Fermi vector in A             =   2.161815
 
 Write flags
   LWAVE        =      F    write WAVECAR
   LDOWNSAMPLE  =      F    k-point downsampling of WAVECAR
   LCHARG       =      F    write CHGCAR
   LVTOT        =      F    write LOCPOT, total local potential
   LVHAR        =      F    write LOCPOT, Hartree potential only
   LELF         =      F    write electronic localiz. function (ELF)
   LORBIT       =     10    0 simple, 1 ext, 2 COOP (PROOUT), +10 PAW based schemes


 Dipole corrections
   LMONO  =      F    monopole corrections only (constant potential shift)
   LDIPOL =      F    correct potential (dipole corrections)
   IDIPOL =      0    1-x, 2-y, 3-z, 4-all directions 
   EPSILON=  1.0000000 bulk dielectric constant

 Exchange correlation treatment:
   GGA     =    --    GGA type
   LEXCH   =     8    internal setting for exchange type
   VOSKOWN=      0    Vosko Wilk Nusair interpolation
   LHFCALC =     F    Hartree Fock is set to
   LHFONE  =     F    Hartree Fock one center treatment
   AEXX    =    0.0000 exact exchange contribution

 Linear response parameters
   LEPSILON=     F    determine dielectric tensor
   LRPA    =     F    only Hartree local field effects (RPA)
   LNABLA  =     F    use nabla operator in PAW spheres
   LVEL    =     F    velocity operator in full k-point grid
   LINTERFAST=   F  fast interpolation
   KINTER  =     0    interpolate to denser k-point grid
   CSHIFT  =0.1000    complex shift for real part using Kramers Kronig
   OMEGAMAX=  -1.0    maximum frequency
   DEG_THRESHOLD= 0.2000000E-02 threshold for treating states as degnerate
   RTIME   =   -0.100 relaxation time in fs
  (WPLASMAI=    0.000 imaginary part of plasma frequency in eV, 0.658/RTIME)
   DFIELD  = 0.0000000 0.0000000 0.0000000 field for delta impulse in time
 
 Orbital magnetization related:
   ORBITALMAG=     F  switch on orbital magnetization
   LCHIMAG   =     F  perturbation theory with respect to B field
   DQ        =  0.001000  dq finite difference perturbation B field
   LLRAUG    =     F  two centre corrections for induced B field



--------------------------------------------------------------------------------------------------------


 Static calculation
 charge density and potential remain constant during run
 non-spin polarized calculation
 RMM-DIIS sequential band-by-band and
  variant of blocked Davidson during initial phase
 perform sub-space diagonalisation
    before iterative eigenvector-optimisation
 no mixing
 using additional bands           43
 real space projection scheme for non local part
 use partial core corrections
 calculate Harris-corrections to forces 
   (improved forces if not selfconsistent)
 use gradient corrections 
 WARNING: stress and forces are not correct
  (second derivative of E(xc) not defined)
 use of overlap-Matrix (Vanderbilt PP)
 Fermi weights with tetrahedron method with Bloechl corrections


--------------------------------------------------------------------------------------------------------


  energy-cutoff  :      500.00
  volume of cell :     1591.96
      direct lattice vectors                 reciprocal lattice vectors
     8.791366577  0.000000000  0.000000000     0.113747958 -0.065672414  0.000000000
     4.395683289  7.613546790  0.000000000     0.000000000  0.131344829  0.000000000
     0.000000000  0.000000000 23.784231313     0.000000000  0.000000000  0.042044663

  length of vectors
     8.791366577  8.791366577 23.784231313     0.131344829  0.131344829  0.042044663


 
 k-points in units of 2pi/SCALE and weight: Automatic mesh                          
   0.00000000  0.00000000  0.00000000       0.016
   0.01421849 -0.00820905  0.00000000       0.062
   0.00000000  0.01641810  0.00000000       0.031
   0.02843699 -0.01641810  0.00000000       0.062
   0.00000000  0.03283621  0.00000000       0.031
   0.04265548 -0.02462716  0.00000000       0.062
   0.00000000  0.04925431  0.00000000       0.031
   0.05687398 -0.03283621  0.00000000       0.031
   0.00000000  0.06567241  0.00000000       0.016
   0.02843699 -0.00000000  0.00000000       0.031
   0.01421849  0.02462716  0.00000000       0.062
   0.04265548 -0.00820905  0.00000000       0.062
   0.02843699  0.03283621  0.00000000       0.062
  -0.01421849  0.04104526  0.00000000       0.062
   0.05687398 -0.01641810  0.00000000       0.062
   0.04265548  0.04104526  0.00000000       0.062
  -0.01421849  0.05746336  0.00000000       0.062
   0.05687398 -0.00000000  0.00000000       0.031
   0.02843699  0.04925431  0.00000000       0.062
  -0.04265548  0.05746336  0.00000000       0.062
  -0.02843699  0.06567241  0.00000000       0.031
 
 k-points in reciprocal lattice and weights: Automatic mesh                          
   0.00000000  0.00000000  0.00000000       0.016
   0.12500000 -0.00000000  0.00000000       0.062
   0.00000000  0.12500000  0.00000000       0.031
   0.25000000 -0.00000000  0.00000000       0.062
   0.00000000  0.25000000  0.00000000       0.031
   0.37500000 -0.00000000  0.00000000       0.062
   0.00000000  0.37500000  0.00000000       0.031
   0.50000000 -0.00000000  0.00000000       0.031
   0.00000000  0.50000000  0.00000000       0.016
   0.25000000  0.12500000  0.00000000       0.031
   0.12500000  0.25000000  0.00000000       0.062
   0.37500000  0.12500000  0.00000000       0.062
   0.25000000  0.37500000  0.00000000       0.062
  -0.12500000  0.25000000  0.00000000       0.062
   0.50000000  0.12500000  0.00000000       0.062
   0.37500000  0.50000000  0.00000000       0.062
  -0.12500000  0.37500000  0.00000000       0.062
   0.50000000  0.25000000  0.00000000       0.031
   0.25000000  0.50000000  0.00000000       0.062
  -0.37500000  0.25000000  0.00000000       0.062
  -0.25000000  0.37500000  0.00000000       0.031
 
 position of ions in fractional coordinates (direct lattice) 
   0.00000000  0.00000000  0.22208782
   0.33333331  0.00000000  0.22208782
   0.66666663  0.00000000  0.22208782
   0.00000000  0.33333334  0.22208782
   0.33333331  0.33333334  0.22208782
   0.66666669  0.33333334  0.22208782
   0.00000000  0.66666669  0.22208782
   0.33333331  0.66666669  0.22208782
   0.66666663  0.66666669  0.22208782
   0.11111110  0.11111111  0.32268839
   0.44444445  0.11111111  0.32268839
   0.77777779  0.11111111  0.32268839
   0.11111110  0.44444445  0.32268839
   0.44444442  0.44444445  0.32268839
   0.77777779  0.44444445  0.32268839
   0.11111110  0.77777779  0.32268839
   0.44444445  0.77777779  0.32268839
   0.77777779  0.77777779  0.32268839
   0.88853747  0.22292507  0.42329460
   0.22214951  0.22214953  0.42133634
   0.55570091  0.22214953  0.42133634
   0.88798161  0.55600923  0.42284154
   0.22214953  0.55570097  0.42133634
   0.55600923  0.55600923  0.42284154
   0.88853747  0.88853747  0.42329460
   0.22292504  0.88853747  0.42329460
   0.55600917  0.88798161  0.42284154
   0.00000000  0.00000000  0.52263214
   0.33303025  0.00772235  0.52405870
   0.65924735  0.00772235  0.52405870
   0.00772235  0.33303028  0.52405870
   0.65924741  0.33303028  0.52405870
   0.00772235  0.65924741  0.52405870
   0.33303025  0.65924741  0.52405870
   0.66666663  0.66666669  0.52242695
   0.33333331  0.33333334  0.51289384
   0.25301450  0.29258816  0.57196758
   0.45439731  0.29258816  0.57196758
 
 position of ions in cartesian coordinates  (Angst):
   0.00000000  0.00000000  5.28218814
   2.93045535  0.00000000  5.28218814
   5.86091070  0.00000000  5.28218814
   1.46522781  2.53784900  5.28218814
   4.39568315  2.53784900  5.28218814
   7.32613904  2.53784900  5.28218814
   2.93045562  5.07569801  5.28218814
   5.86091096  5.07569801  5.28218814
   8.79136632  5.07569801  5.28218814
   1.46522770  0.84594965  7.67489535
   4.39568332  0.84594965  7.67489535
   7.32613893  0.84594965  7.67489535
   2.93045542  3.38379860  7.67489535
   5.86091083  3.38379860  7.67489535
   8.79136671  3.38379860  7.67489535
   4.39568328  5.92164760  7.67489535
   7.32613890  5.92164760  7.67489535
  10.25659451  5.92164760  7.67489535
   8.79136665  1.69725042 10.06773673
   2.92949678  1.69134583 10.02116094
   5.86186940  1.69134583 10.02116094
  10.25061229  4.23320226 10.05696105
   4.39568342  4.23085535 10.02116094
   7.33212139  4.23320226 10.05696105
  11.71718799  6.76492164 10.06773673
   5.86554504  6.76492164 10.06773673
   8.79136631  6.76068952 10.05696105
   0.00000000  0.00000000 12.43040361
   2.96173598  0.05879444 12.46433333
   5.82963007  0.05879444 12.46433333
   1.53178560  2.53554161 12.46433333
   7.25958124  2.53554161 12.46433333
   2.96573278  5.01921097 12.46433333
   5.82563380  5.01921097 12.46433333
   8.79136632  5.07569801 12.42552341
   4.39568315  2.53784900 12.19878570
   3.51046807  2.22763362 13.60380917
   5.28089823  2.22763362 13.60380917
 


--------------------------------------------------------------------------------------------------------


 k-point   1 :   0.0000 0.0000 0.0000  plane waves:   40389
 k-point   2 :   0.1250-0.0000 0.0000  plane waves:   40340
 k-point   3 :   0.0000 0.1250 0.0000  plane waves:   40340
 k-point   4 :   0.2500-0.0000 0.0000  plane waves:   40400
 k-point   5 :   0.0000 0.2500 0.0000  plane waves:   40400
 k-point   6 :   0.3750-0.0000 0.0000  plane waves:   40406
 k-point   7 :   0.0000 0.3750 0.0000  plane waves:   40406
 k-point   8 :   0.5000-0.0000 0.0000  plane waves:   40432
 k-point   9 :   0.0000 0.5000 0.0000  plane waves:   40432
 k-point  10 :   0.2500 0.1250 0.0000  plane waves:   40380
 k-point  11 :   0.1250 0.2500 0.0000  plane waves:   40380
 k-point  12 :   0.3750 0.1250 0.0000  plane waves:   40444
 k-point  13 :   0.2500 0.3750 0.0000  plane waves:   40444
 k-point  14 :  -0.1250 0.2500 0.0000  plane waves:   40444
 k-point  15 :   0.5000 0.1250 0.0000  plane waves:   40450
 k-point  16 :   0.3750 0.5000 0.0000  plane waves:   40450
 k-point  17 :  -0.1250 0.3750 0.0000  plane waves:   40450
 k-point  18 :   0.5000 0.2500 0.0000  plane waves:   40426
 k-point  19 :   0.2500 0.5000 0.0000  plane waves:   40426
 k-point  20 :  -0.3750 0.2500 0.0000  plane waves:   40450
 k-point  21 :  -0.2500 0.3750 0.0000  plane waves:   40450

 maximum and minimum number of plane-waves per node :     40450    40340

 maximum number of plane-waves:     40450
 maximum index in each direction: 
   IXMAX=   16   IYMAX=   16   IZMAX=   43
   IXMIN=  -16   IYMIN=  -16   IZMIN=  -43


 serial   3D FFT for wavefunctions
 parallel 3D FFT for charge:
    minimum data exchange during FFTs selected (reduces bandwidth)


 total amount of memory used by VASP MPI-rank0   284099. kBytes
=======================================================================

   base      :      30000. kBytes
   nonlr-proj:      16113. kBytes
   fftplans  :       6755. kBytes
   grid      :      23316. kBytes
   one-center:        590. kBytes
   wavefun   :     207325. kBytes
 
     INWAV:  cpu time    0.0000: real time    0.0000
 initial charge density was supplied:
 number of electron     394.0000050 magnetization 
 keeping initial charge density in first step


--------------------------------------------------------------------------------------------------------


 Maximum index for non-local projection operator         3144
 Maximum index for augmentation-charges          670 (set IRDMAX)


--------------------------------------------------------------------------------------------------------


 First call to EWALD:  gamma=   0.152
 Maximum number of real-space cells 4x 4x 2
 Maximum number of reciprocal cells 2x 2x 5

    FEWALD:  cpu time    0.0014: real time    0.0014


--------------------------------------- Iteration      1(   1)  ---------------------------------------


    POTLOK:  cpu time    0.0661: real time    0.0664
    SETDIJ:  cpu time    0.0057: real time    0.0058
     EDDAV:  cpu time   27.6377: real time   27.6396
 BZINTS: Fermi energy:    7.831535;  394.000000 electrons
         Band energy: 0.740458E+03;  BLOECHL correction:   -0.095825
       DOS:  cpu time    0.0220: real time    0.0220
    --------------------------------------------
      LOOP:  cpu time   27.7315: real time   27.7338

 eigenvalue-minimisations  : 14832
 total energy-change (2. order) : 0.2061296E+04  (-0.1840326E+05)
 number of electron     394.0000050 magnetization 
 augmentation part      394.0000050 magnetization 

 Free energy of the ion-electron system (eV)
  ---------------------------------------------------
  alpha Z        PSCENC =       704.49611715
  Ewald energy   TEWEN  =    121110.78919200
  -Hartree energ DENC   =   -158288.06844574
  -exchange      EXHF   =         0.00000000
  -V(xc)+E(xc)   XCENC  =      -430.15111018
  PAW double counting   =     39058.85755138   -37463.89517152
  entropy T*S    EENTRO =         0.00000000
  eigenvalues    EBANDS =       740.45767491
  atomic energy  EATOM  =     36628.81031263
  Solvation  Ediel_sol  =         0.00000000
  ---------------------------------------------------
  free energy    TOTEN  =      2061.29612063 eV

  energy without entropy =     2061.29612063  energy(sigma->0) =     2061.29612063


--------------------------------------------------------------------------------------------------------




--------------------------------------- Iteration      1(   2)  ---------------------------------------


     EDDAV:  cpu time   28.0286: real time   28.0299
 BZINTS: Fermi energy:    0.763364;  394.000000 electrons
         Band energy:-0.138297E+04;  BLOECHL correction:   -0.042155
       DOS:  cpu time    0.0259: real time    0.0259
    --------------------------------------------
      LOOP:  cpu time   28.0545: real time   28.0558

 eigenvalue-minimisations  : 15120
 total energy-change (2. order) :-0.2123430E+04  (-0.2079388E+04)
 number of electron     394.0000050 magnetization 
 augmentation part      394.0000050 magnetization 

 Free energy of the ion-electron system (eV)
  ---------------------------------------------------
  alpha Z        PSCENC =       704.49611715
  Ewald energy   TEWEN  =    121110.78919200
  -Hartree energ DENC   =   -158288.06844574
  -exchange      EXHF   =         0.00000000
  -V(xc)+E(xc)   XCENC  =      -430.15111018
  PAW double counting   =     39058.85755138   -37463.89517152
  entropy T*S    EENTRO =         0.00000000
  eigenvalues    EBANDS =     -1382.97214064
  atomic energy  EATOM  =     36628.81031263
  Solvation  Ediel_sol  =         0.00000000
  ---------------------------------------------------
  free energy    TOTEN  =       -62.13369492 eV

  energy without entropy =      -62.13369492  energy(sigma->0) =      -62.13369492


--------------------------------------------------------------------------------------------------------




--------------------------------------- Iteration      1(   3)  ---------------------------------------


     EDDAV:  cpu time   28.2320: real time   28.2332
 BZINTS: Fermi energy:    0.428331;  394.000000 electrons
         Band energy:-0.142584E+04;  BLOECHL correction:   -0.024978
       DOS:  cpu time    0.0279: real time    0.0279
    --------------------------------------------
      LOOP:  cpu time   28.2598: real time   28.2611

 eigenvalue-minimisations  : 15248
 total energy-change (2. order) :-0.4286998E+02  (-0.4230525E+02)
 number of electron     394.0000050 magnetization 
 augmentation part      394.0000050 magnetization 

 Free energy of the ion-electron system (eV)
  ---------------------------------------------------
  alpha Z        PSCENC =       704.49611715
  Ewald energy   TEWEN  =    121110.78919200
  -Hartree energ DENC   =   -158288.06844574
  -exchange      EXHF   =         0.00000000
  -V(xc)+E(xc)   XCENC  =      -430.15111018
  PAW double counting   =     39058.85755138   -37463.89517152
  entropy T*S    EENTRO =         0.00000000
  eigenvalues    EBANDS =     -1425.84212237
  atomic energy  EATOM  =     36628.81031263
  Solvation  Ediel_sol  =         0.00000000
  ---------------------------------------------------
  free energy    TOTEN  =      -105.00367665 eV

  energy without entropy =     -105.00367665  energy(sigma->0) =     -105.00367665


--------------------------------------------------------------------------------------------------------




--------------------------------------- Iteration      1(   4)  ---------------------------------------


     EDDAV:  cpu time   23.6858: real time   23.6870
 BZINTS: Fermi energy:    0.417427;  394.000000 electrons
         Band energy:-0.142626E+04;  BLOECHL correction:   -0.025394
       DOS:  cpu time    0.0273: real time    0.0273
    --------------------------------------------
      LOOP:  cpu time   23.7132: real time   23.7143

 eigenvalue-minimisations  : 12272
 total energy-change (2. order) :-0.4225360E+00  (-0.4200113E+00)
 number of electron     394.0000050 magnetization 
 augmentation part      394.0000050 magnetization 

 Free energy of the ion-electron system (eV)
  ---------------------------------------------------
  alpha Z        PSCENC =       704.49611715
  Ewald energy   TEWEN  =    121110.78919200
  -Hartree energ DENC   =   -158288.06844574
  -exchange      EXHF   =         0.00000000
  -V(xc)+E(xc)   XCENC  =      -430.15111018
  PAW double counting   =     39058.85755138   -37463.89517152
  entropy T*S    EENTRO =         0.00000000
  eigenvalues    EBANDS =     -1426.26465834
  atomic energy  EATOM  =     36628.81031263
  Solvation  Ediel_sol  =         0.00000000
  ---------------------------------------------------
  free energy    TOTEN  =      -105.42621262 eV

  energy without entropy =     -105.42621262  energy(sigma->0) =     -105.42621262


--------------------------------------------------------------------------------------------------------




--------------------------------------- Iteration      1(   5)  ---------------------------------------


     EDDAV:  cpu time   29.2860: real time   29.2872
 BZINTS: Fermi energy:    0.416917;  394.000000 electrons
         Band energy:-0.142629E+04;  BLOECHL correction:   -0.025374
       DOS:  cpu time    0.0243: real time    0.0243
    --------------------------------------------
      LOOP:  cpu time   29.3102: real time   29.3115

 eigenvalue-minimisations  : 15872
 total energy-change (2. order) :-0.2253995E-01  (-0.2254000E-01)
 number of electron     394.0000050 magnetization 
 augmentation part      394.0000050 magnetization 

 Free energy of the ion-electron system (eV)
  ---------------------------------------------------
  alpha Z        PSCENC =       704.49611715
  Ewald energy   TEWEN  =    121110.78919200
  -Hartree energ DENC   =   -158288.06844574
  -exchange      EXHF   =         0.00000000
  -V(xc)+E(xc)   XCENC  =      -430.15111018
  PAW double counting   =     39058.85755138   -37463.89517152
  entropy T*S    EENTRO =         0.00000000
  eigenvalues    EBANDS =     -1426.28719829
  atomic energy  EATOM  =     36628.81031263
  Solvation  Ediel_sol  =         0.00000000
  ---------------------------------------------------
  free energy    TOTEN  =      -105.44875257 eV

  energy without entropy =     -105.44875257  energy(sigma->0) =     -105.44875257


--------------------------------------------------------------------------------------------------------




--------------------------------------- Iteration      1(   6)  ---------------------------------------


    EDDIAG:  cpu time    3.7169: real time    3.7172
  RMM-DIIS:  cpu time   12.0627: real time   12.0632
    ORTHCH:  cpu time    0.7895: real time    0.7895
 BZINTS: Fermi energy:    0.416908;  394.000000 electrons
         Band energy:-0.142629E+04;  BLOECHL correction:   -0.025376
       DOS:  cpu time    0.0273: real time    0.0274
    --------------------------------------------
      LOOP:  cpu time   16.5963: real time   16.5972

 eigenvalue-minimisations  : 11686
 total energy-change (2. order) :-0.3224594E-03  (-0.3216967E-03)
 number of electron     394.0000050 magnetization 
 augmentation part      394.0000050 magnetization 

 Free energy of the ion-electron system (eV)
  ---------------------------------------------------
  alpha Z        PSCENC =       704.49611715
  Ewald energy   TEWEN  =    121110.78919200
  -Hartree energ DENC   =   -158288.06844574
  -exchange      EXHF   =         0.00000000
  -V(xc)+E(xc)   XCENC  =      -430.15111018
  PAW double counting   =     39058.85755138   -37463.89517152
  entropy T*S    EENTRO =         0.00000000
  eigenvalues    EBANDS =     -1426.28752075
  atomic energy  EATOM  =     36628.81031263
  Solvation  Ediel_sol  =         0.00000000
  ---------------------------------------------------
  free energy    TOTEN  =      -105.44907503 eV

  energy without entropy =     -105.44907503  energy(sigma->0) =     -105.44907503


--------------------------------------------------------------------------------------------------------




--------------------------------------- Iteration      1(   7)  ---------------------------------------


    EDDIAG:  cpu time    3.7186: real time    3.7187
  RMM-DIIS:  cpu time   13.9978: real time   13.9984
    ORTHCH:  cpu time    0.7900: real time    0.7901
 BZINTS: Fermi energy:    0.416905;  394.000000 electrons
         Band energy:-0.142629E+04;  BLOECHL correction:   -0.025376
       DOS:  cpu time    0.0279: real time    0.0279
    --------------------------------------------
      LOOP:  cpu time   18.5343: real time   18.5352

 eigenvalue-minimisations  : 13153
 total energy-change (2. order) :-0.1114380E-03  (-0.1109162E-03)
 number of electron     394.0000050 magnetization 
 augmentation part      394.0000050 magnetization 

 Free energy of the ion-electron system (eV)
  ---------------------------------------------------
  alpha Z        PSCENC =       704.49611715
  Ewald energy   TEWEN  =    121110.78919200
  -Hartree energ DENC   =   -158288.06844574
  -exchange      EXHF   =         0.00000000
  -V(xc)+E(xc)   XCENC  =      -430.15111018
  PAW double counting   =     39058.85755138   -37463.89517152
  entropy T*S    EENTRO =         0.00000000
  eigenvalues    EBANDS =     -1426.28763219
  atomic energy  EATOM  =     36628.81031263
  Solvation  Ediel_sol  =         0.00000000
  ---------------------------------------------------
  free energy    TOTEN  =      -105.44918646 eV

  energy without entropy =     -105.44918646  energy(sigma->0) =     -105.44918646


--------------------------------------------------------------------------------------------------------




--------------------------------------- Iteration      1(   8)  ---------------------------------------


    EDDIAG:  cpu time    3.7169: real time    3.7171
  RMM-DIIS:  cpu time   13.6641: real time   13.6646
    ORTHCH:  cpu time    0.7895: real time    0.7896
 BZINTS: Fermi energy:    0.416904;  394.000000 electrons
         Band energy:-0.142629E+04;  BLOECHL correction:   -0.025376
       DOS:  cpu time    0.0279: real time    0.0279
    --------------------------------------------
      LOOP:  cpu time   18.1984: real time   18.1993

 eigenvalue-minimisations  : 12587
 total energy-change (2. order) :-0.2468142E-04  (-0.2453379E-04)
 number of electron     394.0000050 magnetization 
 augmentation part      394.0000050 magnetization 

 Free energy of the ion-electron system (eV)
  ---------------------------------------------------
  alpha Z        PSCENC =       704.49611715
  Ewald energy   TEWEN  =    121110.78919200
  -Hartree energ DENC   =   -158288.06844574
  -exchange      EXHF   =         0.00000000
  -V(xc)+E(xc)   XCENC  =      -430.15111018
  PAW double counting   =     39058.85755138   -37463.89517152
  entropy T*S    EENTRO =         0.00000000
  eigenvalues    EBANDS =     -1426.28765687
  atomic energy  EATOM  =     36628.81031263
  Solvation  Ediel_sol  =         0.00000000
  ---------------------------------------------------
  free energy    TOTEN  =      -105.44921115 eV

  energy without entropy =     -105.44921115  energy(sigma->0) =     -105.44921115


--------------------------------------------------------------------------------------------------------




--------------------------------------- Iteration      1(   9)  ---------------------------------------


    EDDIAG:  cpu time    3.7173: real time    3.7175
  RMM-DIIS:  cpu time    8.8597: real time    8.8601
    ORTHCH:  cpu time    0.7901: real time    0.7902
 BZINTS: Fermi energy:    0.416904;  394.000000 electrons
         Band energy:-0.142629E+04;  BLOECHL correction:   -0.025376
       DOS:  cpu time    0.0279: real time    0.0279
    --------------------------------------------
      LOOP:  cpu time   13.3950: real time   13.3957

 eigenvalue-minimisations  :  7594
 total energy-change (2. order) :-0.1977111E-05  (-0.1921664E-05)
 number of electron     394.0000050 magnetization 
 augmentation part      394.0000050 magnetization 

 Free energy of the ion-electron system (eV)
  ---------------------------------------------------
  alpha Z        PSCENC =       704.49611715
  Ewald energy   TEWEN  =    121110.78919200
  -Hartree energ DENC   =   -158288.06844574
  -exchange      EXHF   =         0.00000000
  -V(xc)+E(xc)   XCENC  =      -430.15111018
  PAW double counting   =     39058.85755138   -37463.89517152
  entropy T*S    EENTRO =         0.00000000
  eigenvalues    EBANDS =     -1426.28765885
  atomic energy  EATOM  =     36628.81031263
  Solvation  Ediel_sol  =         0.00000000
  ---------------------------------------------------
  free energy    TOTEN  =      -105.44921312 eV

  energy without entropy =     -105.44921312  energy(sigma->0) =     -105.44921312


--------------------------------------------------------------------------------------------------------




 average (electrostatic) potential at core
  the test charge radii are     1.1249  1.1873  0.5201
  (the norm of the test charge is              1.0000)
       1 -78.4811       2 -78.4453       3 -78.4453       4 -78.4555       5 -78.4352
       6 -78.4552       7 -78.4422       8 -78.4420       9 -78.4762      10 -78.7021
      11 -78.6606      12 -78.7020      13 -78.6585      14 -78.6584      15 -78.6828
      16 -78.6901      17 -78.6706      18 -78.6707      19 -78.6593      20 -78.7542
      21 -78.7544      22 -78.6432      23 -78.7613      24 -78.6432      25 -78.6471
      26 -78.6469      27 -78.6422      28 -78.4204      29 -78.3615      30 -78.3617
      31 -78.4266      32 -78.4266      33 -78.3729      34 -78.3728      35 -78.3912
      36 -46.2683      37 -35.8322      38 -35.8322
 
 
 
 E-fermi :   0.4169     XC(G=0):  -5.5383     alpha+bet : -5.2171

 Fermi energy:         0.4169038835

 k-point     1 :       0.0000    0.0000    0.0000
  band No.  band energies     occupation 
      1      -6.8049      2.00000
      2      -6.1677      2.00000
      3      -5.7063      2.00000
      4      -5.4925      2.00000
      5      -5.4117      2.00000
      6      -5.4112      2.00000
      7      -5.4053      2.00000
      8      -5.4029      2.00000
      9      -5.3984      2.00000
     10      -5.3930      2.00000
     11      -5.3758      2.00000
     12      -5.3605      2.00000
     13      -5.3571      2.00000
     14      -5.3552      2.00000
     15      -5.3457      2.00000
     16      -5.3415      2.00000
     17      -5.2118      2.00000
     18      -5.2083      2.00000
     19      -5.1979      2.00000
     20      -5.1899      2.00000
     21      -5.1782      2.00000
     22      -5.1759      2.00000
     23      -5.1162      2.00000
     24      -5.0022      2.00000
     25      -5.0015      2.00000
     26      -4.9898      2.00000
     27      -4.9866      2.00000
     28      -4.9832      2.00000
     29      -4.9704      2.00000
     30      -4.9675      2.00000
     31      -4.9465      2.00000
     32      -4.9456      2.00000
     33      -4.9391      2.00000
     34      -4.9356      2.00000
     35      -4.9354      2.00000
     36      -4.8353      2.00000
     37      -4.8352      2.00000
     38      -4.8122      2.00000
     39      -4.7862      2.00000
     40      -4.7752      2.00000
     41      -4.6367      2.00000
     42      -4.6144      2.00000
     43      -4.6101      2.00000
     44      -4.6086      2.00000
     45      -4.5919      2.00000
     46      -4.5881      2.00000
     47      -4.5860      2.00000
     48      -4.5775      2.00000
     49      -4.5703      2.00000
     50      -4.5638      2.00000
     51      -4.4689      2.00000
     52      -4.4467      2.00000
     53      -4.4450      2.00000
     54      -4.3866      2.00000
     55      -4.3534      2.00000
     56      -4.3162      2.00000
     57      -4.2127      2.00000
     58      -4.2121      2.00000
     59      -4.2106      2.00000
     60      -4.2087      2.00000
     61      -4.2050      2.00000
     62      -4.1883      2.00000
     63      -4.1825      2.00000
     64      -4.1562      2.00000
     65      -4.1523      2.00000
     66      -4.1414      2.00000
     67      -4.0986      2.00000
     68      -4.0582      2.00000
     69      -4.0518      2.00000
     70      -4.0303      2.00000
     71      -4.0280      2.00000
     72      -4.0263      2.00000
     73      -4.0187      2.00000
     74      -4.0171      2.00000
     75      -3.9996      2.00000
     76      -3.9929      2.00000
     77      -3.9863      2.00000
     78      -3.9781      2.00000
     79      -3.9763      2.00000
     80      -3.9671      2.00000
     81      -3.9570      2.00000
     82      -3.9452      2.00000
     83      -3.9403      2.00000
     84      -3.9123      2.00000
     85      -3.9024      2.00000
     86      -3.9008      2.00000
     87      -3.8139      2.00000
     88      -3.8133      2.00000
     89      -3.7967      2.00000
     90      -3.7899      2.00000
     91      -3.7784      2.00000
     92      -3.7700      2.00000
     93      -3.7672      2.00000
     94      -3.7574      2.00000
     95      -3.7564      2.00000
     96      -3.7535      2.00000
     97      -3.7295      2.00000
     98      -3.7294      2.00000
     99      -3.6245      2.00000
    100      -3.5152      2.00000
    101      -3.4935      2.00000
    102      -3.4925      2.00000
    103      -3.4893      2.00000
    104      -3.4882      2.00000
    105      -3.4872      2.00000
    106      -3.4536      2.00000
    107      -3.4519      2.00000
    108      -3.4210      2.00000
    109      -3.4089      2.00000
    110      -3.4033      2.00000
    111      -3.3774      2.00000
    112      -3.3659      2.00000
    113      -3.3618      2.00000
    114      -3.3398      2.00000
    115      -3.2665      2.00000
    116      -3.2417      2.00000
    117      -3.2354      2.00000
    118      -3.2185      2.00000
    119      -3.2180      2.00000
    120      -3.2066      2.00000
    121      -3.1735      2.00000
    122      -3.1696      2.00000
    123      -3.1359      2.00000
    124      -3.1287      2.00000
    125      -3.1252      2.00000
    126      -3.1226      2.00000
    127      -3.1052      2.00000
    128      -3.1041      2.00000
    129      -3.1017      2.00000
    130      -3.0936      2.00000
    131      -3.0864      2.00000
    132      -3.0848      2.00000
    133      -3.0352      2.00000
    134      -3.0329      2.00000
    135      -2.9830      2.00000
    136      -2.9216      2.00000
    137      -2.9215      2.00000
    138      -2.9139      2.00000
    139      -2.9090      2.00000
    140      -2.9021      2.00000
    141      -2.9002      2.00000
    142      -2.8883      2.00000
    143      -2.8826      2.00000
    144      -2.8759      2.00000
    145      -2.8754      2.00000
    146      -2.8652      2.00000
    147      -2.8643      2.00000
    148      -2.8182      2.00000
    149      -2.8090      2.00000
    150      -2.8031      2.00000
    151      -2.8022      2.00000
    152      -2.7961      2.00000
    153      -2.7860      2.00000
    154      -2.7859      2.00000
    155      -2.7543      2.00000
    156      -2.7503      2.00000
    157      -2.7475      2.00000
    158      -2.7397      2.00000
    159      -2.7340      2.00000
    160      -2.7108      2.00000
    161      -2.7068      2.00000
    162      -2.7047      2.00000
    163      -2.7033      2.00000
    164      -2.6976      2.00000
    165      -2.6699      2.00000
    166      -2.6647      2.00000
    167      -2.6471      2.00000
    168      -2.6468      2.00000
    169      -2.6433      2.00000
    170      -2.6423      2.00000
    171      -2.6205      2.00000
    172      -2.6104      2.00000
    173      -2.6046      2.00000
    174      -2.5445      2.00000
    175      -2.5434      2.00000
    176      -2.5167      2.00000
    177      -2.5096      2.00000
    178      -2.5087      2.00000
    179      -2.5074      2.00000
    180      -2.4845      2.00000
    181      -2.4275      2.00000
    182      -2.4036      2.00000
    183      -2.4018      2.00000
    184      -2.3965      2.00000
    185      -2.2181      2.00000
    186      -2.0876      2.00000
    187      -1.6695      2.00000
    188      -1.6481      2.00000
    189      -1.6310      2.00000
    190      -1.6203      2.00000
    191      -1.3922      2.00000
    192      -1.2699      2.00000
    193      -0.4123      2.00000
    194      -0.2734      2.00000
    195      -0.1411      2.00000
    196      -0.0382      2.00000
    197       0.0123      2.00000
    198       0.1071      2.00000
    199       0.2922      2.00000
    200       0.4209      0.00000
    201       0.4693      0.00000
    202       0.5469      0.00000
    203       0.8281      0.00000
    204       1.8137      0.00000
    205       2.3030      0.00000
    206       2.3449      0.00000
    207       2.3519      0.00000
    208       2.6385      0.00000
    209       2.6965      0.00000
    210       3.5742      0.00000
    211       3.6938      0.00000
    212       3.7514      0.00000
    213       3.8843      0.00000
    214       3.9382      0.00000
    215       3.9532      0.00000
    216       4.3520      0.00000
    217       4.3670      0.00000
    218       4.5761      0.00000
    219       4.6725      0.00000
    220       4.6832      0.00000
    221       4.7134      0.00000
    222       4.7137      0.00000
    223       4.7502      0.00000
    224       4.7545      0.00000
    225       4.8254      0.00000
    226       4.9340      0.00000
    227       4.9691      0.00000
    228       5.0091      0.00000
    229       5.0602      0.00000
    230       5.7860      0.00000
    231       5.9784      0.00000
    232       6.1101      0.00000
    233       6.1498      0.00000
    234       6.3171      0.00000
    235       6.4056      0.00000
    236       6.4853      0.00000
    237       6.5379      0.00000
    238       6.6260      0.00000
    239       6.6590      0.00000
    240       6.6819      0.00000

 k-point     2 :       0.1250   -0.0000    0.0000
  band No.  band energies     occupation 
      1      -6.7628      2.00000
      2      -6.1413      2.00000
      3      -5.6771      2.00000
      4      -5.4715      2.00000
      5      -5.4638      2.00000
      6      -5.4243      2.00000
      7      -5.4062      2.00000
      8      -5.4020      2.00000
      9      -5.3911      2.00000
     10      -5.3808      2.00000
     11      -5.3741      2.00000
     12      -5.3567      2.00000
     13      -5.3509      2.00000
     14      -5.3050      2.00000
     15      -5.2868      2.00000
     16      -5.2833      2.00000
     17      -5.2719      2.00000
     18      -5.2397      2.00000
     19      -5.2371      2.00000
     20      -5.1503      2.00000
     21      -5.1255      2.00000
     22      -5.1062      2.00000
     23      -5.0752      2.00000
     24      -5.0632      2.00000
     25      -5.0583      2.00000
     26      -5.0461      2.00000
     27      -5.0075      2.00000
     28      -4.9851      2.00000
     29      -4.9631      2.00000
     30      -4.9555      2.00000
     31      -4.9284      2.00000
     32      -4.9167      2.00000
     33      -4.9053      2.00000
     34      -4.8731      2.00000
     35      -4.8559      2.00000
     36      -4.8472      2.00000
     37      -4.8243      2.00000
     38      -4.7988      2.00000
     39      -4.7533      2.00000
     40      -4.7259      2.00000
     41      -4.6788      2.00000
     42      -4.6749      2.00000
     43      -4.6613      2.00000
     44      -4.6406      2.00000
     45      -4.6316      2.00000
     46      -4.6152      2.00000
     47      -4.6072      2.00000
     48      -4.5685      2.00000
     49      -4.5457      2.00000
     50      -4.5208      2.00000
     51      -4.4627      2.00000
     52      -4.4219      2.00000
     53      -4.4093      2.00000
     54      -4.3944      2.00000
     55      -4.3638      2.00000
     56      -4.3312      2.00000
     57      -4.2444      2.00000
     58      -4.2312      2.00000
     59      -4.2166      2.00000
     60      -4.2106      2.00000
     61      -4.2085      2.00000
     62      -4.1905      2.00000
     63      -4.1860      2.00000
     64      -4.1712      2.00000
     65      -4.1640      2.00000
     66      -4.1353      2.00000
     67      -4.1159      2.00000
     68      -4.0843      2.00000
     69      -4.0678      2.00000
     70      -4.0599      2.00000
     71      -4.0469      2.00000
     72      -4.0255      2.00000
     73      -4.0247      2.00000
     74      -4.0196      2.00000
     75      -4.0101      2.00000
     76      -3.9989      2.00000
     77      -3.9905      2.00000
     78      -3.9816      2.00000
     79      -3.9723      2.00000
     80      -3.9685      2.00000
     81      -3.9431      2.00000
     82      -3.9366      2.00000
     83      -3.9280      2.00000
     84      -3.9222      2.00000
     85      -3.9182      2.00000
     86      -3.9036      2.00000
     87      -3.8916      2.00000
     88      -3.8814      2.00000
     89      -3.8498      2.00000
     90      -3.8240      2.00000
     91      -3.8224      2.00000
     92      -3.7795      2.00000
     93      -3.7739      2.00000
     94      -3.7422      2.00000
     95      -3.7192      2.00000
     96      -3.6524      2.00000
     97      -3.6357      2.00000
     98      -3.6282      2.00000
     99      -3.6041      2.00000
    100      -3.5580      2.00000
    101      -3.5418      2.00000
    102      -3.5358      2.00000
    103      -3.5179      2.00000
    104      -3.5083      2.00000
    105      -3.4896      2.00000
    106      -3.4860      2.00000
    107      -3.4760      2.00000
    108      -3.4521      2.00000
    109      -3.4197      2.00000
    110      -3.4163      2.00000
    111      -3.3883      2.00000
    112      -3.3818      2.00000
[...]
  0.000   0.000   0.000   0.000   0.000   0.000   0.000   0.000   0.000   0.000   0.000   0.000   0.000   0.000   0.000   0.000
  0.000   0.000   0.000   0.000   0.000   0.000   0.000   0.000   0.000   0.000   0.000   0.000   0.000   0.000   0.000   0.000
  0.000   0.000   0.000   0.000   0.000   0.000   0.000   0.000   0.000   0.000   1.000   0.000   0.000   0.000   0.000   0.000
  0.000   0.000   0.000   0.000   0.000   0.000   0.000   0.000   0.000   0.000   0.000   0.000   0.000   0.000   0.000   0.000
  0.000   0.000   0.000   0.000   0.000   0.000   0.000   0.000   0.000   0.000   0.000   0.000   0.000   0.000   0.000   0.000
  0.000   0.000   0.000   0.000   0.000   0.000   0.000   0.000   0.000   0.000   0.000   0.000   0.000   0.000   0.000   0.000
  0.000   0.000   0.000   0.000   0.000   0.000   0.000   0.000   0.000   0.000   0.000   0.000   0.000   0.000   0.000   0.000
  0.000   0.000   0.000   0.000   0.000   0.000   0.000   0.000   0.000   0.000   0.000   0.000   0.000   0.000   0.000   0.000
  0.000   0.000   0.000   0.000   0.000   0.000   0.000   0.000   0.000   0.000   0.000   0.000   0.000   0.000   0.000   0.000
  0.000   0.000   0.000   0.000   0.000   0.000   0.000   0.000   0.000   0.000   0.000   0.000   0.000   0.000   0.000   0.000


------------------------ aborting loop because EDIFF is reached ----------------------------------------





 total charge

# of ion       s       p       d       tot
------------------------------------------
    1        0.419   0.201   9.179   9.799
    2        0.417   0.203   9.178   9.798
    3        0.417   0.203   9.178   9.798
    4        0.418   0.203   9.177   9.798
    5        0.418   0.202   9.175   9.796
    6        0.418   0.203   9.177   9.798
    7        0.416   0.203   9.177   9.797
    8        0.416   0.203   9.177   9.797
    9        0.415   0.202   9.179   9.796
   10        0.409   0.270   9.162   9.840
   11        0.411   0.267   9.169   9.847
   12        0.409   0.270   9.162   9.840
   13        0.410   0.268   9.168   9.846
   14        0.410   0.268   9.168   9.846
   15        0.403   0.268   9.166   9.837
   16        0.410   0.269   9.162   9.841
   17        0.402   0.270   9.165   9.838
   18        0.402   0.270   9.165   9.838
   19        0.397   0.266   9.166   9.830
   20        0.436   0.305   9.141   9.882
   21        0.436   0.305   9.141   9.882
   22        0.392   0.275   9.166   9.833
   23        0.444   0.304   9.136   9.885
   24        0.392   0.275   9.166   9.833
   25        0.402   0.263   9.168   9.832
   26        0.402   0.263   9.168   9.832
   27        0.392   0.273   9.168   9.833
   28        0.415   0.194   9.180   9.789
   29        0.417   0.220   9.170   9.806
   30        0.417   0.220   9.170   9.806
   31        0.410   0.235   9.161   9.805
   32        0.410   0.235   9.161   9.805
   33        0.426   0.219   9.160   9.805
   34        0.426   0.219   9.160   9.805
   35        0.405   0.197   9.182   9.784
   36        0.537   0.436   4.850   5.823
   37        0.514   0.019   0.000   0.533
   38        0.514   0.019   0.000   0.533
--------------------------------------------------
tot         16.001   8.983 325.702 350.687
 
    CHARGE:  cpu time    0.9020: real time    0.9020
    FORLOC:  cpu time    0.0198: real time    0.0198
    FORNL :  cpu time    4.1249: real time    4.1251
    STRESS:  cpu time   12.3787: real time   12.3793
    FORCOR:  cpu time    0.0704: real time    0.0704
    FORHAR:  cpu time    0.0300: real time    0.0301
    OFIELD:  cpu time    0.0004: real time    0.0004

  FORCE on cell =-STRESS in cart. coord.  units (eV):
  Direction    XX          YY          ZZ          XY          YZ          ZX
  --------------------------------------------------------------------------------------
  Alpha Z   704.49612   704.49612   704.49612
  Ewald  143718.30394143694.86975************     0.00000    -2.12104     0.00000
  Hartree153572.54498153566.88129************     0.00000     3.77295    -0.00000
  E(xc)   -2066.58771 -2066.65138 -2073.18424    -0.00003     0.17705    -0.00000
  Local  ************************308718.39957     0.00030    -2.72322    -0.00004
  n-local  -344.32373  -345.69007  -348.07243     2.53833     0.37615     0.26963
  augment  3228.20156  3228.24089  3240.10165    -0.00014    -0.18052    -0.00004
  Kinetic  4878.04263  4881.64115  4910.27075     1.54666     0.75879    -0.25662
  Fock        0.00000     0.00000     0.00000     0.00000     0.00000     0.00000
  -------------------------------------------------------------------------------------
  Total      -8.87308    -8.51367     0.90935    -0.00000     0.06016     0.00000
  in kB      -8.93002    -8.56831     0.91518    -0.00000     0.06055     0.00000
  external pressure =       -5.53 kB  Pullay stress =        0.00 kB


 VOLUME and BASIS-vectors are now :
 -----------------------------------------------------------------------------
  energy-cutoff  :      500.00
  volume of cell :     1591.96
      direct lattice vectors                 reciprocal lattice vectors
     8.791366577  0.000000000  0.000000000     0.113747958 -0.065672414  0.000000000
     4.395683289  7.613546790  0.000000000     0.000000000  0.131344829  0.000000000
     0.000000000  0.000000000 23.784231313     0.000000000  0.000000000  0.042044663

  length of vectors
     8.791366577  8.791366577 23.784231313     0.131344829  0.131344829  0.042044663


 FORCES acting on ions
    electron-ion (+dipol)            ewald-force                    non-local-force                 convergence-correction
 -----------------------------------------------------------------------------------------------
   0.462E-04 0.188E-01 0.262E+04   -.954E-04 -.198E-01 -.262E+04   0.272E-12 0.415E-01 -.219E+01   -.273E-04 -.404E-01 -.480E-01
   0.874E-01 0.280E+00 0.262E+04   -.368E+00 -.385E+00 -.262E+04   0.147E+00 0.127E+00 -.153E+01   0.124E+00 -.126E-01 -.474E-01
   -.873E-01 0.280E+00 0.262E+04   0.368E+00 -.385E+00 -.262E+04   -.147E+00 0.127E+00 -.153E+01   -.124E+00 -.107E-01 -.469E-01
   0.406E+00 -.398E-01 0.262E+04   -.500E+00 -.114E+00 -.262E+04   0.856E-01 0.324E-01 -.157E+01   0.316E-01 0.114E+00 -.724E-02
   -.798E-05 0.568E-02 0.262E+04   0.980E-04 0.224E-01 -.262E+04   -.143E-12 -.218E-01 -.119E+01   0.615E-02 0.255E-02 0.328E-01
   -.406E+00 -.397E-01 0.262E+04   0.500E+00 -.114E+00 -.262E+04   -.856E-01 0.324E-01 -.157E+01   -.329E-01 0.115E+00 -.661E-02
   0.835E-01 -.292E+00 0.262E+04   -.132E+00 0.499E+00 -.262E+04   0.839E-01 -.142E+00 -.146E+01   -.267E-01 -.736E-01 -.731E-02
   -.835E-01 -.292E+00 0.262E+04   0.132E+00 0.499E+00 -.262E+04   -.839E-01 -.142E+00 -.146E+01   0.283E-01 -.745E-01 -.720E-02
   0.362E-04 0.802E-01 0.262E+04   0.792E-04 -.195E-02 -.262E+04   -.327E-12 -.498E-01 -.194E+01   -.665E-02 -.255E-01 -.464E-01
   0.499E+01 0.285E+01 0.863E+03   -.457E+01 -.268E+01 -.862E+03   -.468E+00 -.209E+00 -.910E+00   0.387E-01 0.293E-01 0.355E+00
   -.284E-04 0.363E+01 0.866E+03   0.407E-04 -.398E+01 -.867E+03   0.168E-11 0.255E+00 -.290E+00   0.582E-02 0.267E-01 0.335E+00
   -.499E+01 0.285E+01 0.863E+03   0.457E+01 -.268E+01 -.862E+03   0.468E+00 -.209E+00 -.910E+00   -.396E-01 0.299E-01 0.353E+00
   0.333E+01 -.194E+01 0.866E+03   -.340E+01 0.214E+01 -.866E+03   0.637E-01 -.176E+00 -.341E+00   -.282E-01 0.167E-01 0.304E+00
   -.333E+01 -.194E+01 0.866E+03   0.340E+01 0.214E+01 -.866E+03   -.637E-01 -.176E+00 -.341E+00   0.383E-01 0.162E-01 0.302E+00
   0.158E-04 0.120E+01 0.863E+03   -.108E-03 -.134E+01 -.863E+03   0.332E-12 0.505E-01 -.798E+00   -.107E-02 0.594E-01 0.337E+00
   -.776E-05 -.576E+01 0.862E+03   0.205E-04 0.515E+01 -.862E+03   0.430E-11 0.655E+00 -.798E+00   0.457E-05 -.413E-01 0.294E+00
   0.119E+01 -.479E+00 0.863E+03   -.130E+01 0.630E+00 -.862E+03   0.857E-01 -.704E-01 -.824E+00   0.942E-02 -.605E-01 0.276E+00
   -.119E+01 -.479E+00 0.863E+03   0.130E+01 0.630E+00 -.862E+03   -.857E-01 -.704E-01 -.824E+00   -.954E-02 -.593E-01 0.276E+00
   0.388E-04 -.111E+01 -.920E+03   -.127E-03 0.964E+00 0.919E+03   0.392E-12 0.597E-01 0.798E+00   0.689E-02 0.740E-01 0.390E+00
   -.258E+01 -.189E+01 -.898E+03   0.372E+01 0.258E+01 0.898E+03   -.133E+01 -.837E+00 -.141E+01   0.102E+00 0.438E-01 0.530E+00
   0.258E+01 -.189E+01 -.898E+03   -.372E+01 0.258E+01 0.898E+03   0.133E+01 -.837E+00 -.141E+01   -.114E+00 0.439E-01 0.529E+00
   -.605E+01 0.290E+01 -.912E+03   0.581E+01 -.267E+01 0.911E+03   0.256E+00 -.209E+00 0.492E+00   0.438E-01 -.505E-01 0.365E+00
   -.523E-04 0.224E+01 -.900E+03   0.402E-04 -.374E+01 0.901E+03   0.117E-10 0.178E+01 -.170E+01   -.570E-02 -.112E+00 0.595E+00
   0.605E+01 0.290E+01 -.912E+03   -.581E+01 -.267E+01 0.911E+03   -.256E+00 -.209E+00 0.492E+00   -.424E-01 -.482E-01 0.366E+00
   0.538E+00 0.136E+01 -.921E+03   -.447E+00 -.138E+01 0.920E+03   -.623E-01 0.470E-01 0.798E+00   -.387E-01 -.144E-01 0.465E+00
   -.538E+00 0.136E+01 -.921E+03   0.446E+00 -.138E+01 0.920E+03   0.623E-01 0.470E-01 0.798E+00   0.497E-01 -.129E-01 0.465E+00
   0.195E-04 -.624E+01 -.911E+03   0.110E-03 0.557E+01 0.910E+03   0.394E-11 0.600E+00 0.536E+00   -.189E-02 0.924E-01 0.396E+00
   0.534E-04 0.300E+01 -.262E+04   -.114E-03 -.293E+01 0.262E+04   -.479E-12 -.729E-01 0.196E+01   -.635E-03 -.551E-01 0.790E-01
   0.270E+01 0.100E+02 -.263E+04   -.150E+01 -.900E+01 0.263E+04   -.128E+01 -.123E+01 0.190E+01   0.626E-01 0.787E-01 0.267E-01
   -.270E+01 0.100E+02 -.263E+04   0.150E+01 -.900E+01 0.263E+04   0.128E+01 -.123E+01 0.190E+01   -.537E-01 0.798E-01 0.277E-01
   0.969E+01 -.443E+01 -.263E+04   -.857E+01 0.478E+01 0.262E+04   -.141E+01 -.344E+00 0.211E+01   0.200E+00 0.448E-01 0.364E-01
   -.969E+01 -.443E+01 -.263E+04   0.857E+01 0.478E+01 0.262E+04   0.141E+01 -.344E+00 0.211E+01   -.190E+00 0.461E-01 0.379E-01
   -.224E+01 -.490E+00 -.263E+04   0.301E+01 -.870E+00 0.263E+04   -.933E+00 0.161E+01 0.140E+01   0.173E+00 -.192E+00 0.852E-01
   0.224E+01 -.490E+00 -.263E+04   -.301E+01 -.870E+00 0.263E+04   0.933E+00 0.161E+01 0.140E+01   -.161E+00 -.192E+00 0.856E-01
   0.251E-04 -.195E+00 -.262E+04   0.104E-03 0.199E-01 0.262E+04   0.106E-11 0.161E+00 0.216E+01   -.768E-02 0.928E-02 0.102E+00
   -.237E-04 -.133E+02 -.155E+04   0.677E-04 0.125E+02 0.155E+04   0.574E-11 0.874E+00 -.226E+01   -.151E-03 0.934E-01 0.125E+00
   0.136E+01 -.752E+00 -.295E+03   -.233E+01 0.361E+00 0.297E+03   0.942E+00 0.368E+00 -.199E+01   0.220E-01 0.240E-01 -.393E-01
   -.136E+01 -.752E+00 -.295E+03   0.233E+01 0.361E+00 0.297E+03   -.942E+00 0.368E+00 -.199E+01   -.221E-01 0.241E-01 -.393E-01
 -----------------------------------------------------------------------------------------------
   0.315E-03 -.226E+01 0.513E+01   -.133E-13 -.862E-13 -.449E-11   0.149E-10 0.227E+01 -.124E+02   0.350E-01 -.115E-01 0.728E+01
 
 
 POSITION                                       TOTAL-FORCE (eV/Angst)
 -----------------------------------------------------------------------------------
      0.00000      0.00000      5.28219         0.000000      0.000089     -0.040315
      2.93046      0.00000      5.28219        -0.009952      0.009854      0.024299
      5.86091      0.00000      5.28219         0.009952      0.009854      0.024299
      1.46523      2.53785      5.28219         0.023257     -0.006467      0.023162
      4.39568      2.53785      5.28219         0.000000      0.008860     -0.014864
      7.32614      2.53785      5.28219        -0.023257     -0.006467      0.023162
      2.93046      5.07570      5.28219         0.007658     -0.008380      0.021304
      5.86091      5.07570      5.28219        -0.007658     -0.008380      0.021304
      8.79137      5.07570      5.28219         0.000000      0.003046      0.007934
      1.46523      0.84595      7.67490        -0.008813     -0.008271     -0.018313
      4.39568      0.84595      7.67490        -0.000000     -0.071795     -0.097862
      7.32614      0.84595      7.67490         0.008813     -0.008271     -0.018313
      2.93046      3.38380      7.67490        -0.036086      0.039733     -0.062975
      5.86091      3.38380      7.67490         0.036086      0.039733     -0.062975
      8.79137      3.38380      7.67490        -0.000000     -0.023282     -0.000233
      4.39568      5.92165      7.67490        -0.000000     -0.003123     -0.009514
      7.32614      5.92165      7.67490        -0.015113      0.021339      0.023809
     10.25659      5.92165      7.67490         0.015113      0.021339      0.023809
      8.79137      1.69725     10.06774        -0.000000     -0.009535      0.079195
      2.92950      1.69135     10.02116        -0.075164     -0.103212     -0.174356
      5.86187      1.69135     10.02116         0.075164     -0.103212     -0.174356
     10.25061      4.23320     10.05696         0.055207     -0.024405      0.022658
      4.39568      4.23086     10.02116         0.000000      0.172076     -0.188842
      7.33212      4.23320     10.05696        -0.055207     -0.024405      0.022658
     11.71719      6.76492     10.06774        -0.015122      0.015213      0.020298
      5.86555      6.76492     10.06774         0.015122      0.015213      0.020298
      8.79137      6.76069     10.05696         0.000000      0.019861      0.014036
      0.00000      0.00000     12.43040        -0.000000     -0.053738      0.000477
      2.96174      0.05879     12.46433        -0.022750     -0.133339     -0.039144
      5.82963      0.05879     12.46433         0.022750     -0.133339     -0.039144
      1.53179      2.53554     12.46433        -0.090785      0.051990     -0.043002
      7.25958      2.53554     12.46433         0.090785      0.051990     -0.043002
      2.96573      5.01921     12.46433         0.001136      0.061926     -0.063754
      5.82563      5.01921     12.46433        -0.001136      0.061926     -0.063754
      8.79137      5.07570     12.42552        -0.000000     -0.004559      0.024978
      4.39568      2.53785     12.19879         0.000000      0.129362      0.757452
      3.51047      2.22763     13.60381        -0.001463      0.000389     -0.000205
      5.28090      2.22763     13.60381         0.001463      0.000389     -0.000205
 -----------------------------------------------------------------------------------
    total drift:                                0.035321     -0.002563      0.024427


--------------------------------------------------------------------------------------------------------



  FREE ENERGIE OF THE ION-ELECTRON SYSTEM (eV)
  ---------------------------------------------------
  free  energy   TOTEN  =      -105.44921312 eV

  energy  without entropy=     -105.44921312  energy(sigma->0) =     -105.44921312
 


--------------------------------------------------------------------------------------------------------


    POTLOK:  cpu time    0.0655: real time    0.0655


--------------------------------------------------------------------------------------------------------


 stress matrix after NEB project (eV)
     -8.87308     -0.00000      0.00000
     -0.00000     -8.51367      0.06016
      0.00000      0.06016      0.90935
  FORCES: max atom, RMS     0.001528    0.000350
  FORCE total and by dimension    0.002160    0.001463
  Stress total and by dimension   12.330788    8.873081
     LOOP+:  cpu time  221.4609: real time  221.4792
 -----------------------------------------------------------------------------
|                                                                             |
|           W    W    AA    RRRRR   N    N  II  N    N   GGGG   !!!           |
|           W    W   A  A   R    R  NN   N  II  NN   N  G    G  !!!           |
|           W    W  A    A  R    R  N N  N  II  N N  N  G       !!!           |
|           W WW W  AAAAAA  RRRRR   N  N N  II  N  N N  G  GGG   !            |
|           WW  WW  A    A  R   R   N   NN  II  N   NN  G    G                |
|           W    W  A    A  R    R  N    N  II  N    N   GGGG   !!!           |
|                                                                             |
|     Tetrahedron method does not include variations of the Fermi             |
|     occupations, so forces and stress will be inaccurate. We suggest        |
|     using a different smearing scheme ISMEAR = 1 or 2 for metals in         |
|     relaxations.                                                            |
|                                                                             |
 -----------------------------------------------------------------------------

    4ORBIT:  cpu time    0.0000: real time    0.0000



 total charge

# of ion       s       p       d       tot
------------------------------------------
    1        0.419   0.201   9.179   9.799
    2        0.417   0.203   9.178   9.798
    3        0.417   0.203   9.178   9.798
    4        0.418   0.203   9.177   9.798
    5        0.418   0.202   9.175   9.796
    6        0.418   0.203   9.177   9.798
    7        0.416   0.203   9.177   9.797
    8        0.416   0.203   9.177   9.797
    9        0.415   0.202   9.179   9.796
   10        0.409   0.270   9.162   9.840
   11        0.411   0.267   9.169   9.847
   12        0.409   0.270   9.162   9.840
   13        0.410   0.268   9.168   9.846
   14        0.410   0.268   9.168   9.846
   15        0.403   0.268   9.166   9.837
   16        0.410   0.269   9.162   9.841
   17        0.402   0.270   9.165   9.838
   18        0.402   0.270   9.165   9.838
   19        0.397   0.266   9.166   9.830
   20        0.436   0.305   9.141   9.882
   21        0.436   0.305   9.141   9.882
   22        0.392   0.275   9.166   9.833
   23        0.444   0.304   9.136   9.885
   24        0.392   0.275   9.166   9.833
   25        0.402   0.263   9.168   9.832
   26        0.402   0.263   9.168   9.832
   27        0.392   0.273   9.168   9.833
   28        0.415   0.194   9.180   9.789
   29        0.417   0.220   9.170   9.806
   30        0.417   0.220   9.170   9.806
   31        0.410   0.235   9.161   9.805
   32        0.410   0.235   9.161   9.805
   33        0.426   0.219   9.160   9.805
   34        0.426   0.219   9.160   9.805
   35        0.405   0.197   9.182   9.784
   36        0.537   0.436   4.850   5.823
   37        0.514   0.019   0.000   0.533
   38        0.514   0.019   0.000   0.533
--------------------------------------------------
tot         16.001   8.983 325.702 350.687
 
 BZINTS: Fermi energy:    0.416904;  394.000000 electrons
         Band energy:-0.142629E+04;  BLOECHL correction:   -0.025376

 total amount of memory used by VASP MPI-rank0   284099. kBytes
=======================================================================

   base      :      30000. kBytes
   nonlr-proj:      16113. kBytes
   fftplans  :       6755. kBytes
   grid      :      23316. kBytes
   one-center:        590. kBytes
   wavefun   :     207325. kBytes
 
  
  
 General timing and accounting informations for this job:
 ========================================================
  
                  Total CPU time used (sec):      235.992
                            User time (sec):      228.600
                          System time (sec):        7.392
                         Elapsed time (sec):      236.289
  
                   Maximum memory used (kb):      553132.
                   Average memory used (kb):          N/A
  
                          Minor page faults:        97744
                          Major page faults:            0
                 Voluntary context switches:         4910
