PROCAR new format
# of k-points:   10         # of bands:  252         # of ions:   36

 k-point     1 :    0.00000000 0.00000000 0.00000000     weight = 0.01562500

band     1 # energy   -6.33230564 # occ.  2.00000000
 
ion      s      p      d    tot
    1  0.006  0.001  0.000  0.007
    2  0.006  0.001  0.000  0.007
    3  0.006  0.001  0.000  0.007
    4  0.006  0.001  0.000  0.007
    5  0.006  0.001  0.000  0.006
    6  0.006  0.001  0.000  0.007
    7  0.006  0.001  0.000  0.007
    8  0.006  0.001  0.000  0.007
    9  0.006  0.001  0.000  0.006
   10  0.023  0.000  0.000  0.024
   11  0.024  0.000  0.000  0.024
   12  0.023  0.000  0.000  0.024
   13  0.024  0.000  0.000  0.024
   14  0.024  0.000  0.000  0.024
   15  0.023  0.000  0.000  0.023
   16  0.023  0.000  0.000  0.024
   17  0.023  0.000  0.000  0.023
   18  0.023  0.000  0.000  0.023
   19  0.021  0.000  0.000  0.022
   20  0.025  0.000  0.000  0.025
   21  0.025  0.000  0.000  0.025
   22  0.022  0.000  0.000  0.023
   23  0.025  0.000  0.000  0.025
   24  0.022  0.000  0.000  0.023
   25  0.021  0.000  0.000  0.022
   26  0.021  0.000  0.000  0.022
   27  0.022  0.000  0.000  0.023
   28  0.005  0.001  0.000  0.006
   29  0.006  0.001  0.000  0.007
   30  0.006  0.001  0.000  0.007
   31  0.006  0.001  0.000  0.007
   32  0.006  0.001  0.000  0.007
   33  0.006  0.001  0.000  0.007
   34  0.006  0.001  0.000  0.007
   35  0.006  0.001  0.000  0.006
   36  0.014  0.001  0.000  0.015
tot    0.528  0.013  0.006  0.546
 
band     2 # energy   -5.46734845 # occ.  2.00000000
 
ion      s      p      d    tot
    1  0.009  0.000  0.001  0.010
    2  0.009  0.000  0.001  0.010
    3  0.009  0.000  0.001  0.010
    4  0.009  0.000  0.001  0.010
    5  0.009  0.000  0.001  0.010
    6  0.009  0.000  0.001  0.010
    7  0.009  0.000  0.001  0.010
    8  0.009  0.000  0.001  0.010
    9  0.010  0.000  0.001  0.011
   10  0.011  0.001  0.013  0.025
   11  0.011  0.001  0.013  0.025
   12  0.011  0.001  0.013  0.025
   13  0.011  0.001  0.013  0.025
   14  0.011  0.001  0.013  0.025
   15  0.012  0.001  0.012  0.025
   16  0.011  0.001  0.013  0.025
   17  0.012  0.001  0.012  0.025
   18  0.012  0.001  0.012  0.025
   19  0.010  0.001  0.012  0.022
   20  0.013  0.002  0.010  0.025
   21  0.013  0.002  0.010  0.025
   22  0.010  0.001  0.012  0.023
   23  0.013  0.002  0.010  0.025
   24  0.010  0.001  0.012  0.023
   25  0.010  0.001  0.012  0.022
   26  0.010  0.001  0.012  0.022
   27  0.010  0.001  0.012  0.023
   28  0.008  0.000  0.000  0.009
   29  0.009  0.000  0.001  0.011
   30  0.009  0.000  0.001  0.011
   31  0.009  0.000  0.001  0.011
   32  0.009  0.000  0.001  0.011
   33  0.009  0.000  0.001  0.011
   34  0.009  0.000  0.001  0.011
   35  0.008  0.000  0.000  0.008
   36  0.025  0.001  0.000  0.026
tot    0.378  0.028  0.230  0.635
 
band     3 # energy   -5.19451383 # occ.  2.00000000
 
ion      s      p      d    tot
    1  0.007  0.000  0.023  0.030
    2  0.010  0.000  0.016  0.026
    3  0.010  0.000  0.016  0.026
    4  0.010  0.000  0.016  0.026
    5  0.010  0.000  0.014  0.024
    6  0.010  0.000  0.016  0.026
    7  0.010  0.000  0.016  0.026
    8  0.010  0.000  0.016  0.026
    9  0.013  0.000  0.015  0.027
   10  0.002  0.000  0.023  0.024
   11  0.001  0.000  0.024  0.025
   12  0.002  0.000  0.023  0.024
   13  0.001  0.000  0.024  0.025
   14  0.001  0.000  0.024  0.025
   15  0.000  0.000  0.022  0.023
   16  0.002  0.000  0.023  0.024
   17  0.000  0.000  0.022  0.023
   18  0.000  0.000  0.022  0.023
   19  0.002  0.000  0.015  0.017
   20  0.000  0.000  0.028  0.028
   21  0.000  0.000  0.028  0.028
   22  0.002  0.000  0.014  0.016
   23  0.000  0.000  0.028  0.028
   24  0.002  0.000  0.014  0.016
   25  0.002  0.000  0.015  0.017
   26  0.002  0.000  0.015  0.017
   27  0.002  0.000  0.014  0.016
   28  0.003  0.000  0.011  0.014
   29  0.006  0.000  0.011  0.017
   30  0.006  0.000  0.011  0.017
   31  0.006  0.000  0.011  0.017
   32  0.006  0.000  0.011  0.017
   33  0.006  0.000  0.011  0.017
   34  0.006  0.000  0.011  0.017
   35  0.003  0.000  0.009  0.012
   36  0.024  0.000  0.003  0.027
tot    0.169  0.005  0.618  0.792
 
band     4 # energy   -5.07578112 # occ.  2.00000000
 
ion      s      p      d    tot
    1  0.018  0.001  0.001  0.020
    2  0.005  0.000  0.014  0.019
    3  0.005  0.000  0.014  0.019
    4  0.005  0.000  0.014  0.019
    5  0.004  0.000  0.020  0.024
    6  0.005  0.000  0.014  0.019
    7  0.005  0.000  0.014  0.019
    8  0.005  0.000  0.014  0.019
    9  0.000  0.001  0.017  0.018
   10  0.002  0.000  0.050  0.052
   11  0.000  0.000  0.028  0.029
   12  0.002  0.000  0.050  0.052
   13  0.000  0.000  0.028  0.029
   14  0.000  0.000  0.028  0.029
   15  0.012  0.001  0.004  0.017
   16  0.002  0.000  0.050  0.052
   17  0.012  0.001  0.004  0.017
   18  0.012  0.001  0.004  0.017
   19  0.002  0.000  0.022  0.025
   20  0.004  0.000  0.034  0.038
   21  0.004  0.000  0.034  0.038
   22  0.009  0.001  0.001  0.011
   23  0.004  0.000  0.034  0.038
   24  0.009  0.001  0.001  0.011
   25  0.002  0.000  0.022  0.025
   26  0.002  0.000  0.022  0.025
   27  0.009  0.001  0.001  0.011
   28  0.001  0.000  0.007  0.008
   29  0.001  0.000  0.010  0.011
   30  0.001  0.000  0.010  0.011
   31  0.001  0.000  0.010  0.011
   32  0.001  0.000  0.010  0.011
   33  0.001  0.000  0.010  0.011
   34  0.001  0.000  0.010  0.011
   35  0.001  0.000  0.002  0.003
   36  0.026  0.002  0.000  0.028
tot    0.172  0.016  0.604  0.792
 
band     5 # energy   -5.03676650 # occ.  2.00000000
 
ion      s      p      d    tot
    1  0.000  0.000  0.004  0.004
    2  0.000  0.000  0.003  0.003
    3  0.001  0.001  0.007  0.009
    4  0.000  0.000  0.003  0.003
    5  0.000  0.000  0.010  0.011
    6  0.002  0.001  0.005  0.008
    7  0.001  0.000  0.007  0.008
    8  0.002  0.001  0.004  0.007
    9  0.000  0.000  0.002  0.002
   10  0.006  0.001  0.018  0.024
   11  0.011  0.001  0.070  0.082
   12  0.001  0.000  0.077  0.078
   13  0.006  0.001  0.084  0.091
   14  0.032  0.001  0.012  0.045
   15  0.004  0.001  0.017  0.022
   16  0.002  0.000  0.065  0.067
   17  0.002  0.002  0.011  0.015
   18  0.011  0.000  0.042  0.053
   19  0.000  0.000  0.022  0.022
   20  0.011  0.001  0.027  0.039
   21  0.002  0.001  0.020  0.023
   22  0.003  0.000  0.033  0.036
   23  0.004  0.001  0.022  0.026
   24  0.015  0.001  0.007  0.023
   25  0.000  0.000  0.015  0.016
   26  0.000  0.000  0.023  0.024
   27  0.005  0.000  0.028  0.033
   28  0.000  0.000  0.001  0.001
   29  0.001  0.000  0.003  0.005
   30  0.000  0.000  0.002  0.002
   31  0.001  0.000  0.003  0.005
   32  0.000  0.000  0.002  0.002
   33  0.001  0.000  0.002  0.003
   34  0.000  0.000  0.002  0.003
   35  0.000  0.000  0.007  0.007
   36  0.000  0.000  0.002  0.002
tot    0.124  0.017  0.663  0.804
 
band     6 # energy   -5.03676455 # occ.  2.00000000
 
ion      s      p      d    tot
    1  0.000  0.000  0.004  0.004
    2  0.002  0.001  0.007  0.010
    3  0.001  0.000  0.003  0.004
    4  0.002  0.001  0.007  0.009
    5  0.000  0.000  0.010  0.011
    6  0.000  0.000  0.005  0.005
    7  0.001  0.000  0.003  0.004
    8  0.000  0.000  0.006  0.006
    9  0.000  0.000  0.002  0.002
   10  0.000  0.000  0.089  0.090
   11  0.022  0.001  0.041  0.063
   12  0.005  0.001  0.030  0.035
   13  0.027  0.001  0.026  0.054
   14  0.000  0.001  0.099  0.100
   15  0.007  0.001  0.029  0.037
   16  0.004  0.001  0.041  0.046
   17  0.009  0.000  0.035  0.045
   18  0.000  0.002  0.006  0.007
   19  0.000  0.000  0.018  0.019
   20  0.000  0.001  0.019  0.020
   21  0.009  0.001  0.026  0.036
   22  0.012  0.001  0.012  0.025
   23  0.007  0.001  0.024  0.033
   24  0.000  0.000  0.038  0.039
   25  0.000  0.000  0.025  0.025
   26  0.000  0.000  0.017  0.018
   27  0.010  0.001  0.017  0.028
   28  0.000  0.000  0.001  0.001
   29  0.000  0.000  0.002  0.002
   30  0.001  0.000  0.003  0.004
   31  0.000  0.000  0.002  0.002
   32  0.001  0.000  0.003  0.004
   33  0.001  0.000  0.003  0.004
   34  0.001  0.000  0.003  0.004
   35  0.000  0.000  0.007  0.007
   36  0.000  0.000  0.002  0.002
tot    0.124  0.017  0.663  0.804
 
band     7 # energy   -5.03262358 # occ.  2.00000000
 
ion      s      p      d    tot
    1  0.001  0.000  0.000  0.002
    2  0.000  0.000  0.006  0.006
    3  0.000  0.000  0.006  0.006
    4  0.000  0.000  0.006  0.006
    5  0.005  0.001  0.007  0.012
    6  0.000  0.000  0.006  0.006
    7  0.000  0.000  0.006  0.006
    8  0.000  0.000  0.006  0.006
    9  0.001  0.000  0.005  0.006
   10  0.009  0.001  0.003  0.013
   11  0.014  0.001  0.049  0.064
   12  0.009  0.001  0.003  0.013
   13  0.014  0.001  0.049  0.064
   14  0.015  0.001  0.048  0.064
   15  0.001  0.000  0.065  0.066
   16  0.009  0.001  0.003  0.013
   17  0.001  0.000  0.065  0.066
   18  0.001  0.000  0.064  0.065
   19  0.009  0.001  0.023  0.032
   20  0.004  0.001  0.014  0.019
   21  0.004  0.001  0.014  0.019
   22  0.001  0.000  0.042  0.043
   23  0.004  0.001  0.014  0.019
   24  0.001  0.000  0.042  0.043
   25  0.009  0.000  0.023  0.033
   26  0.009  0.001  0.023  0.032
   27  0.001  0.000  0.042  0.043
   28  0.003  0.001  0.003  0.007
   29  0.000  0.000  0.003  0.003
   30  0.000  0.000  0.003  0.003
   31  0.000  0.000  0.003  0.003
   32  0.000  0.000  0.003  0.003
   33  0.000  0.000  0.003  0.003
   34  0.000  0.000  0.003  0.003
   35  0.002  0.000  0.004  0.007
   36  0.000  0.000  0.000  0.000
tot    0.127  0.017  0.658  0.802
 
band     8 # energy   -5.02472271 # occ.  2.00000000
 
ion      s      p      d    tot
    1  0.000  0.000  0.007  0.008
    2  0.001  0.001  0.007  0.009
    3  0.001  0.000  0.003  0.004
    4  0.001  0.001  0.007  0.009
    5  0.000  0.000  0.000  0.000
    6  0.000  0.000  0.004  0.005
    7  0.001  0.000  0.003  0.004
    8  0.000  0.000  0.004  0.005
    9  0.000  0.000  0.009  0.009
   10  0.025  0.000  0.033  0.058
   11  0.000  0.001  0.039  0.040
   12  0.007  0.001  0.030  0.038
   13  0.000  0.001  0.039  0.040
   14  0.000  0.000  0.035  0.036
   15  0.005  0.000  0.095  0.100
   16  0.006  0.001  0.030  0.037
   17  0.006  0.000  0.092  0.098
   18  0.021  0.001  0.004  0.026
   19  0.003  0.001  0.022  0.026
   20  0.009  0.001  0.009  0.019
   21  0.002  0.000  0.032  0.034
   22  0.000  0.001  0.027  0.028
   23  0.002  0.000  0.033  0.035
   24  0.001  0.000  0.026  0.027
   25  0.014  0.001  0.017  0.032
   26  0.004  0.001  0.022  0.026
   27  0.000  0.001  0.027  0.028
   28  0.000  0.000  0.006  0.006
   29  0.000  0.000  0.002  0.002
   30  0.001  0.000  0.002  0.003
   31  0.000  0.000  0.002  0.002
   32  0.001  0.000  0.002  0.003
   33  0.001  0.000  0.002  0.003
   34  0.001  0.000  0.002  0.003
   35  0.000  0.000  0.002  0.002
   36  0.000  0.000  0.001  0.001
tot    0.112  0.015  0.682  0.809
 
band     9 # energy   -5.02469639 # occ.  2.00000000
 
ion      s      p      d    tot
    1  0.000  0.000  0.007  0.008
    2  0.000  0.000  0.003  0.003
    3  0.001  0.000  0.006  0.008
    4  0.000  0.000  0.003  0.003
    5  0.000  0.000  0.000  0.000
    6  0.001  0.001  0.005  0.007
    7  0.001  0.000  0.007  0.008
    8  0.001  0.001  0.005  0.007
    9  0.000  0.000  0.009  0.009
   10  0.000  0.001  0.029  0.031
   11  0.000  0.000  0.037  0.037
   12  0.018  0.001  0.032  0.051
   13  0.000  0.001  0.037  0.037
   14  0.000  0.001  0.041  0.042
   15  0.016  0.001  0.033  0.049
   16  0.019  0.001  0.032  0.052
   17  0.016  0.000  0.036  0.052
   18  0.000  0.000  0.123  0.123
   19  0.010  0.001  0.019  0.030
   20  0.000  0.000  0.040  0.040
   21  0.006  0.001  0.017  0.024
   22  0.001  0.000  0.027  0.028
   23  0.007  0.001  0.016  0.024
   24  0.000  0.001  0.027  0.028
   25  0.000  0.001  0.023  0.024
   26  0.010  0.001  0.019  0.030
   27  0.001  0.000  0.027  0.028
   28  0.000  0.000  0.006  0.006
   29  0.001  0.000  0.002  0.004
   30  0.000  0.000  0.002  0.002
   31  0.001  0.000  0.002  0.004
   32  0.000  0.000  0.002  0.003
   33  0.000  0.000  0.002  0.002
   34  0.000  0.000  0.002  0.003
   35  0.000  0.000  0.002  0.002
   36  0.000  0.000  0.001  0.001
tot    0.112  0.015  0.681  0.809
 
band    10 # energy   -5.01381845 # occ.  2.00000000
 
ion      s      p      d    tot
    1  0.002  0.000  0.013  0.014
    2  0.001  0.000  0.008  0.009
    3  0.001  0.000  0.008  0.009
    4  0.001  0.000  0.008  0.009
    5  0.001  0.000  0.005  0.007
    6  0.001  0.000  0.008  0.009
    7  0.001  0.000  0.008  0.009
    8  0.001  0.000  0.008  0.009
    9  0.001  0.000  0.000  0.001
   10  0.002  0.000  0.042  0.045
   11  0.004  0.001  0.016  0.021
   12  0.002  0.000  0.043  0.045
   13  0.004  0.001  0.016  0.021
   14  0.004  0.001  0.016  0.021
   15  0.003  0.000  0.039  0.043
   16  0.002  0.000  0.043  0.045
   17  0.003  0.000  0.039  0.043
   18  0.003  0.000  0.039  0.043
   19  0.007  0.001  0.024  0.032
   20  0.000  0.001  0.021  0.022
   21  0.000  0.001  0.021  0.022
   22  0.002  0.000  0.053  0.055
   23  0.000  0.001  0.021  0.022
   24  0.002  0.000  0.053  0.054
   25  0.007  0.001  0.024  0.032
   26  0.007  0.001  0.024  0.032
   27  0.002  0.000  0.053  0.055
   28  0.001  0.000  0.013  0.014
   29  0.002  0.000  0.009  0.011
   30  0.002  0.000  0.009  0.011
   31  0.002  0.000  0.009  0.011
   32  0.002  0.000  0.009  0.011
   33  0.002  0.000  0.009  0.011
   34  0.002  0.000  0.009  0.011
   35  0.002  0.000  0.000  0.002
   36  0.007  0.000  0.003  0.010
tot    0.088  0.011  0.722  0.821
 
band    11 # energy   -4.99677459 # occ.  2.00000000
 
ion      s      p      d    tot
    1  0.001  0.000  0.016  0.017
    2  0.001  0.000  0.011  0.012
    3  0.001  0.000  0.011  0.012
    4  0.001  0.000  0.011  0.012
    5  0.001  0.000  0.000  0.002
    6  0.001  0.000  0.011  0.012
    7  0.001  0.000  0.011  0.012
    8  0.001  0.000  0.011  0.012
    9  0.007  0.000  0.001  0.008
   10  0.002  0.000  0.040  0.042
   11  0.001  0.000  0.042  0.043
   12  0.002  0.000  0.040  0.042
   13  0.001  0.000  0.042  0.043
   14  0.001  0.000  0.042  0.043
   15  0.001  0.000  0.007  0.008
   16  0.002  0.000  0.040  0.042
   17  0.001  0.000  0.007  0.008
   18  0.001  0.000  0.007  0.008
   19  0.001  0.000  0.010  0.012
   20  0.000  0.000  0.051  0.051
   21  0.000  0.000  0.051  0.051
   22  0.006  0.000  0.044  0.050
   23  0.000  0.000  0.051  0.051
   24  0.006  0.000  0.044  0.050
   25  0.001  0.000  0.010  0.012
   26  0.001  0.000  0.010  0.012
   27  0.006  0.000  0.044  0.050
   28  0.010  0.000  0.004  0.014
   29  0.002  0.000  0.010  0.012
   30  0.002  0.000  0.010  0.012
   31  0.002  0.000  0.010  0.012
   32  0.002  0.000  0.010  0.012
   33  0.002  0.000  0.010  0.012
   34  0.002  0.000  0.010  0.012
   35  0.000  0.001  0.025  0.026
   36  0.001  0.000  0.000  0.001
tot    0.074  0.007  0.755  0.836
 
band    12 # energy   -4.98208002 # occ.  2.00000000
 
ion      s      p      d    tot
    1  0.000  0.000  0.014  0.014
    2  0.002  0.000  0.009  0.011
    3  0.000  0.000  0.009  0.010
    4  0.002  0.000  0.009  0.011
    5  0.000  0.000  0.021  0.021
    6  0.003  0.000  0.006  0.010
    7  0.000  0.000  0.009  0.009
    8  0.003  0.000  0.006  0.010
    9  0.000  0.000  0.004  0.004
   10  0.000  0.000  0.058  0.058
   11  0.000  0.000  0.039  0.039
   12  0.003  0.000  0.024  0.028
   13  0.000  0.000  0.038  0.038
   14  0.000  0.000  0.026  0.026
   15  0.002  0.000  0.023  0.025
   16  0.003  0.000  0.022  0.026
   17  0.002  0.000  0.023  0.026
   18  0.000  0.000  0.028  0.028
   19  0.001  0.000  0.035  0.037
   20  0.000  0.000  0.084  0.084
   21  0.010  0.000  0.034  0.044
   22  0.005  0.000  0.030  0.034
   23  0.011  0.000  0.031  0.042
   24  0.000  0.000  0.075  0.076
   25  0.000  0.000  0.008  0.008
   26  0.001  0.000  0.034  0.035
   27  0.005  0.000  0.027  0.032
   28  0.000  0.000  0.007  0.007
   29  0.001  0.000  0.005  0.006
   30  0.002  0.001  0.004  0.007
   31  0.001  0.000  0.005  0.006
   32  0.000  0.000  0.007  0.008
   33  0.002  0.001  0.004  0.007
   34  0.001  0.000  0.007  0.008
   35  0.000  0.000  0.004  0.004
   36  0.000  0.001  0.004  0.004
tot    0.062  0.008  0.771  0.841
 
band    13 # energy   -4.98206596 # occ.  2.00000000
 
ion      s      p      d    tot
    1  0.000  0.000  0.014  0.014
    2  0.001  0.000  0.007  0.009
    3  0.004  0.000  0.007  0.011
    4  0.001  0.000  0.008  0.009
    5  0.000  0.000  0.021  0.021
    6  0.000  0.000  0.010  0.010
    7  0.004  0.000  0.007  0.011
    8  0.001  0.000  0.010  0.011
    9  0.000  0.000  0.004  0.004
   10  0.004  0.000  0.011  0.016
   11  0.000  0.000  0.030  0.030
   12  0.001  0.000  0.045  0.046
   13  0.000  0.000  0.031  0.031
   14  0.000  0.000  0.042  0.042
   15  0.001  0.000  0.026  0.027
   16  0.001  0.000  0.047  0.048
   17  0.001  0.000  0.026  0.027
   18  0.003  0.000  0.022  0.025
   19  0.000  0.000  0.016  0.016
   20  0.014  0.000  0.016  0.030
   21  0.004  0.000  0.064  0.068
   22  0.002  0.000  0.059  0.061
   23  0.003  0.000  0.067  0.071
   24  0.007  0.000  0.012  0.019
   25  0.002  0.000  0.043  0.045
   26  0.000  0.000  0.017  0.018
   27  0.002  0.000  0.062  0.064
   28  0.000  0.000  0.006  0.007
   29  0.001  0.001  0.006  0.008
   30  0.000  0.000  0.006  0.006
   31  0.002  0.001  0.006  0.008
   32  0.002  0.000  0.004  0.006
   33  0.000  0.000  0.006  0.006
   34  0.002  0.000  0.004  0.006
   35  0.000  0.000  0.004  0.004
   36  0.000  0.001  0.004  0.004
tot    0.063  0.008  0.770  0.841
 
band    14 # energy   -4.97949081 # occ.  2.00000000
 
ion      s      p      d    tot
    1  0.000  0.000  0.013  0.013
    2  0.000  0.000  0.008  0.009
    3  0.003  0.000  0.007  0.011
    4  0.002  0.000  0.007  0.009
    5  0.000  0.000  0.003  0.003
    6  0.002  0.000  0.008  0.010
    7  0.004  0.000  0.006  0.010
    8  0.000  0.000  0.009  0.009
    9  0.000  0.000  0.022  0.022
   10  0.000  0.000  0.019  0.019
   11  0.002  0.000  0.020  0.022
   12  0.001  0.000  0.032  0.033
   13  0.003  0.000  0.011  0.015
   14  0.000  0.000  0.029  0.030
   15  0.000  0.000  0.032  0.032
   16  0.001  0.000  0.025  0.026
   17  0.000  0.000  0.028  0.028
   18  0.000  0.000  0.036  0.036
   19  0.008  0.000  0.060  0.069
   20  0.000  0.000  0.032  0.032
   21  0.001  0.000  0.035  0.035
   22  0.011  0.000  0.038  0.049
   23  0.000  0.000  0.034  0.034
   24  0.001  0.001  0.035  0.037
   25  0.001  0.000  0.111  0.112
   26  0.016  0.000  0.010  0.026
   27  0.006  0.000  0.036  0.043
   28  0.000  0.000  0.009  0.009
   29  0.002  0.001  0.004  0.007
   30  0.000  0.000  0.007  0.008
   31  0.001  0.001  0.007  0.009
   32  0.001  0.000  0.004  0.005
   33  0.000  0.000  0.009  0.009
   34  0.002  0.000  0.003  0.005
   35  0.000  0.000  0.009  0.009
   36  0.000  0.000  0.001  0.001
tot    0.068  0.008  0.761  0.838
 
band    15 # energy   -4.97948855 # occ.  2.00000000
 
ion      s      p      d    tot
    1  0.000  0.000  0.014  0.014
    2  0.003  0.000  0.007  0.011
    3  0.000  0.000  0.008  0.009
    4  0.002  0.000  0.008  0.010
    5  0.000  0.000  0.003  0.003
    6  0.002  0.000  0.007  0.009
    7  0.000  0.000  0.009  0.009
    8  0.004  0.000  0.006  0.010
    9  0.000  0.000  0.022  0.022
   10  0.001  0.000  0.032  0.033
   11  0.002  0.000  0.020  0.022
   12  0.000  0.000  0.019  0.019
   13  0.000  0.000  0.029  0.029
   14  0.003  0.000  0.011  0.015
   15  0.000  0.000  0.032  0.032
   16  0.001  0.000  0.025  0.026
   17  0.000  0.000  0.036  0.037
   18  0.000  0.000  0.027  0.028
   19  0.008  0.000  0.061  0.069
   20  0.001  0.000  0.034  0.035
   21  0.000  0.000  0.033  0.034
   22  0.001  0.001  0.034  0.035
   23  0.000  0.000  0.034  0.035
   24  0.011  0.000  0.039  0.049
   25  0.016  0.000  0.010  0.026
   26  0.001  0.000  0.111  0.112
   27  0.006  0.000  0.036  0.042
   28  0.000  0.000  0.009  0.009
   29  0.000  0.000  0.007  0.007
   30  0.002  0.001  0.004  0.007
   31  0.001  0.000  0.004  0.005
   32  0.001  0.001  0.007  0.009
   33  0.002  0.000  0.003  0.005
   34  0.000  0.000  0.009  0.009
   35  0.000  0.000  0.009  0.009
   36  0.000  0.000  0.001  0.001
tot    0.068  0.008  0.761  0.838
 
band    16 # energy   -4.97232105 # occ.  2.00000000
 
ion      s      p      d    tot
    1  0.001  0.000  0.001  0.002
    2  0.001  0.000  0.013  0.014
    3  0.001  0.000  0.013  0.014
    4  0.001  0.000  0.013  0.014
    5  0.007  0.000  0.001  0.008
    6  0.001  0.000  0.013  0.014
    7  0.001  0.000  0.013  0.014
    8  0.001  0.000  0.013  0.014
    9  0.004  0.000  0.018  0.022
   10  0.003  0.000  0.015  0.018
   11  0.000  0.000  0.009  0.010
   12  0.003  0.000  0.015  0.018
   13  0.000  0.000  0.009  0.010
   14  0.000  0.000  0.009  0.010
   15  0.000  0.000  0.034  0.034
   16  0.003  0.000  0.015  0.018
   17  0.000  0.000  0.034  0.034
   18  0.000  0.000  0.034  0.034
   19  0.000  0.000  0.047  0.048
   20  0.009  0.000  0.037  0.046
   21  0.009  0.000  0.037  0.046
   22  0.001  0.000  0.017  0.019
   23  0.009  0.000  0.037  0.046
   24  0.001  0.000  0.017  0.019
   25  0.000  0.000  0.048  0.048
   26  0.000  0.000  0.047  0.048
   27  0.001  0.000  0.017  0.019
   28  0.004  0.000  0.000  0.004
   29  0.005  0.000  0.015  0.021
   30  0.005  0.000  0.015  0.021
   31  0.005  0.000  0.015  0.021
   32  0.005  0.000  0.015  0.021
   33  0.005  0.000  0.015  0.021
   34  0.005  0.000  0.015  0.021
   35  0.015  0.000  0.014  0.030
   36  0.001  0.001  0.010  0.012
tot    0.111  0.009  0.695  0.815
 
band    17 # energy   -4.82661640 # occ.  2.00000000
 
ion      s      p      d    tot
    1  0.001  0.000  0.008  0.009
    2  0.000  0.000  0.012  0.013
    3  0.000  0.000  0.012  0.013
    4  0.000  0.000  0.012  0.013
    5  0.004  0.001  0.000  0.005
    6  0.000  0.000  0.012  0.013
    7  0.000  0.000  0.012  0.013
    8  0.000  0.000  0.012  0.013
    9  0.001  0.000  0.005  0.006
   10  0.001  0.001  0.050  0.051
   11  0.000  0.000  0.020  0.021
   12  0.001  0.001  0.049  0.051
   13  0.000  0.000  0.020  0.021
   14  0.000  0.000  0.020  0.020
   15  0.003  0.000  0.037  0.040
   16  0.001  0.001  0.049  0.051
   17  0.003  0.000  0.037  0.040
   18  0.003  0.000  0.037  0.040
   19  0.002  0.000  0.044  0.046
   20  0.000  0.000  0.011  0.011
   21  0.000  0.000  0.010  0.011
   22  0.001  0.001  0.049  0.051
   23  0.000  0.000  0.010  0.011
   24  0.001  0.001  0.048  0.050
   25  0.002  0.000  0.044  0.046
   26  0.002  0.000  0.044  0.046
   27  0.001  0.001  0.049  0.051
   28  0.002  0.000  0.015  0.017
   29  0.001  0.000  0.010  0.012
   30  0.001  0.000  0.011  0.012
   31  0.001  0.000  0.010  0.012
   32  0.001  0.000  0.010  0.011
   33  0.001  0.000  0.011  0.012
   34  0.001  0.000  0.010  0.011
   35  0.005  0.001  0.001  0.007
   36  0.003  0.001  0.000  0.004
tot    0.041  0.017  0.792  0.851
 
band    18 # energy   -4.82188409 # occ.  2.00000000
 
ion      s      p      d    tot
    1  0.002  0.000  0.001  0.003
    2  0.000  0.000  0.010  0.010
    3  0.000  0.000  0.010  0.010
    4  0.000  0.000  0.010  0.010
    5  0.000  0.000  0.015  0.016
    6  0.000  0.000  0.010  0.010
    7  0.000  0.000  0.010  0.010
    8  0.000  0.000  0.010  0.010
    9  0.004  0.001  0.004  0.009
   10  0.001  0.000  0.019  0.021
   11  0.001  0.001  0.068  0.069
   12  0.001  0.000  0.019  0.021
   13  0.001  0.001  0.068  0.069
   14  0.001  0.001  0.066  0.067
   15  0.000  0.001  0.035  0.036
   16  0.001  0.000  0.019  0.021
   17  0.000  0.001  0.035  0.036
   18  0.000  0.001  0.037  0.038
   19  0.000  0.001  0.032  0.033
   20  0.001  0.000  0.061  0.062
   21  0.001  0.000  0.060  0.062
   22  0.001  0.000  0.015  0.016
   23  0.001  0.000  0.060  0.062
   24  0.001  0.000  0.014  0.015
   25  0.000  0.001  0.034  0.034
   26  0.000  0.001  0.032  0.033
   27  0.001  0.000  0.015  0.016
   28  0.005  0.001  0.001  0.007
   29  0.000  0.000  0.008  0.009
   30  0.000  0.000  0.009  0.009
   31  0.000  0.000  0.008  0.009
   32  0.000  0.000  0.008  0.009
   33  0.000  0.000  0.009  0.009
   34  0.000  0.000  0.008  0.009
   35  0.001  0.000  0.000  0.001
   36  0.000  0.001  0.005  0.005
tot    0.026  0.015  0.825  0.865
 
band    19 # energy   -4.82051343 # occ.  2.00000000
 
ion      s      p      d    tot
    1  0.000  0.000  0.002  0.002
    2  0.001  0.001  0.010  0.012
    3  0.000  0.000  0.010  0.011
    4  0.001  0.001  0.010  0.012
    5  0.000  0.001  0.014  0.015
    6  0.002  0.001  0.006  0.008
    7  0.000  0.000  0.010  0.011
    8  0.002  0.001  0.006  0.008
    9  0.000  0.001  0.018  0.018
   10  0.000  0.001  0.029  0.030
   11  0.000  0.000  0.077  0.078
   12  0.000  0.000  0.016  0.016
   13  0.000  0.000  0.077  0.078
   14  0.002  0.000  0.035  0.037
   15  0.001  0.000  0.038  0.039
   16  0.000  0.000  0.016  0.016
   17  0.001  0.000  0.038  0.038
   18  0.003  0.000  0.047  0.050
   19  0.000  0.000  0.009  0.009
   20  0.003  0.000  0.043  0.046
   21  0.001  0.000  0.059  0.060
   22  0.000  0.000  0.048  0.048
   23  0.001  0.000  0.059  0.060
   24  0.000  0.000  0.020  0.021
   25  0.001  0.001  0.031  0.033
   26  0.000  0.000  0.008  0.009
   27  0.000  0.000  0.047  0.048
   28  0.000  0.000  0.005  0.005
   29  0.000  0.000  0.005  0.006
   30  0.000  0.000  0.007  0.007
   31  0.000  0.000  0.005  0.006
   32  0.001  0.001  0.004  0.006
   33  0.000  0.000  0.007  0.007
   34  0.001  0.001  0.004  0.006
   35  0.000  0.000  0.003  0.003
   36  0.000  0.001  0.005  0.006
tot    0.025  0.016  0.824  0.865
 
band    20 # energy   -4.82046912 # occ.  2.00000000
 
ion      s      p      d    tot
    1  0.000  0.000  0.002  0.002
    2  0.001  0.000  0.007  0.008
    3  0.002  0.001  0.007  0.010
    4  0.001  0.000  0.007  0.008
    5  0.000  0.001  0.014  0.015
    6  0.000  0.000  0.012  0.012
    7  0.002  0.001  0.007  0.010
    8  0.000  0.000  0.012  0.012
    9  0.000  0.001  0.018  0.018
   10  0.000  0.000  0.011  0.011
   11  0.001  0.000  0.049  0.051
   12  0.000  0.001  0.024  0.026
   13  0.001  0.000  0.049  0.050
   14  0.000  0.000  0.092  0.093
   15  0.002  0.000  0.044  0.047
   16  0.000  0.001  0.024  0.026
   17  0.002  0.000  0.044  0.047
   18  0.000  0.000  0.033  0.033
   19  0.001  0.001  0.024  0.026
   20  0.000  0.000  0.064  0.064
   21  0.002  0.000  0.048  0.051
   22  0.000  0.000  0.029  0.029
   23  0.002  0.000  0.049  0.051
   24  0.000  0.000  0.057  0.057
   25  0.000  0.000  0.000  0.000
   26  0.001  0.001  0.024  0.026
   27  0.000  0.000  0.029  0.029
   28  0.000  0.000  0.005  0.005
   29  0.001  0.001  0.006  0.007
   30  0.001  0.000  0.004  0.005
   31  0.001  0.001  0.006  0.007
   32  0.000  0.000  0.007  0.007
   33  0.001  0.000  0.004  0.005
   34  0.000  0.000  0.007  0.007
   35  0.000  0.000  0.003  0.003
   36  0.000  0.001  0.005  0.006
tot    0.025  0.016  0.824  0.865
 
band    21 # energy   -4.81136502 # occ.  2.00000000
 
ion      s      p      d    tot
    1  0.000  0.001  0.020  0.021
    2  0.001  0.001  0.010  0.012
    3  0.000  0.000  0.011  0.011
    4  0.001  0.001  0.010  0.012
    5  0.000  0.000  0.008  0.008
    6  0.002  0.001  0.005  0.007
    7  0.000  0.000  0.011  0.011
    8  0.002  0.001  0.005  0.007
    9  0.000  0.000  0.004  0.005
   10  0.000  0.000  0.077  0.077
   11  0.001  0.001  0.033  0.035
   12  0.002  0.000  0.056  0.057
   13  0.001  0.001  0.033  0.035
   14  0.000  0.000  0.003  0.003
   15  0.000  0.001  0.032  0.033
   16  0.002  0.000  0.056  0.058
   17  0.000  0.001  0.032  0.032
   18  0.000  0.000  0.061  0.061
   19  0.001  0.000  0.039  0.040
   20  0.000  0.000  0.017  0.017
   21  0.000  0.001  0.021  0.022
   22  0.002  0.001  0.039  0.041
   23  0.000  0.001  0.021  0.022
   24  0.000  0.000  0.023  0.023
   25  0.000  0.000  0.073  0.074
   26  0.001  0.000  0.039  0.040
   27  0.002  0.001  0.038  0.041
   28  0.000  0.000  0.010  0.010
   29  0.000  0.000  0.004  0.005
   30  0.000  0.000  0.007  0.008
   31  0.000  0.000  0.004  0.005
   32  0.001  0.001  0.004  0.005
   33  0.000  0.000  0.007  0.008
   34  0.001  0.001  0.004  0.005
   35  0.000  0.001  0.013  0.014
   36  0.000  0.000  0.000  0.000
tot    0.021  0.014  0.831  0.866
 
band    22 # energy   -4.81130834 # occ.  2.00000000
 
ion      s      p      d    tot
    1  0.000  0.001  0.020  0.021
    2  0.001  0.000  0.007  0.008
    3  0.002  0.001  0.006  0.009
    4  0.001  0.000  0.007  0.008
    5  0.000  0.000  0.008  0.008
    6  0.000  0.000  0.012  0.013
    7  0.002  0.001  0.006  0.009
    8  0.000  0.000  0.012  0.013
    9  0.000  0.000  0.004  0.004
   10  0.002  0.000  0.049  0.051
   11  0.000  0.000  0.013  0.014
   12  0.001  0.000  0.070  0.071
   13  0.000  0.000  0.013  0.013
   14  0.001  0.001  0.044  0.046
   15  0.000  0.000  0.051  0.051
   16  0.001  0.000  0.070  0.071