 vasp.6.2.0 18Jan21 (build Jun 12 2021 23:27:24) complex                        
  
 executed on             LinuxIFC date 2022.05.26  20:23:17
 running on   28 total cores
 distrk:  each k-point on   28 cores,    1 groups
 distr:  one band on NCORE=   1 cores,   28 groups


--------------------------------------------------------------------------------------------------------


 INCAR:
   ISMEAR = -5
   SIGMA = 0.1
   ISPIN = 1
   EDIFF = 1.d-5
   EDIFFG = -0.01
   NSW = 0
   NELM = 150
   ENCUT = 500
   ISIF = 2
   IBRION = 2
   LREAL = Auto
   ALGO = Fast
   ICHARG = 11
   LORBIT = 10
   LCHARG = .F.
   LWAVE = .F.

 POTCAR:    PAW_PBE Ag 02Apr2005                  
 POTCAR:    PAW_PBE Ir 06Sep2000                  
 -----------------------------------------------------------------------------
|                                                                             |
|           W    W    AA    RRRRR   N    N  II  N    N   GGGG   !!!           |
|           W    W   A  A   R    R  NN   N  II  NN   N  G    G  !!!           |
|           W    W  A    A  R    R  N N  N  II  N N  N  G       !!!           |
|           W WW W  AAAAAA  RRRRR   N  N N  II  N  N N  G  GGG   !            |
|           WW  WW  A    A  R   R   N   NN  II  N   NN  G    G                |
|           W    W  A    A  R    R  N    N  II  N    N   GGGG   !!!           |
|                                                                             |
|     For optimal performance we recommend to set                             |
|       NCORE = 2 up to number-of-cores-per-socket                            |
|     NCORE specifies how many cores store one orbital (NPAR=cpu/NCORE).      |
|     This setting can greatly improve the performance of VASP for DFT.       |
|     The default, NCORE=1 might be grossly inefficient on modern             |
|     multi-core architectures or massively parallel machines. Do your        |
|     own testing! More info at https://www.vasp.at/wiki/index.php/NCORE      |
|     Unfortunately you need to use the default for GW and RPA                |
|     calculations (for HF NCORE is supported but not extensively tested      |
|     yet).                                                                   |
|                                                                             |
 -----------------------------------------------------------------------------

 POTCAR:    PAW_PBE Ag 02Apr2005                  
   VRHFIN =Ag : s1 d10                                                                              
   LEXCH  = PE                                                                                      
   EATOM  =  1037.2675 eV,   76.2370 Ry                                                             
                                                                                                    
   TITEL  = PAW_PBE Ag 02Apr2005                                                                    
   LULTRA =        F    use ultrasoft PP ?                                                          
   IUNSCR =        1    unscreen: 0-lin 1-nonlin 2-no                                               
   RPACOR =    2.000    partial core radius                                                         
   POMASS =  107.868; ZVAL   =   11.000    mass and valenz                                          
   RCORE  =    2.500    outmost cutoff radius                                                       
   RWIGS  =    2.840; RWIGS  =    1.503    wigner-seitz radius (au A)                               
   ENMAX  =  249.844; ENMIN  =  187.383 eV                                                          
   ICORE  =        3    local potential                                                             
   LCOR   =        T    correct aug charges                                                         
   LPAW   =        T    paw PP                                                                      
   EAUG   =  412.496                                                                                
   DEXC   =    0.000                                                                                
   RMAX   =    2.560    core radius for proj-oper                                                   
   RAUG   =    1.300    factor for augmentation sphere                                              
   RDEP   =    2.576    radius for radial grids                                                     
   RDEPT  =    2.072    core radius for aug-charge                                                  
                                                                                                    
   Atomic configuration                                                                             
   12 entries                                                                                       
     n  l   j            E        occ.                                                              
     1  0  0.50    -25324.9161   2.0000                                                             
     2  0  0.50     -3728.5341   2.0000                                                             
     2  1  1.50     -3344.0404   6.0000                                                             
     3  0  0.50      -683.5581   2.0000                                                             
     3  1  1.50      -557.3225   6.0000                                                             
     3  2  2.50      -358.3853  10.0000                                                             
     4  0  0.50       -95.0341   2.0000                                                             
     4  1  1.50       -58.5511   6.0000                                                             
     4  2  2.50        -7.4440  10.0000                                                             
     5  0  0.50        -4.4045   1.0000                                                             
     5  1  0.50        -1.3606   0.0000                                                             
     4  3  2.50        -1.3606   0.0000                                                             
   Description                                                                                      
     l       E           TYP  RCUT    TYP  RCUT                                                     
     2     -7.4439781     23  2.400                                                                 
     2     -8.8045607     23  2.400                                                                 
     0     -4.4044681     23  2.400                                                                 
     0      1.9520038     23  2.400                                                                 
     1     -1.3605826     23  2.500                                                                 
     1     27.2116520     23  2.500                                                                 
     3     -4.0817478     23  2.400                                                                 
  local pseudopotential read in
  partial core-charges read in
  partial kinetic energy density read in
  atomic valenz-charges read in
  non local Contribution for L=           2  read in
    real space projection operators read in
  non local Contribution for L=           2  read in
    real space projection operators read in
  non local Contribution for L=           0  read in
    real space projection operators read in
  non local Contribution for L=           0  read in
    real space projection operators read in
  non local Contribution for L=           1  read in
    real space projection operators read in
  non local Contribution for L=           1  read in
    real space projection operators read in
    PAW grid and wavefunctions read in
 
   number of l-projection  operators is LMAX  =           6
   number of lm-projection operators is LMMAX =          18
 
 POTCAR:    PAW_PBE Ir 06Sep2000                  
   VRHFIN =Ir: s1d8                                                                                 
   LEXCH  = PE                                                                                      
   EATOM  =   560.1833 eV,   41.1723 Ry                                                             
                                                                                                    
   TITEL  = PAW_PBE Ir 06Sep2000                                                                    
   LULTRA =        F    use ultrasoft PP ?                                                          
   IUNSCR =        1    unscreen: 0-lin 1-nonlin 2-no                                               
   RPACOR =    2.250    partial core radius                                                         
   POMASS =  192.220; ZVAL   =    9.000    mass and valenz                                          
   RCORE  =    2.600    outmost cutoff radius                                                       
   RWIGS  =    2.690; RWIGS  =    1.423    wigner-seitz radius (au A)                               
   ENMAX  =  210.864; ENMIN  =  158.148 eV                                                          
   RCLOC  =    1.857    cutoff for local pot                                                        
   LCOR   =        T    correct aug charges                                                         
   LPAW   =        T    paw PP                                                                      
   EAUG   =  318.962                                                                                
   DEXC   =    0.000                                                                                
   RMAX   =    2.667    core radius for proj-oper                                                   
   RAUG   =    1.300    factor for augmentation sphere                                              
   RDEP   =    2.748    radius for radial grids                                                     
   RDEPT  =    2.300    core radius for aug-charge                                                  
                                                                                                    
   Atomic configuration                                                                             
   16 entries                                                                                       
     n  l   j            E        occ.                                                              
     1  0  0.50    -76100.0449   2.0000                                                             
     2  0  0.50    -13308.1683   2.0000                                                             
     2  1  1.50    -11558.0021   6.0000                                                             
     3  0  0.50     -3110.7274   2.0000                                                             
     3  1  1.50     -2599.2109   6.0000                                                             
     3  2  2.50     -2037.1515  10.0000                                                             
     4  0  0.50      -661.6001   2.0000                                                             
     4  1  1.50      -493.8981   6.0000                                                             
     4  2  2.50      -288.1909  10.0000                                                             
     4  3  3.50       -59.5718  14.0000                                                             
     5  0  0.50       -95.3879   2.0000                                                             
     5  1  1.50       -52.2747   6.0000                                                             
     5  2  2.50        -5.4180   8.0000                                                             
     6  0  0.50        -5.5479   1.0000                                                             
     6  1  1.50        -6.8029   0.0000                                                             
     5  3  2.50        -1.3606   0.0000                                                             
   Description                                                                                      
     l       E           TYP  RCUT    TYP  RCUT                                                     
     2     -5.4179967     23  2.600                                                                 
     2     -6.7785793     23  2.600                                                                 
     0     -5.5478636     23  2.600                                                                 
     0      2.2542272     23  2.600                                                                 
     1     -2.7211652     23  2.600                                                                 
     1     20.4087390     23  2.600                                                                 
  local pseudopotential read in
  partial core-charges read in
  partial kinetic energy density read in
  atomic valenz-charges read in
  non local Contribution for L=           2  read in
    real space projection operators read in
  non local Contribution for L=           2  read in
    real space projection operators read in
  non local Contribution for L=           0  read in
    real space projection operators read in
  non local Contribution for L=           0  read in
    real space projection operators read in
  non local Contribution for L=           1  read in
    real space projection operators read in
  non local Contribution for L=           1  read in
    real space projection operators read in
    PAW grid and wavefunctions read in
 
   number of l-projection  operators is LMAX  =           6
   number of lm-projection operators is LMMAX =          18
 
 Optimization of the real space projectors (new method)

 maximal supplied QI-value         = 15.12
 optimisation between [QCUT,QGAM] = [ 11.34, 22.83] = [ 36.00,145.93] Ry 
 Optimized for a Real-space Cutoff    1.43 Angstroem

   l    n(q)    QCUT    max X(q) W(low)/X(q) W(high)/X(q)  e(spline) 
   2      9    11.338    53.897    0.16E-03    0.20E-03    0.28E-06
   2      9    11.338    52.416    0.16E-03    0.20E-03    0.29E-06
   0     10    11.338   122.045    0.31E-04    0.76E-04    0.15E-06
   0     10    11.338    73.629    0.30E-04    0.72E-04    0.15E-06
   1      9    11.338    15.255    0.20E-03    0.19E-04    0.17E-06
   1      9    11.338     9.562    0.16E-03    0.15E-04    0.14E-06
 Optimization of the real space projectors (new method)

 maximal supplied QI-value         = 14.36
 optimisation between [QCUT,QGAM] = [ 11.35, 22.84] = [ 36.05,146.02] Ry 
 Optimized for a Real-space Cutoff    1.52 Angstroem

   l    n(q)    QCUT    max X(q) W(low)/X(q) W(high)/X(q)  e(spline) 
   2      9    11.346   134.116    0.47E-03    0.13E-03    0.92E-06
   2      9    11.346   130.192    0.47E-03    0.13E-03    0.92E-06
   0     10    11.346    60.310    0.74E-04    0.13E-03    0.69E-06
   0     10    11.346    39.218    0.68E-04    0.12E-03    0.65E-06
   1     10    11.346    18.439    0.15E-03    0.34E-04    0.20E-06
   1     10    11.346    12.760    0.12E-03    0.31E-04    0.16E-06
  PAW_PBE Ag 02Apr2005                  :
 energy of atom  1       EATOM=-1037.2675
 kinetic energy error for atom=    0.0052 (will be added to EATOM!!)
  PAW_PBE Ir 06Sep2000                  :
 energy of atom  2       EATOM= -560.1833
 kinetic energy error for atom=    0.0018 (will be added to EATOM!!)
 
 
 POSCAR: Ag-Ir
  positions in direct lattice
  velocities in cartesian coordinates
 exchange correlation table for  LEXCH =        8
   RHO(1)=    0.500       N(1)  =     2000
   RHO(2)=  100.500       N(2)  =     4000

 VTST: version 3.2, (02/03/18)

 CHAIN: initializing optimizer
 
 OPT: Using VASP Conjugate-Gradient optimizer
 CHAIN: Read ICHAIN            0
 
 POSCAR: Ag-Ir
  positions in direct lattice
  velocities in cartesian coordinates
 


--------------------------------------------------------------------------------------------------------


 ion  position               nearest neighbor table
   1  0.000  0.000  0.238-   2 2.93   8 2.93   7 2.93   6 2.93   4 2.93  12 2.93  16 2.93  10 2.93
                             3 2.93
   2  0.333  0.000  0.238-   1 2.93   8 2.93   9 2.93   3 2.93   4 2.93   5 2.93  10 2.93  17 2.93
                            11 2.93
   3  0.667  0.000  0.238-   9 2.93   2 2.93   5 2.93  11 2.93   7 2.93  18 2.93   1 2.93   6 2.93
                            12 2.93
   4  0.000  0.333  0.238-   5 2.93   6 2.93   2 2.93   1 2.93   7 2.93  13 2.93  15 2.93   9 2.93
                            10 2.93
   5  0.333  0.333  0.238-   4 2.93   3 2.93   7 2.93   2 2.93   8 2.93  14 2.93  13 2.93  11 2.93
                             6 2.93
   6  0.667  0.333  0.238-   4 2.93   9 2.93   1 2.93  15 2.93   8 2.93  12 2.93   3 2.93   5 2.93
                            14 2.93
   7  0.000  0.667  0.238-   8 2.93   1 2.93   5 2.93   3 2.93   4 2.93  16 2.93  18 2.93  13 2.93
                             9 2.93
   8  0.333  0.667  0.238-   7 2.93   1 2.93   2 2.93   9 2.93   5 2.93  16 2.93   6 2.93  17 2.93
                            14 2.93
   9  0.667  0.667  0.238-   3 2.93   2 2.93   8 2.93   6 2.93  17 2.93   4 2.93  15 2.93   7 2.93
                            18 2.93
  10  0.111  0.111  0.346-  20 2.89  12 2.93  16 2.93  15 2.93  17 2.93  13 2.93  11 2.93   2 2.93
                             1 2.93   4 2.93  19 2.93  26 2.93
  11  0.444  0.111  0.346-  21 2.90  20 2.90  27 2.92  14 2.93  17 2.93  18 2.93   3 2.93  12 2.93
                            13 2.93  10 2.93   5 2.93   2 2.93
  12  0.778  0.111  0.346-  21 2.89  10 2.93  16 2.93  18 2.93  15 2.93  11 2.93   1 2.93  14 2.93
                             6 2.93   3 2.93  25 2.93  19 2.93
  13  0.111  0.444  0.346-  20 2.90  23 2.90  22 2.92  15 2.93  14 2.93  18 2.93  10 2.93  11 2.93
                            16 2.93   4 2.93   5 2.93   7 2.93
  14  0.444  0.444  0.346-  23 2.90  21 2.90  24 2.92  13 2.93  11 2.93  16 2.93   5 2.93  12 2.93
                            17 2.93   8 2.93  15 2.93   6 2.93
  15  0.778  0.444  0.346-  24 2.92  22 2.92  19 2.93  13 2.93  10 2.93  12 2.93  17 2.93  18 2.93
                             4 2.93   6 2.93   9 2.93  14 2.93
  16  0.111  0.778  0.346-  23 2.89  18 2.93  12 2.93  10 2.93  14 2.93  17 2.93  13 2.93   7 2.93
                             8 2.93   1 2.93  26 2.93  25 2.93
  17  0.444  0.778  0.346-  27 2.92  24 2.92  26 2.93  11 2.93  10 2.93   9 2.93  18 2.93  15 2.93
                            16 2.93   2 2.93  14 2.93   8 2.93
  18  0.778  0.778  0.346-  22 2.92  27 2.92  25 2.93  16 2.93  12 2.93  13 2.93  11 2.93  17 2.93
                            15 2.93   7 2.93   3 2.93   9 2.93
  19  0.888  0.223  0.454-  28 2.90  24 2.92  22 2.92  15 2.93  20 2.93  21 2.93  10 2.93  12 2.93
                            32 2.94  31 2.94  26 2.94  25 2.94
  20  0.222  0.222  0.452-  36 2.77  10 2.89  13 2.90  11 2.90  31 2.92  29 2.92  19 2.93  26 2.93
                            27 2.93  22 2.93  21 2.94  23 2.94
  21  0.556  0.222  0.452-  36 2.77  12 2.89  11 2.90  14 2.90  30 2.92  32 2.92  25 2.93  19 2.93
                            27 2.93  24 2.93  20 2.94  23 2.94
  22  0.888  0.556  0.453-  35 2.90  18 2.92  15 2.92  13 2.92  24 2.92  27 2.92  25 2.92  19 2.92
                            33 2.93  31 2.93  23 2.93  20 2.93
  23  0.222  0.556  0.452-  36 2.77  16 2.89  14 2.90  13 2.90  34 2.92  33 2.92  26 2.93  25 2.93
                            22 2.93  24 2.93  21 2.94  20 2.94
  24  0.556  0.556  0.453-  35 2.90  15 2.92  17 2.92  14 2.92  27 2.92  22 2.92  19 2.92  26 2.92
                            32 2.93  34 2.93  23 2.93  21 2.93
  25  0.888  0.888  0.454-  28 2.90  22 2.92  27 2.92  18 2.93  23 2.93  21 2.93  16 2.93  12 2.93
                            33 2.94  30 2.94  26 2.94  19 2.94
  26  0.223  0.888  0.454-  28 2.90  27 2.92  24 2.92  17 2.93  23 2.93  20 2.93  16 2.93  10 2.93
                            34 2.94  29 2.94  25 2.94  19 2.94
  27  0.556  0.888  0.453-  35 2.90  17 2.92  18 2.92  11 2.92  24 2.92  22 2.92  26 2.92  25 2.92
                            29 2.93  30 2.93  20 2.93  21 2.93
  28  0.000  0.000  0.560-  26 2.90  25 2.90  19 2.90  29 2.96  34 2.96  33 2.96  32 2.96  31 2.96
                            30 2.96
  29  0.333  0.007  0.561-  31 2.87  30 2.88  36 2.88  20 2.92  27 2.93  26 2.94  28 2.96  35 2.96
                            34 3.04
  30  0.660  0.007  0.561-  32 2.87  29 2.88  36 2.88  21 2.92  27 2.93  25 2.94  28 2.96  35 2.96
                            33 3.04
  31  0.007  0.333  0.561-  29 2.87  33 2.88  36 2.88  20 2.92  22 2.93  19 2.94  28 2.96  35 2.96
                            32 3.04
  32  0.660  0.333  0.561-  30 2.87  34 2.88  36 2.88  21 2.92  24 2.93  19 2.94  28 2.96  35 2.96
                            31 3.04
  33  0.007  0.660  0.561-  34 2.87  31 2.88  36 2.88  23 2.92  22 2.93  25 2.94  28 2.96  35 2.96
                            30 3.04
  34  0.333  0.660  0.561-  33 2.87  32 2.88  36 2.88  23 2.92  24 2.93  26 2.94  28 2.96  35 2.96
                            29 3.04
  35  0.667  0.667  0.560-  24 2.90  27 2.90  22 2.90  30 2.96  32 2.96  29 2.96  34 2.96  31 2.96
                            33 2.96
  36  0.333  0.333  0.551-  21 2.77  20 2.77  23 2.77  31 2.88  30 2.88  33 2.88  29 2.88  34 2.88
                            32 2.88
 
  LATTYP: Found a hexagonal cell.
 ALAT       =     8.7913665772
 C/A-ratio  =     2.5227160501
  
  Lattice vectors:
  
 A1 = (  -4.3956832886,  -7.6135467898,   0.0000000000)
 A2 = (   8.7913665771,   0.0000000000,   0.0000000000)
 A3 = (   0.0000000000,   0.0000000000,  22.1781215668)


Analysis of symmetry for initial positions (statically):
=====================================================================
 Subroutine PRICEL returns:
 Original cell was already a primitive cell.
 

 Routine SETGRP: Setting up the symmetry group for a 
 hexagonal supercell.


 Subroutine GETGRP returns: Found  6 space group operations
 (whereof  6 operations were pure point group operations)
 out of a pool of 24 trial point group operations.


The static configuration has the point symmetry C_3v.


Analysis of symmetry for dynamics (positions and initial velocities):
=====================================================================
 Subroutine PRICEL returns:
 Original cell was already a primitive cell.
 

 Routine SETGRP: Setting up the symmetry group for a 
 hexagonal supercell.


 Subroutine GETGRP returns: Found  6 space group operations
 (whereof  6 operations were pure point group operations)
 out of a pool of 24 trial point group operations.


The dynamic configuration has the point symmetry C_3v.


Analysis of constrained symmetry for selective dynamics:
=====================================================================
 Subroutine PRICEL returns:
 Original cell was already a primitive cell.
 

 Routine SETGRP: Setting up the symmetry group for a 
 hexagonal supercell.


 Subroutine GETGRP returns: Found  6 space group operations
 (whereof  6 operations were pure point group operations)
 out of a pool of 24 trial point group operations.


The constrained configuration has the point symmetry C_3v.


 Subroutine INISYM returns: Found  6 space group operations
 (whereof  6 operations are pure point group operations),
 and found     1 'primitive' translations


----------------------------------------------------------------------------------------

                                     Primitive cell                                     

  volume of cell :    1484.4589

  direct lattice vectors                    reciprocal lattice vectors
     8.791366577  0.000000000  0.000000000     0.113747958 -0.065672414  0.000000000
     4.395683289  7.613546790  0.000000000     0.000000000  0.131344829  0.000000000
     0.000000000  0.000000000 22.178121567     0.000000000  0.000000000  0.045089481

  length of vectors
     8.791366577  8.791366577 22.178121567     0.131344829  0.131344829  0.045089481

  position of ions in fractional coordinates (direct lattice)
     0.000000000  0.000000000  0.238171124
     0.333333313  0.000000000  0.238171124
     0.666666627  0.000000000  0.238171124
     0.000000000  0.333333343  0.238171124
     0.333333313  0.333333343  0.238171124
     0.666666687  0.333333343  0.238171124
     0.000000000  0.666666687  0.238171124
     0.333333313  0.666666687  0.238171124
     0.666666627  0.666666687  0.238171124
     0.111111104  0.111111112  0.346057051
     0.444444448  0.111111112  0.346057051
     0.777777791  0.111111112  0.346057051
     0.111111097  0.444444448  0.346057051
     0.444444418  0.444444448  0.346057051
     0.777777791  0.444444448  0.346057051
     0.111111104  0.777777791  0.346057051
     0.444444448  0.777777791  0.346057051
     0.777777791  0.777777791  0.346057051
     0.888352737  0.223294542  0.453983017
     0.221927921  0.221927936  0.451926218
     0.556144099  0.221927936  0.451926218
     0.888248938  0.555875561  0.453232863
     0.221927936  0.556144159  0.451926218
     0.555875561  0.555875561  0.453232863
     0.888352737  0.888352737  0.453983017
     0.223294512  0.888352737  0.453983017
     0.555875501  0.888248938  0.453232863
     0.000000000  0.000000000  0.560108800
     0.333102094  0.006538278  0.560840644
     0.660359567  0.006538278  0.560840644
     0.006538278  0.333102124  0.560840644
     0.660359627  0.333102124  0.560840644
     0.006538278  0.660359627  0.560840644
     0.333102094  0.660359627  0.560840644
     0.666666627  0.666666687  0.559635187
     0.333333313  0.333333343  0.550708925

  ion indices of the primitive-cell ions
   primitive index   ion index
                 1           1
                 2           2
                 3           3
                 4           4
                 5           5
                 6           6
                 7           7
                 8           8
                 9           9
                10          10
                11          11
                12          12
                13          13
                14          14
                15          15
                16          16
                17          17
                18          18
                19          19
                20          20
                21          21
                22          22
                23          23
                24          24
                25          25
                26          26
                27          27
                28          28
                29          29
                30          30
                31          31
                32          32
                33          33
                34          34
                35          35
                36          36

----------------------------------------------------------------------------------------

 
 
 KPOINTS: Automatic mesh                          

Automatic generation of k-mesh.
 Grid dimensions read from file:
 generate k-points for:    8    8    1

 Generating k-lattice:

  Cartesian coordinates                     Fractional coordinates (reciprocal lattice)
     0.014218495 -0.008209052  0.000000000     0.125000000  0.000000000  0.000000000
     0.000000000  0.016418104  0.000000000     0.000000000  0.125000000  0.000000000
     0.000000000  0.000000000  0.045089481     0.000000000  0.000000000  1.000000000

  Length of vectors
     0.016418104  0.016418104  0.045089481

  Shift w.r.t. Gamma in fractional coordinates (k-lattice)
     0.000000000  0.000000000  0.000000000

 TETIRR: Found     36 inequivalent tetrahedra from      384
 
 Subroutine IBZKPT returns following result:
 ===========================================
 
 Found     10 irreducible k-points:
 
 Following reciprocal coordinates:
            Coordinates               Weight
  0.000000  0.000000  0.000000      1.000000
  0.125000 -0.000000  0.000000      6.000000
  0.250000 -0.000000  0.000000      6.000000
  0.375000 -0.000000  0.000000      6.000000
  0.500000 -0.000000  0.000000      3.000000
  0.250000  0.125000  0.000000      6.000000
  0.375000  0.125000  0.000000     12.000000
  0.500000  0.125000  0.000000     12.000000
  0.500000  0.250000  0.000000      6.000000
 -0.375000  0.250000  0.000000      6.000000
 
 Following cartesian coordinates:
            Coordinates               Weight
  0.000000  0.000000  0.000000      1.000000
  0.014218 -0.008209  0.000000      6.000000
  0.028437 -0.016418  0.000000      6.000000
  0.042655 -0.024627  0.000000      6.000000
  0.056874 -0.032836  0.000000      3.000000
  0.028437 -0.000000  0.000000      6.000000
  0.042655 -0.008209  0.000000     12.000000
  0.056874 -0.016418  0.000000     12.000000
  0.056874 -0.000000  0.000000      6.000000
 -0.042655  0.057463  0.000000      6.000000
 


--------------------------------------------------------------------------------------------------------




 Dimension of arrays:
   k-points           NKPTS =     10   k-points in BZ     NKDIM =     10   number of bands    NBANDS=    252
   number of dos      NEDOS =    301   number of ions     NIONS =     36
   non local maximal  LDIM  =      6   non local SUM 2l+1 LMDIM =     18
   total plane-waves  NPLWV = 290304
   max r-space proj   IRMAX =   2918   max aug-charges    IRDMAX=  14339
   dimension x,y,z NGX =    48 NGY =   48 NGZ =  126
   dimension x,y,z NGXF=    96 NGYF=   96 NGZF=  252
   support grid    NGXF=    96 NGYF=   96 NGZF=  252
   ions per type =              35   1
   NGX,Y,Z   is equivalent  to a cutoff of   9.08,  9.08,  9.44 a.u.
   NGXF,Y,Z  is equivalent  to a cutoff of  18.15, 18.15, 18.89 a.u.

 SYSTEM =  unknown system                          
 POSCAR =  Ag-Ir                                   

 Startparameter for this run:
   NWRITE =      2    write-flag & timer
   PREC   = normal    normal or accurate (medium, high low for compatibility)
   ISTART =      0    job   : 0-new  1-cont  2-samecut
   ICHARG =     11    charge: 1-file 2-atom 10-const
   ISPIN  =      1    spin polarized calculation?
   LNONCOLLINEAR =      F non collinear calculations
   LSORBIT =      F    spin-orbit coupling
   INIWAV =      1    electr: 0-lowe 1-rand  2-diag
   LASPH  =      F    aspherical Exc in radial PAW
   METAGGA=      F    non-selfconsistent MetaGGA calc.

 Electronic Relaxation 1
   ENCUT  =  500.0 eV  36.75 Ry    6.06 a.u.  16.03 16.03 40.44*2*pi/ulx,y,z
   ENINI  =  500.0     initial cutoff
   ENAUG  =  412.5 eV  augmentation charge cutoff
   NELM   =    150;   NELMIN=  2; NELMDL= -5     # of ELM steps 
   EDIFF  = 0.1E-04   stopping-criterion for ELM
   LREAL  =      T    real-space projection
   NLSPLINE    = F    spline interpolate recip. space projectors
   LCOMPAT=      F    compatible to vasp.4.4
   GGA_COMPAT  = T    GGA compatible to vasp.4.4-vasp.4.6
   LMAXPAW     = -100 max onsite density
   LMAXMIX     =    2 max onsite mixed and CHGCAR
   VOSKOWN=      0    Vosko Wilk Nusair interpolation
   ROPT   =   -0.00050  -0.00050
 Ionic relaxation
   EDIFFG = -.1E-01   stopping-criterion for IOM
   NSW    =      0    number of steps for IOM
   NBLOCK =      1;   KBLOCK =      1    inner block; outer block 
   IBRION =     -1    ionic relax: 0-MD 1-quasi-New 2-CG
   NFREE  =      1    steps in history (QN), initial steepest desc. (CG)
   ISIF   =      2    stress and relaxation
   IWAVPR =     10    prediction:  0-non 1-charg 2-wave 3-comb
   ISYM   =      2    0-nonsym 1-usesym 2-fastsym
   LCORR  =      T    Harris-Foulkes like correction to forces

   POTIM  = 0.5000    time-step for ionic-motion
   TEIN   =    0.0    initial temperature
   TEBEG  =    0.0;   TEEND  =   0.0 temperature during run
   SMASS  =  -3.00    Nose mass-parameter (am)
   estimated Nose-frequenzy (Omega)   =  0.10E-29 period in steps = 0.13E+47 mass=  -0.177E-26a.u.
   SCALEE = 1.0000    scale energy and forces
   NPACO  =    256;   APACO  = 16.0  distance and # of slots for P.C.
   PSTRESS=    0.0 pullay stress

  Mass of Ions in am
   POMASS = 107.87192.22
  Ionic Valenz
   ZVAL   =  11.00  9.00
  Atomic Wigner-Seitz radii
   RWIGS  =  -1.00 -1.00
  virtual crystal weights 
   VCA    =   1.00  1.00
   NELECT =     394.0000    total number of electrons
   NUPDOWN=      -1.0000    fix difference up-down

 DOS related values:
   EMIN   =  10.00;   EMAX   =-10.00  energy-range for DOS
   EFERMI =   0.00
   ISMEAR =    -5;   SIGMA  =   0.10  broadening in eV -4-tet -1-fermi 0-gaus

 Electronic relaxation 2 (details)
   IALGO  =     68    algorithm
   LDIAG  =      T    sub-space diagonalisation (order eigenvalues)
   LSUBROT=      F    optimize rotation matrix (better conditioning)
   TURBO    =      0    0=normal 1=particle mesh
   IRESTART =      0    0=no restart 2=restart with 2 vectors
   NREBOOT  =      0    no. of reboots
   NMIN     =      0    reboot dimension
   EREF     =   0.00    reference energy to select bands
   IMIX   =      4    mixing-type and parameters
     AMIX     =   0.40;   BMIX     =  1.00
     AMIX_MAG =   1.60;   BMIX_MAG =  1.00
     AMIN     =   0.10
     WC   =   100.;   INIMIX=   1;  MIXPRE=   1;  MAXMIX= -45

 Intra band minimization:
   WEIMIN = 0.0000     energy-eigenvalue tresh-hold
   EBREAK =  0.99E-08  absolut break condition
   DEPER  =   0.30     relativ break condition  

   TIME   =   0.40     timestep for ELM

  volume/ion in A,a.u.               =      41.23       278.27
  Fermi-wavevector in a.u.,A,eV,Ry     =   1.052085  1.988152 15.060057  1.106883
  Thomas-Fermi vector in A             =   2.187154
 
 Write flags
   LWAVE        =      F    write WAVECAR
   LDOWNSAMPLE  =      F    k-point downsampling of WAVECAR
   LCHARG       =      F    write CHGCAR
   LVTOT        =      F    write LOCPOT, total local potential
   LVHAR        =      F    write LOCPOT, Hartree potential only
   LELF         =      F    write electronic localiz. function (ELF)
   LORBIT       =     10    0 simple, 1 ext, 2 COOP (PROOUT), +10 PAW based schemes


 Dipole corrections
   LMONO  =      F    monopole corrections only (constant potential shift)
   LDIPOL =      F    correct potential (dipole corrections)
   IDIPOL =      0    1-x, 2-y, 3-z, 4-all directions 
   EPSILON=  1.0000000 bulk dielectric constant

 Exchange correlation treatment:
   GGA     =    --    GGA type
   LEXCH   =     8    internal setting for exchange type
   VOSKOWN=      0    Vosko Wilk Nusair interpolation
   LHFCALC =     F    Hartree Fock is set to
   LHFONE  =     F    Hartree Fock one center treatment
   AEXX    =    0.0000 exact exchange contribution

 Linear response parameters
   LEPSILON=     F    determine dielectric tensor
   LRPA    =     F    only Hartree local field effects (RPA)
   LNABLA  =     F    use nabla operator in PAW spheres
   LVEL    =     F    velocity operator in full k-point grid
   LINTERFAST=   F  fast interpolation
   KINTER  =     0    interpolate to denser k-point grid
   CSHIFT  =0.1000    complex shift for real part using Kramers Kronig
   OMEGAMAX=  -1.0    maximum frequency
   DEG_THRESHOLD= 0.2000000E-02 threshold for treating states as degnerate
   RTIME   =   -0.100 relaxation time in fs
  (WPLASMAI=    0.000 imaginary part of plasma frequency in eV, 0.658/RTIME)
   DFIELD  = 0.0000000 0.0000000 0.0000000 field for delta impulse in time
 
 Orbital magnetization related:
   ORBITALMAG=     F  switch on orbital magnetization
   LCHIMAG   =     F  perturbation theory with respect to B field
   DQ        =  0.001000  dq finite difference perturbation B field
   LLRAUG    =     F  two centre corrections for induced B field



--------------------------------------------------------------------------------------------------------


 Static calculation
 charge density and potential remain constant during run
 non-spin polarized calculation
 RMM-DIIS sequential band-by-band and
  variant of blocked Davidson during initial phase
 perform sub-space diagonalisation
    before iterative eigenvector-optimisation
 no mixing
 using additional bands           55
 real space projection scheme for non local part
 use partial core corrections
 calculate Harris-corrections to forces 
   (improved forces if not selfconsistent)
 use gradient corrections 
 WARNING: stress and forces are not correct
  (second derivative of E(xc) not defined)
 use of overlap-Matrix (Vanderbilt PP)
 Fermi weights with tetrahedron method with Bloechl corrections


--------------------------------------------------------------------------------------------------------


  energy-cutoff  :      500.00
  volume of cell :     1484.46
      direct lattice vectors                 reciprocal lattice vectors
     8.791366577  0.000000000  0.000000000     0.113747958 -0.065672414  0.000000000
     4.395683289  7.613546790  0.000000000     0.000000000  0.131344829  0.000000000
     0.000000000  0.000000000 22.178121567     0.000000000  0.000000000  0.045089481

  length of vectors
     8.791366577  8.791366577 22.178121567     0.131344829  0.131344829  0.045089481


 
 k-points in units of 2pi/SCALE and weight: Automatic mesh                          
   0.00000000  0.00000000  0.00000000       0.016
   0.01421849 -0.00820905  0.00000000       0.094
   0.02843699 -0.01641810  0.00000000       0.094
   0.04265548 -0.02462716  0.00000000       0.094
   0.05687398 -0.03283621  0.00000000       0.047
   0.02843699 -0.00000000  0.00000000       0.094
   0.04265548 -0.00820905  0.00000000       0.188
   0.05687398 -0.01641810  0.00000000       0.188
   0.05687398 -0.00000000  0.00000000       0.094
  -0.04265548  0.05746336  0.00000000       0.094
 
 k-points in reciprocal lattice and weights: Automatic mesh                          
   0.00000000  0.00000000  0.00000000       0.016
   0.12500000 -0.00000000  0.00000000       0.094
   0.25000000 -0.00000000  0.00000000       0.094
   0.37500000 -0.00000000  0.00000000       0.094
   0.50000000 -0.00000000  0.00000000       0.047
   0.25000000  0.12500000  0.00000000       0.094
   0.37500000  0.12500000  0.00000000       0.188
   0.50000000  0.12500000  0.00000000       0.188
   0.50000000  0.25000000  0.00000000       0.094
  -0.37500000  0.25000000  0.00000000       0.094
 
 position of ions in fractional coordinates (direct lattice) 
   0.00000000  0.00000000  0.23817112
   0.33333331  0.00000000  0.23817112
   0.66666663  0.00000000  0.23817112
   0.00000000  0.33333334  0.23817112
   0.33333331  0.33333334  0.23817112
   0.66666669  0.33333334  0.23817112
   0.00000000  0.66666669  0.23817112
   0.33333331  0.66666669  0.23817112
   0.66666663  0.66666669  0.23817112
   0.11111110  0.11111111  0.34605705
   0.44444445  0.11111111  0.34605705
   0.77777779  0.11111111  0.34605705
   0.11111110  0.44444445  0.34605705
   0.44444442  0.44444445  0.34605705
   0.77777779  0.44444445  0.34605705
   0.11111110  0.77777779  0.34605705
   0.44444445  0.77777779  0.34605705
   0.77777779  0.77777779  0.34605705
   0.88835274  0.22329454  0.45398302
   0.22192792  0.22192794  0.45192622
   0.55614410  0.22192794  0.45192622
   0.88824894  0.55587556  0.45323286
   0.22192794  0.55614416  0.45192622
   0.55587556  0.55587556  0.45323286
   0.88835274  0.88835274  0.45398302
   0.22329451  0.88835274  0.45398302
   0.55587550  0.88824894  0.45323286
   0.00000000  0.00000000  0.56010880
   0.33310209  0.00653828  0.56084064
   0.66035957  0.00653828  0.56084064
   0.00653828  0.33310212  0.56084064
   0.66035963  0.33310212  0.56084064
   0.00653828  0.66035963  0.56084064
   0.33310209  0.66035963  0.56084064
   0.66666663  0.66666669  0.55963519
   0.33333331  0.33333334  0.55070892
 
 position of ions in cartesian coordinates  (Angst):
   0.00000000  0.00000000  5.28218814
   2.93045535  0.00000000  5.28218814
   5.86091070  0.00000000  5.28218814
   1.46522781  2.53784900  5.28218814
   4.39568315  2.53784900  5.28218814
   7.32613904  2.53784900  5.28218814
   2.93045562  5.07569801  5.28218814
   5.86091096  5.07569801  5.28218814
   8.79136632  5.07569801  5.28218814
   1.46522770  0.84594965  7.67489535
   4.39568332  0.84594965  7.67489535
   7.32613893  0.84594965  7.67489535
   2.93045542  3.38379860  7.67489535
   5.86091083  3.38379860  7.67489535
   8.79136671  3.38379860  7.67489535
   4.39568328  5.92164760  7.67489535
   7.32613890  5.92164760  7.67489535
  10.25659451  5.92164760  7.67489535
   8.79136665  1.70006344 10.06849055
   2.92657462  1.68965872 10.02287460
   5.86479156  1.68965872 10.02287460
  10.25237494  4.23218459 10.05185353
   4.39568342  4.23422957 10.02287460
   7.33035874  4.23218459 10.05185353
  11.71475184  6.76351513 10.06849055
   5.86798119  6.76351513 10.06849055
   8.79136631  6.76272485 10.05185353
   0.00000000  0.00000000 12.42216107
   2.95716282  0.04977949 12.43839198
   5.83420323  0.04977949 12.43839198
   1.52169184  2.53608861 12.43839198
   7.26967500  2.53608861 12.43839198
   2.96021218  5.02767892 12.43839198
   5.83115440  5.02767892 12.43839198
   8.79136632  5.07569801 12.41165721
   4.39568315  2.53784900 12.21368948
 


--------------------------------------------------------------------------------------------------------


 k-point   1 :   0.0000 0.0000 0.0000  plane waves:   37683
 k-point   2 :   0.1250-0.0000 0.0000  plane waves:   37658
 k-point   3 :   0.2500-0.0000 0.0000  plane waves:   37682
 k-point   4 :   0.3750-0.0000 0.0000  plane waves:   37686
 k-point   5 :   0.5000-0.0000 0.0000  plane waves:   37668
 k-point   6 :   0.2500 0.1250 0.0000  plane waves:   37666
 k-point   7 :   0.3750 0.1250 0.0000  plane waves:   37708
 k-point   8 :   0.5000 0.1250 0.0000  plane waves:   37726
 k-point   9 :   0.5000 0.2500 0.0000  plane waves:   37706
 k-point  10 :  -0.3750 0.2500 0.0000  plane waves:   37686

 maximum and minimum number of plane-waves per node :     37726    37658

 maximum number of plane-waves:     37726
 maximum index in each direction: 
   IXMAX=   16   IYMAX=   16   IZMAX=   40
   IXMIN=  -16   IYMIN=  -16   IZMIN=  -40


 serial   3D FFT for wavefunctions
 parallel 3D FFT for charge:
    minimum data exchange during FFTs selected (reduces bandwidth)


 total amount of memory used by VASP MPI-rank0   122400. kBytes
=======================================================================

   base      :      30000. kBytes
   nonlr-proj:      15094. kBytes
   fftplans  :       4330. kBytes
   grid      :      17098. kBytes
   one-center:        559. kBytes
   wavefun   :      55319. kBytes
 
     INWAV:  cpu time    0.0000: real time    0.0001
 initial charge density was supplied:
 number of electron     393.9999952 magnetization 
 keeping initial charge density in first step


--------------------------------------------------------------------------------------------------------


 Maximum index for non-local projection operator         2801
 Maximum index for augmentation-charges          700 (set IRDMAX)


--------------------------------------------------------------------------------------------------------


 First call to EWALD:  gamma=   0.155
 Maximum number of real-space cells 4x 4x 2
 Maximum number of reciprocal cells 2x 2x 5

    FEWALD:  cpu time    0.0016: real time    0.0016


--------------------------------------- Iteration      1(   1)  ---------------------------------------


    POTLOK:  cpu time    0.0712: real time    0.0719
    SETDIJ:  cpu time    0.0064: real time    0.0065
     EDDAV:  cpu time   11.6721: real time   11.7214
 BZINTS: Fermi energy:    9.520191;  394.000000 electrons
         Band energy: 0.123789E+04;  BLOECHL correction:   -0.029140
       DOS:  cpu time    0.0122: real time    0.0123
    --------------------------------------------
      LOOP:  cpu time   11.7619: real time   11.8120

 eigenvalue-minimisations  :  5040
 total energy-change (2. order) : 0.2403487E+04  (-0.1815548E+05)
 number of electron     393.9999952 magnetization 
 augmentation part      393.9999952 magnetization 

 Free energy of the ion-electron system (eV)
  ---------------------------------------------------
  alpha Z        PSCENC =       751.94559328
  Ewald energy   TEWEN  =     98514.75178796
  -Hartree energ DENC   =   -136134.49688624
  -exchange      EXHF   =         0.00000000
  -V(xc)+E(xc)   XCENC  =      -406.69571365
  PAW double counting   =     38967.74290451   -37392.01731973
  entropy T*S    EENTRO =         0.00000000
  eigenvalues    EBANDS =      1237.89403094
  atomic energy  EATOM  =     36864.36233836
  Solvation  Ediel_sol  =         0.00000000
  ---------------------------------------------------
  free energy    TOTEN  =      2403.48673542 eV

  energy without entropy =     2403.48673542  energy(sigma->0) =     2403.48673542


--------------------------------------------------------------------------------------------------------




--------------------------------------- Iteration      1(   2)  ---------------------------------------


     EDDAV:  cpu time   11.5352: real time   11.5620
 BZINTS: Fermi energy:    1.309692;  394.000000 electrons
         Band energy:-0.117873E+04;  BLOECHL correction:   -0.056042
       DOS:  cpu time    0.0100: real time    0.0100
    --------------------------------------------
      LOOP:  cpu time   11.5452: real time   11.5720

 eigenvalue-minimisations  :  5096
 total energy-change (2. order) :-0.2416623E+04  (-0.2288835E+04)
 number of electron     393.9999952 magnetization 
 augmentation part      393.9999952 magnetization 

 Free energy of the ion-electron system (eV)
  ---------------------------------------------------
  alpha Z        PSCENC =       751.94559328
  Ewald energy   TEWEN  =     98514.75178796
  -Hartree energ DENC   =   -136134.49688624
  -exchange      EXHF   =         0.00000000
  -V(xc)+E(xc)   XCENC  =      -406.69571365
  PAW double counting   =     38967.74290451   -37392.01731973
  entropy T*S    EENTRO =         0.00000000
  eigenvalues    EBANDS =     -1178.72918461
  atomic energy  EATOM  =     36864.36233836
  Solvation  Ediel_sol  =         0.00000000
  ---------------------------------------------------
  free energy    TOTEN  =       -13.13648013 eV

  energy without entropy =      -13.13648013  energy(sigma->0) =      -13.13648013


--------------------------------------------------------------------------------------------------------




--------------------------------------- Iteration      1(   3)  ---------------------------------------


     EDDAV:  cpu time   12.9092: real time   12.9591
 BZINTS: Fermi energy:    0.794992;  394.001314 electrons
         Band energy:-0.126040E+04;  BLOECHL correction:   -0.052851
 WARNING: Fermi level nearly degenerate with energies of tetrahedron. This may
     result in numerical instabilities because the density changes by tiny
     changes of the Fermi energy. If the calculation converges, the total
     energy will still be reliable. If you notice convergence issues, you can
     try to
     *) Use a Gamma centered k-point grid
     *) Use tetrahedron method without corrections ISMEAR = -4
     *) Don't use tetrahedron method
        ISMEAR = 0 for semiconductors, 1 or 2 for metals

       DOS:  cpu time    0.0090: real time    0.0090
    --------------------------------------------
      LOOP:  cpu time   12.9181: real time   12.9681

 eigenvalue-minimisations  :  5768
 total energy-change (2. order) :-0.8167069E+02  (-0.7940125E+02)
 number of electron     393.9999952 magnetization 
 augmentation part      393.9999952 magnetization 

 Free energy of the ion-electron system (eV)
  ---------------------------------------------------
  alpha Z        PSCENC =       751.94559328
  Ewald energy   TEWEN  =     98514.75178796
  -Hartree energ DENC   =   -136134.49688624
  -exchange      EXHF   =         0.00000000
  -V(xc)+E(xc)   XCENC  =      -406.69571365
  PAW double counting   =     38967.74290451   -37392.01731973
  entropy T*S    EENTRO =         0.00000000
  eigenvalues    EBANDS =     -1260.39987081
  atomic energy  EATOM  =     36864.36233836
  Solvation  Ediel_sol  =         0.00000000
  ---------------------------------------------------
  free energy    TOTEN  =       -94.80716632 eV

  energy without entropy =      -94.80716632  energy(sigma->0) =      -94.80716632


--------------------------------------------------------------------------------------------------------




--------------------------------------- Iteration      1(   4)  ---------------------------------------


     EDDAV:  cpu time   13.9606: real time   13.9953
 BZINTS: Fermi energy:    0.785210;  394.000000 electrons
         Band energy:-0.126157E+04;  BLOECHL correction:   -0.052774
       DOS:  cpu time    0.0103: real time    0.0103
    --------------------------------------------
      LOOP:  cpu time   13.9708: real time   14.0055

 eigenvalue-minimisations  :  5964
 total energy-change (2. order) :-0.1166536E+01  (-0.1164647E+01)
 number of electron     393.9999952 magnetization 
 augmentation part      393.9999952 magnetization 

 Free energy of the ion-electron system (eV)
  ---------------------------------------------------
  alpha Z        PSCENC =       751.94559328
  Ewald energy   TEWEN  =     98514.75178796
  -Hartree energ DENC   =   -136134.49688624
  -exchange      EXHF   =         0.00000000
  -V(xc)+E(xc)   XCENC  =      -406.69571365
  PAW double counting   =     38967.74290451   -37392.01731973
  entropy T*S    EENTRO =         0.00000000
  eigenvalues    EBANDS =     -1261.56640724
  atomic energy  EATOM  =     36864.36233836
  Solvation  Ediel_sol  =         0.00000000
  ---------------------------------------------------
  free energy    TOTEN  =       -95.97370276 eV

  energy without entropy =      -95.97370276  energy(sigma->0) =      -95.97370276


--------------------------------------------------------------------------------------------------------




--------------------------------------- Iteration      1(   5)  ---------------------------------------


     EDDAV:  cpu time   14.9916: real time   15.0494
 BZINTS: Fermi energy:    0.785035;  394.000000 electrons
         Band energy:-0.126159E+04;  BLOECHL correction:   -0.052778
       DOS:  cpu time    0.0108: real time    0.0108
    --------------------------------------------
      LOOP:  cpu time   15.0024: real time   15.0602

 eigenvalue-minimisations  :  6160
 total energy-change (2. order) :-0.2230520E-01  (-0.2230604E-01)
 number of electron     393.9999952 magnetization 
 augmentation part      393.9999952 magnetization 

 Free energy of the ion-electron system (eV)
  ---------------------------------------------------
  alpha Z        PSCENC =       751.94559328
  Ewald energy   TEWEN  =     98514.75178796
  -Hartree energ DENC   =   -136134.49688624
  -exchange      EXHF   =         0.00000000
  -V(xc)+E(xc)   XCENC  =      -406.69571365
  PAW double counting   =     38967.74290451   -37392.01731973
  entropy T*S    EENTRO =         0.00000000
  eigenvalues    EBANDS =     -1261.58871244
  atomic energy  EATOM  =     36864.36233836
  Solvation  Ediel_sol  =         0.00000000
  ---------------------------------------------------
  free energy    TOTEN  =       -95.99600795 eV

  energy without entropy =      -95.99600795  energy(sigma->0) =      -95.99600795


--------------------------------------------------------------------------------------------------------




--------------------------------------- Iteration      1(   6)  ---------------------------------------


    EDDIAG:  cpu time    2.3976: real time    2.4119
  RMM-DIIS:  cpu time    6.9861: real time    7.0086
    ORTHCH:  cpu time    0.3916: real time    0.3922
 BZINTS: Fermi energy:    0.785032;  394.000000 electrons
         Band energy:-0.126159E+04;  BLOECHL correction:   -0.052777
       DOS:  cpu time    0.0110: real time    0.0110
    --------------------------------------------
      LOOP:  cpu time    9.7863: real time    9.8237

 eigenvalue-minimisations  :  5024
 total energy-change (2. order) :-0.5221566E-03  (-0.5221285E-03)
 number of electron     393.9999952 magnetization 
 augmentation part      393.9999952 magnetization 

 Free energy of the ion-electron system (eV)
  ---------------------------------------------------
  alpha Z        PSCENC =       751.94559328
  Ewald energy   TEWEN  =     98514.75178796
  -Hartree energ DENC   =   -136134.49688624
  -exchange      EXHF   =         0.00000000
  -V(xc)+E(xc)   XCENC  =      -406.69571365
  PAW double counting   =     38967.74290451   -37392.01731973
  entropy T*S    EENTRO =         0.00000000
  eigenvalues    EBANDS =     -1261.58923459
  atomic energy  EATOM  =     36864.36233836
  Solvation  Ediel_sol  =         0.00000000
  ---------------------------------------------------
  free energy    TOTEN  =       -95.99653011 eV

  energy without entropy =      -95.99653011  energy(sigma->0) =      -95.99653011


--------------------------------------------------------------------------------------------------------




--------------------------------------- Iteration      1(   7)  ---------------------------------------


    EDDIAG:  cpu time    2.2716: real time    2.2939
  RMM-DIIS:  cpu time    5.9779: real time    5.9807
    ORTHCH:  cpu time    0.2924: real time    0.2924
 BZINTS: Fermi energy:    0.785031;  394.000000 electrons
         Band energy:-0.126159E+04;  BLOECHL correction:   -0.052777
       DOS:  cpu time    0.0099: real time    0.0099
    --------------------------------------------
      LOOP:  cpu time    8.5518: real time    8.5769

 eigenvalue-minimisations  :  7092
 total energy-change (2. order) :-0.1748679E-03  (-0.1743152E-03)
 number of electron     393.9999952 magnetization 
 augmentation part      393.9999952 magnetization 

 Free energy of the ion-electron system (eV)
  ---------------------------------------------------
  alpha Z        PSCENC =       751.94559328
  Ewald energy   TEWEN  =     98514.75178796
  -Hartree energ DENC   =   -136134.49688624
  -exchange      EXHF   =         0.00000000
  -V(xc)+E(xc)   XCENC  =      -406.69571365
  PAW double counting   =     38967.74290451   -37392.01731973
  entropy T*S    EENTRO =         0.00000000
  eigenvalues    EBANDS =     -1261.58940946
  atomic energy  EATOM  =     36864.36233836
  Solvation  Ediel_sol  =         0.00000000
  ---------------------------------------------------
  free energy    TOTEN  =       -95.99670498 eV

  energy without entropy =      -95.99670498  energy(sigma->0) =      -95.99670498


--------------------------------------------------------------------------------------------------------




--------------------------------------- Iteration      1(   8)  ---------------------------------------


    EDDIAG:  cpu time    1.4644: real time    1.4646
  RMM-DIIS:  cpu time    6.2991: real time    6.3010
    ORTHCH:  cpu time    0.3764: real time    0.3768
 BZINTS: Fermi energy:    0.785031;  394.000000 electrons
         Band energy:-0.126159E+04;  BLOECHL correction:   -0.052777
       DOS:  cpu time    0.0103: real time    0.0104
    --------------------------------------------
      LOOP:  cpu time    8.1502: real time    8.1528

 eigenvalue-minimisations  :  4660
 total energy-change (2. order) :-0.6204849E-05  (-0.6082488E-05)
 number of electron     393.9999952 magnetization 
 augmentation part      393.9999952 magnetization 

 Free energy of the ion-electron system (eV)
  ---------------------------------------------------
  alpha Z        PSCENC =       751.94559328
  Ewald energy   TEWEN  =     98514.75178796
  -Hartree energ DENC   =   -136134.49688624
  -exchange      EXHF   =         0.00000000
  -V(xc)+E(xc)   XCENC  =      -406.69571365
  PAW double counting   =     38967.74290451   -37392.01731973
  entropy T*S    EENTRO =         0.00000000
  eigenvalues    EBANDS =     -1261.58941567
  atomic energy  EATOM  =     36864.36233836
  Solvation  Ediel_sol  =         0.00000000
  ---------------------------------------------------
  free energy    TOTEN  =       -95.99671118 eV

  energy without entropy =      -95.99671118  energy(sigma->0) =      -95.99671118


--------------------------------------------------------------------------------------------------------




 average (electrostatic) potential at core
  the test charge radii are     1.1249  1.2793
  (the norm of the test charge is              1.0000)
       1 -78.1071       2 -78.0758       3 -78.0758       4 -78.0758       5 -78.0747
       6 -78.0755       7 -78.0758       8 -78.0755       9 -78.0927      10 -78.3137
      11 -78.3018      12 -78.3134      13 -78.3018      14 -78.3014      15 -78.3044
      16 -78.3134      17 -78.3044      18 -78.3045      19 -78.2717      20 -78.2222
      21 -78.2219      22 -78.2862      23 -78.2219      24 -78.2859      25 -78.2717
      26 -78.2716      27 -78.2862      28 -78.0338      29 -77.9604      30 -77.9604
      31 -77.9604      32 -77.9602      33 -77.9604      34 -77.9602      35 -78.0407
      36 -56.2339
 
 
 
 E-fermi :   0.7850     XC(G=0):  -5.8878     alpha+bet : -5.5615

 Fermi energy:         0.7850312809

 k-point     1 :       0.0000    0.0000    0.0000
  band No.  band energies     occupation 
      1      -6.3143      2.00000
      2      -5.4449      2.00000
      3      -5.1687      2.00000
      4      -5.0462      2.00000
      5      -5.0207      2.00000
      6      -5.0207      2.00000
      7      -5.0165      2.00000
      8      -5.0103      2.00000
      9      -5.0103      2.00000
     10      -4.9940      2.00000
     11      -4.9778      2.00000
     12      -4.9677      2.00000
     13      -4.9676      2.00000
     14      -4.9631      2.00000
     15      -4.9631      2.00000
     16      -4.9476      2.00000
     17      -4.8114      2.00000
     18      -4.8024      2.00000
     19      -4.8024      2.00000
     20      -4.7989      2.00000
     21      -4.7977      2.00000
     22      -4.7977      2.00000
     23      -4.6367      2.00000
     24      -4.6144      2.00000
     25      -4.6143      2.00000
     26      -4.6069      2.00000
     27      -4.5880      2.00000
     28      -4.5880      2.00000
     29      -4.5851      2.00000
     30      -4.5762      2.00000
     31      -4.5577      2.00000
     32      -4.5577      2.00000
     33      -4.5478      2.00000
     34      -4.5478      2.00000
     35      -4.4870      2.00000
     36      -4.4337      2.00000
     37      -4.4318      2.00000
     38      -4.4317      2.00000
     39      -4.3454      2.00000
     40      -4.3453      2.00000
     41      -4.2325      2.00000
     42      -4.2324      2.00000
     43      -4.2104      2.00000
     44      -4.2103      2.00000
     45      -4.2093      2.00000
     46      -4.1942      2.00000
     47      -4.1942      2.00000
     48      -4.1899      2.00000
     49      -4.1546      2.00000
     50      -4.1546      2.00000
     51      -4.0726      2.00000
     52      -4.0691      2.00000
     53      -4.0288      2.00000
     54      -4.0131      2.00000
     55      -3.8309      2.00000
     56      -3.8268      2.00000
     57      -3.8267      2.00000
     58      -3.8252      2.00000
     59      -3.8143      2.00000
     60      -3.8143      2.00000
     61      -3.8061      2.00000
     62      -3.7988      2.00000
     63      -3.7988      2.00000
     64      -3.7531      2.00000
     65      -3.7531      2.00000
     66      -3.6654      2.00000
     67      -3.6654      2.00000
     68      -3.6435      2.00000
     69      -3.6434      2.00000
     70      -3.6429      2.00000
     71      -3.6383      2.00000
     72      -3.6229      2.00000
     73      -3.6228      2.00000
     74      -3.5940      2.00000
     75      -3.5940      2.00000
     76      -3.5892      2.00000
     77      -3.5832      2.00000
     78      -3.5831      2.00000
     79      -3.5739      2.00000
     80      -3.5592      2.00000
     81      -3.5574      2.00000
     82      -3.5574      2.00000
     83      -3.5261      2.00000
     84      -3.5261      2.00000
     85      -3.4387      2.00000
     86      -3.4340      2.00000
     87      -3.4340      2.00000
     88      -3.4097      2.00000
     89      -3.4097      2.00000
     90      -3.3856      2.00000
     91      -3.3856      2.00000
     92      -3.3557      2.00000
     93      -3.3557      2.00000
     94      -3.3443      2.00000
     95      -3.3441      2.00000
     96      -3.3440      2.00000
     97      -3.2478      2.00000
     98      -3.2478      2.00000
     99      -3.1150      2.00000
    100      -3.1149      2.00000
    101      -3.0960      2.00000
    102      -3.0871      2.00000
    103      -3.0848      2.00000
    104      -3.0847      2.00000
    105      -3.0700      2.00000
    106      -3.0700      2.00000
    107      -3.0570      2.00000
    108      -3.0237      2.00000
    109      -3.0237      2.00000
    110      -2.9785      2.00000
    111      -2.9757      2.00000
    112      -2.9409      2.00000
    113      -2.9409      2.00000
    114      -2.9306      2.00000
    115      -2.8572      2.00000
    116      -2.8572      2.00000
    117      -2.8430      2.00000
    118      -2.8430      2.00000
    119      -2.7642      2.00000
    120      -2.7642      2.00000
    121      -2.7507      2.00000
    122      -2.7457      2.00000
    123      -2.7456      2.00000
    124      -2.7335      2.00000
    125      -2.7334      2.00000
    126      -2.7155      2.00000
    127      -2.7103      2.00000
    128      -2.7083      2.00000
    129      -2.7083      2.00000
    130      -2.7017      2.00000
    131      -2.6993      2.00000
    132      -2.6993      2.00000
    133      -2.5870      2.00000
    134      -2.5870      2.00000
    135      -2.5304      2.00000
    136      -2.5126      2.00000
    137      -2.5126      2.00000
    138      -2.5049      2.00000
    139      -2.5007      2.00000
    140      -2.5006      2.00000
    141      -2.4973      2.00000
    142      -2.4962      2.00000
    143      -2.4961      2.00000
    144      -2.4948      2.00000
    145      -2.4725      2.00000
    146      -2.4725      2.00000
    147      -2.4306      2.00000
    148      -2.4164      2.00000
    149      -2.4161      2.00000
    150      -2.4161      2.00000
    151      -2.4049      2.00000
    152      -2.4029      2.00000
    153      -2.4028      2.00000
    154      -2.4007      2.00000
    155      -2.3572      2.00000
    156      -2.3561      2.00000
    157      -2.3561      2.00000
    158      -2.3306      2.00000
    159      -2.3306      2.00000
    160      -2.3239      2.00000
    161      -2.3176      2.00000
    162      -2.3176      2.00000
    163      -2.3152      2.00000
    164      -2.2696      2.00000
    165      -2.2696      2.00000
    166      -2.2611      2.00000
    167      -2.2536      2.00000
    168      -2.2536      2.00000
    169      -2.2316      2.00000
    170      -2.2120      2.00000
    171      -2.1926      2.00000
    172      -2.1926      2.00000
    173      -2.1521      2.00000
    174      -2.1521      2.00000
    175      -2.1213      2.00000
    176      -2.1212      2.00000
    177      -2.0887      2.00000
    178      -2.0807      2.00000
    179      -2.0779      2.00000
    180      -2.0143      2.00000
    181      -2.0143      2.00000
    182      -2.0136      2.00000
    183      -1.9982      2.00000
    184      -1.9982      2.00000
    185      -1.2927      2.00000
    186      -1.2851      2.00000
    187      -1.2850      2.00000
    188      -1.2467      2.00000
    189      -1.2190      2.00000
    190      -1.2189      2.00000
    191      -0.1962      2.00000
    192      -0.0160      2.00000
    193      -0.0160      2.00000
    194       0.0160      2.00000
    195       0.1112      2.00000
    196       0.1112      2.00000
    197       0.4827      2.00000
    198       0.5799      2.00000
    199       0.5799      2.00000
    200       0.6439      1.40721
    201       0.6439      1.32095
    202       0.8156      0.00000
    203       1.2389      0.00000
    204       2.6973      0.00000
    205       2.7515      0.00000
    206       2.7515      0.00000
    207       2.8637      0.00000
    208       2.9627      0.00000
    209       2.9628      0.00000
    210       4.0787      0.00000
    211       4.1224      0.00000
    212       4.2744      0.00000
    213       4.2745      0.00000
    214       4.3223      0.00000
    215       4.3223      0.00000
    216       4.9599      0.00000
    217       5.0624      0.00000
    218       5.0788      0.00000
    219       5.0788      0.00000
    220       5.0885      0.00000
    221       5.1063      0.00000
    222       5.1063      0.00000
    223       5.1697      0.00000
    224       5.1697      0.00000
    225       5.2304      0.00000
    226       5.3195      0.00000
    227       5.3195      0.00000
    228       5.3712      0.00000
    229       5.3969      0.00000
    230       6.4760      0.00000
    231       6.6833      0.00000
    232       6.6833      0.00000
    233       6.6843      0.00000
    234       6.8389      0.00000
    235       6.8642      0.00000
    236       6.8642      0.00000
    237       6.8688      0.00000
    238       7.0397      0.00000
    239       7.0397      0.00000
    240       7.0422      0.00000
    241       7.0650      0.00000
    242       7.0650      0.00000
    243       7.1712      0.00000
    244       7.3406      0.00000
    245       7.3630      0.00000
    246       7.3633      0.00000
    247       7.4365      0.00000
    248       7.4382      0.00000
    249       7.5199      0.00000
    250       7.7415      0.00000
    251       7.7434      0.00000
    252       7.7467      0.00000

 k-point     2 :       0.1250   -0.0000    0.0000
  band No.  band energies     occupation 
      1      -6.2683      2.00000
      2      -5.4036      2.00000
      3      -5.1389      2.00000
      4      -5.0763      2.00000
      5      -5.0463      2.00000
      6      -5.0272      2.00000
      7      -5.0158      2.00000
      8      -5.0139      2.00000
      9      -4.9924      2.00000
     10      -4.9851      2.00000
     11      -4.9823      2.00000
     12      -4.9724      2.00000
     13      -4.9439      2.00000
     14      -4.9047      2.00000
     15      -4.8984      2.00000
     16      -4.8971      2.00000
     17      -4.8787      2.00000
     18      -4.8480      2.00000
     19      -4.8474      2.00000
     20      -4.7451      2.00000
     21      -4.7362      2.00000
     22      -4.6944      2.00000
     23      -4.6857      2.00000
     24      -4.6732      2.00000
     25      -4.6708      2.00000
     26      -4.6264      2.00000
     27      -4.6190      2.00000
     28      -4.5726      2.00000
     29      -4.5707      2.00000
     30      -4.5517      2.00000
     31      -4.5366      2.00000
     32      -4.5208      2.00000
     33      -4.5072      2.00000
     34      -4.4677      2.00000
     35      -4.4630      2.00000
     36      -4.4384      2.00000
     37      -4.4206      2.00000
     38      -4.3846      2.00000
     39      -4.3123      2.00000
     40      -4.3113      2.00000
     41      -4.2949      2.00000
     42      -4.2948      2.00000
     43      -4.2666      2.00000
     44      -4.2349      2.00000
     45      -4.2348      2.00000
     46      -4.2198      2.00000
     47      -4.2122      2.00000
     48      -4.1624      2.00000
     49      -4.1477      2.00000
     50      -4.1213      2.00000
     51      -4.0452      2.00000
     52      -4.0421      2.00000
     53      -4.0145      2.00000
     54      -4.0137      2.00000
     55      -3.8556      2.00000
     56      -3.8519      2.00000
     57      -3.8474      2.00000
     58      -3.8315      2.00000
     59      -3.8253      2.00000
     60      -3.8184      2.00000
     61      -3.8128      2.00000
     62      -3.7971      2.00000
     63      -3.7840      2.00000
     64      -3.7824      2.00000
     65      -3.7357      2.00000
     66      -3.6973      2.00000
     67      -3.6779      2.00000
     68      -3.6727      2.00000
     69      -3.6672      2.00000
     70      -3.6653      2.00000
     71      -3.6316      2.00000
     72      -3.6260      2.00000
     73      -3.6199      2.00000
     74      -3.6116      2.00000
     75      -3.6113      2.00000
     76      -3.6023      2.00000
     77      -3.5887      2.00000
     78      -3.5747      2.00000
     79      -3.5699      2.00000
     80      -3.5665      2.00000
     81      -3.5444      2.00000
     82      -3.5423      2.00000
     83      -3.5365      2.00000
     84      -3.5148      2.00000
     85      -3.5099      2.00000
     86      -3.5048      2.00000
     87      -3.4981      2.00000
     88      -3.4558      2.00000
     89      -3.4541      2.00000
     90      -3.3825      2.00000
     91      -3.3728      2.00000
     92      -3.3487      2.00000
     93      -3.3425      2.00000
     94      -3.2724      2.00000
     95      -3.2597      2.00000
     96      -3.2564      2.00000
     97      -3.2356      2.00000
     98      -3.2232      2.00000
     99      -3.1674      2.00000
    100      -3.1623      2.00000
    101      -3.1408      2.00000
    102      -3.1374      2.00000
    103      -3.1064      2.00000
    104      -3.1056      2.00000
    105      -3.0901      2.00000
    106      -3.0644      2.00000
    107      -3.0517      2.00000
    108      -3.0220      2.00000
    109      -3.0076      2.00000
    110      -2.9995      2.00000
    111      -2.9870      2.00000
    112      -2.9369      2.00000
    113      -2.9331      2.00000
    114      -2.9159      2.00000
    115      -2.9008      2.00000
    116      -2.8812      2.00000
    117      -2.8795      2.00000
    118      -2.8578      2.00000
    119      -2.8483      2.00000
    120      -2.8425      2.00000
    121      -2.8199      2.00000
    122      -2.8182      2.00000
    123      -2.7895      2.00000
    124      -2.7799      2.00000
    125      -2.7724      2.00000
    126      -2.7381      2.00000
    127      -2.7330      2.00000
    128      -2.7142      2.00000
    129      -2.7132      2.00000
    130      -2.6894      2.00000
    131      -2.6874      2.00000
    132      -2.6717      2.00000
    133      -2.6685      2.00000
    134      -2.6479      2.00000
    135      -2.6406      2.00000
    136      -2.6099      2.00000
    137      -2.5911      2.00000
    138      -2.5856      2.00000
    139      -2.5658      2.00000
    140      -2.5453      2.00000
    141      -2.5245      2.00000
    142      -2.5209      2.00000
    143      -2.4982      2.00000
    144      -2.4929      2.00000
    145      -2.4645      2.00000
    146      -2.4622      2.00000
    147      -2.4438      2.00000
    148      -2.4417      2.00000
    149      -2.4365      2.00000
    150      -2.4331      2.00000
    151      -2.4229      2.00000
    152      -2.4102      2.00000
    153      -2.3905      2.00000
    154      -2.3890      2.00000
    155      -2.3765      2.00000
    156      -2.3756      2.00000
    157      -2.3657      2.00000
    158      -2.3511      2.00000
    159      -2.3373      2.00000
    160      -2.3354      2.00000
    161      -2.3256      2.00000
    162      -2.3092      2.00000
    163      -2.2878      2.00000
    164      -2.2877      2.00000
    165      -2.2710      2.00000
    166      -2.2617      2.00000
    167      -2.2402      2.00000
    168      -2.2223      2.00000
    169      -2.2207      2.00000
    170      -2.2009      2.00000
    171      -2.1793      2.00000
    172      -2.1629      2.00000
    173      -2.1553      2.00000
    174      -2.1535      2.00000
    175      -2.1429      2.00000
    176      -2.1272      2.00000
    177      -2.1138      2.00000
    178      -2.0921      2.00000
    179      -2.0810      2.00000
    180      -2.0797      2.00000
    181      -2.0624      2.00000
    182      -1.8147      2.00000
    183      -1.5787      2.00000
    184      -1.5742      2.00000
    185      -1.5103      2.00000
    186      -1.4556      2.00000
    187      -1.3186      2.00000
    188      -0.8794      2.00000
    189      -0.8221      2.00000
    190      -0.5663      2.00000
    191      -0.2889      2.00000
    192      -0.1090      2.00000
    193      -0.0335      2.00000
    194       0.0127      2.00000
    195       0.1406      2.00000
    196       0.1631      2.00000
    197       0.2828      2.00000
    198       0.4206      2.00000
    199       0.5415      2.07318
    200       0.9443     -0.01379
    201       0.9591     -0.01968
    202       1.2061      0.00000
    203       1.3458      0.00000
    204       2.2707      0.00000
    205       2.5725      0.00000
    206       2.6229      0.00000
    207       3.1140      0.00000
    208       3.1720      0.00000
    209       3.2311      0.00000
    210       3.2334      0.00000
    211       3.4040      0.00000
    212       4.1052      0.00000
    213       4.1297      0.00000
    214       4.3685      0.00000
    215       4.3825      0.00000
    216       4.4669      0.00000
    217       4.8420      0.00000
    218       4.8608      0.00000
    219       4.9997      0.00000
    220       5.1280      0.00000
    221       5.1462      0.00000
    222       5.1762      0.00000
    223       5.2985      0.00000
    224       5.3204      0.00000
    225       5.4850      0.00000
    226       5.4859      0.00000
    227       5.6309      0.00000
    228       5.7842      0.00000
    229       5.7893      0.00000
    230       6.2392      0.00000
    231       6.4452      0.00000
    232       6.4554      0.00000
    233       6.5170      0.00000
    234       6.6135      0.00000
    235       6.7015      0.00000
    236       6.7328      0.00000
    237       6.7359      0.00000
    238       6.8546      0.00000
    239       6.8579      0.00000
    240       6.8716      0.00000
    241       6.9477      0.00000
    242       7.0883      0.00000
    243       7.1366      0.00000
    244       7.3531      0.00000
    245       7.3671      0.00000
    246       7.3719      0.00000
    247       7.4041      0.00000
    248       7.4063      0.00000
    249       7.4746      0.00000
    250       7.8308      0.00000
    251       7.8534      0.00000
    252       7.8798      0.00000

 k-point     3 :       0.2500   -0.0000    0.0000
  band No.  band energies     occupation 
      1      -6.1329      2.00000
      2      -5.2860      2.00000
      3      -5.1448      2.00000
      4      -5.1286      2.00000
      5      -5.0901      2.00000
      6      -5.0397      2.00000
      7      -4.9926      2.00000
      8      -4.9802      2.00000
      9      -4.9781      2.00000
     10      -4.9607      2.00000
     11      -4.9499      2.00000
     12      -4.9168      2.00000
     13      -4.9050      2.00000
     14      -4.8799      2.00000
     15      -4.8708      2.00000
     16      -4.8405      2.00000
     17      -4.8117      2.00000
     18      -4.7782      2.00000
     19      -4.7759      2.00000
     20      -4.7636      2.00000
     21      -4.7632      2.00000
     22      -4.7378      2.00000
     23      -4.6799      2.00000
     24      -4.6662      2.00000
     25      -4.6330      2.00000
     26      -4.6172      2.00000
     27      -4.6151      2.00000
     28      -4.5900      2.00000
     29      -4.5881      2.00000
     30      -4.5555      2.00000
     31      -4.4871      2.00000
     32      -4.4808      2.00000
     33      -4.4503      2.00000
     34      -4.4418      2.00000
     35      -4.4288      2.00000
     36      -4.4046      2.00000
     37      -4.3817      2.00000
     38      -4.3386      2.00000
     39      -4.3329      2.00000
     40      -4.3266      2.00000
     41      -4.2938      2.00000
     42      -4.2750      2.00000
     43      -4.2702      2.00000
     44      -4.2504      2.00000
     45      -4.2462      2.00000
     46      -4.2347      2.00000
     47      -4.2135      2.00000
     48      -4.1481      2.00000
     49      -4.1367      2.00000
     50      -4.0973      2.00000
     51      -4.0875      2.00000
     52      -4.0621      2.00000
     53      -4.0013      2.00000
     54      -3.9906      2.00000
     55      -3.9189      2.00000
     56      -3.9086      2.00000
     57      -3.9020      2.00000
     58      -3.9019      2.00000
     59      -3.8808      2.00000
     60      -3.8611      2.00000
     61      -3.8440      2.00000
     62      -3.8413      2.00000
     63      -3.8082      2.00000
     64      -3.7558      2.00000
     65      -3.7534      2.00000
     66      -3.7404      2.00000
     67      -3.7195      2.00000
     68      -3.7058      2.00000
     69      -3.7020      2.00000
     70      -3.6965      2.00000
     71      -3.6860      2.00000
     72      -3.6791      2.00000
     73      -3.6604      2.00000
     74      -3.6585      2.00000
     75      -3.6059      2.00000
     76      -3.5965      2.00000
     77      -3.5927      2.00000
     78      -3.5805      2.00000
     79      -3.5788      2.00000
     80      -3.5668      2.00000
     81      -3.5660      2.00000
     82      -3.5409      2.00000
     83      -3.5172      2.00000
     84      -3.5143      2.00000
     85      -3.5030      2.00000
     86      -3.5003      2.00000
     87      -3.4835      2.00000
     88      -3.4821      2.00000
     89      -3.4444      2.00000
     90      -3.3884      2.00000
     91      -3.3811      2.00000
     92      -3.3696      2.00000
     93      -3.3409      2.00000
     94      -3.3143      2.00000
     95      -3.3033      2.00000
     96      -3.2925      2.00000
     97      -3.2601      2.00000
     98      -3.2118      2.00000
     99      -3.1950      2.00000
    100      -3.1937      2.00000
[...]
  0.000   0.000   0.000   2.000   0.000   0.000   0.000   0.000   0.000   0.000   0.000   0.000   0.000   0.000   0.000   0.000
  0.000   0.000   0.000   0.000   2.000   0.000   0.000   0.000   0.000   0.000   0.000   0.000   0.000   0.000   0.000   0.000
  0.000   0.000   0.000   0.000   0.000   0.000   0.000   0.000   0.000   0.000   0.000   0.000   0.000   0.000   0.000   0.000
  0.000   0.000   0.000   0.000   0.000   0.000   0.000   0.000   0.000   0.000   0.000   0.000   0.000   0.000   0.000   0.000
  0.000   0.000   0.000   0.000   0.000   0.000   0.000   0.000   0.000   0.000   0.000   0.000   0.000   0.000   0.000   0.000
  0.000   0.000   0.000   0.000   0.000   0.000   0.000   0.000   0.000   0.000   0.000   0.000   0.000   0.000   0.000   0.000
  0.000   0.000   0.000   0.000   0.000   0.000   0.000   0.000   0.000   0.000   0.000   0.000   0.000   0.000   0.000   0.000
  0.000   0.000   0.000   0.000   0.000   0.000   0.000   0.000   0.000   0.000   1.000   0.000   0.000   0.000   0.000   0.000
  0.000   0.000   0.000   0.000   0.000   0.000   0.000   0.000   0.000   0.000   0.000   0.000   0.000   0.000   0.000   0.000
  0.000   0.000   0.000   0.000   0.000   0.000   0.000   0.000   0.000   0.000   0.000   0.000   0.000   0.000   0.000   0.000
  0.000   0.000   0.000   0.000   0.000   0.000   0.000   0.000   0.000   0.000   0.000   0.000   0.000   0.000   0.000   0.000
  0.000   0.000   0.000   0.000   0.000   0.000   0.000   0.000   0.000   0.000   0.000   0.000   0.000   0.000   0.000   0.000
  0.000   0.000   0.000   0.000   0.000   0.000   0.000   0.000   0.000   0.000   0.000   0.000   0.000   0.000   0.000   0.000
  0.000   0.000   0.000   0.000   0.000   0.000   0.000   0.000   0.000   0.000   0.000   0.000   0.000   0.000   0.000   0.000
  0.000   0.000   0.000   0.000   0.000   0.000   0.000   0.000   0.000   0.000   0.000   0.000   0.000   0.000   0.000   0.000


------------------------ aborting loop because EDIFF is reached ----------------------------------------





 total charge

# of ion       s       p       d       tot
------------------------------------------
    1        0.415   0.204   9.177   9.796
    2        0.419   0.202   9.178   9.799
    3        0.419   0.202   9.178   9.799
    4        0.419   0.202   9.178   9.799
    5        0.413   0.204   9.178   9.796
    6        0.419   0.202   9.178   9.799
    7        0.419   0.202   9.178   9.799
    8        0.419   0.202   9.178   9.799
    9        0.417   0.203   9.178   9.797
   10        0.406   0.270   9.162   9.839
   11        0.408   0.268   9.168   9.844
   12        0.406   0.270   9.162   9.839
   13        0.408   0.268   9.168   9.844
   14        0.408   0.268   9.168   9.844
   15        0.404   0.268   9.167   9.839
   16        0.406   0.270   9.162   9.839
   17        0.404   0.268   9.167   9.839
   18        0.404   0.268   9.167   9.839
   19        0.402   0.267   9.167   9.835
   20        0.412   0.295   9.156   9.863
   21        0.412   0.295   9.156   9.863
   22        0.398   0.272   9.169   9.839
   23        0.412   0.295   9.156   9.863
   24        0.398   0.272   9.169   9.839
   25        0.402   0.267   9.167   9.835
   26        0.402   0.267   9.167   9.835
   27        0.398   0.272   9.169   9.839
   28        0.414   0.196   9.182   9.791
   29        0.414   0.214   9.170   9.798
   30        0.414   0.214   9.170   9.798
   31        0.414   0.214   9.170   9.798
   32        0.414   0.214   9.170   9.798
   33        0.414   0.214   9.170   9.798
   34        0.414   0.214   9.170   9.798
   35        0.406   0.198   9.183   9.787
   36        0.578   0.257   7.088   7.923
--------------------------------------------------
tot         14.935   8.675 328.041 351.652
 
    CHARGE:  cpu time    0.6204: real time    0.6217
    FORLOC:  cpu time    0.0101: real time    0.0101
    FORNL :  cpu time    2.3679: real time    2.3681
    STRESS:  cpu time    7.0092: real time    7.0368
    FORCOR:  cpu time    0.0698: real time    0.0700
    FORHAR:  cpu time    0.0210: real time    0.0210
    OFIELD:  cpu time    0.0003: real time    0.0003

  FORCE on cell =-STRESS in cart. coord.  units (eV):
  Direction    XX          YY          ZZ          XY          YZ          ZX
  --------------------------------------------------------------------------------------
  Alpha Z   751.94559   751.94559   751.94559
  Ewald  121284.93994121284.93992************     0.00001     0.00000    -0.00002
  Hartree131423.87839131423.87837************     0.00000    -0.00000    -0.00000
  E(xc)   -2069.85904 -2069.85903 -2075.63707    -0.00001     0.00000     0.00000
  Local  ************************264237.02608     0.00020    -0.00004    -0.00004
  n-local  -346.56370  -325.15051  -341.23572    11.87606    -0.45802     0.62901
  augment  3259.83014  3259.83030  3269.82629    -0.00014     0.00001     0.00003
  Kinetic  4879.44050  4888.50499  4913.16073     6.03853     0.58107    -0.00373
  Fock        0.00000     0.00000     0.00000     0.00000     0.00000     0.00000
  -------------------------------------------------------------------------------------
  Total      -8.97673    -8.97673     0.66570    -0.00000     0.00000    -0.00000
  in kB      -9.68859    -9.68859     0.71849    -0.00000     0.00000    -0.00000
  external pressure =       -6.22 kB  Pullay stress =        0.00 kB


 VOLUME and BASIS-vectors are now :
 -----------------------------------------------------------------------------
  energy-cutoff  :      500.00
  volume of cell :     1484.46
      direct lattice vectors                 reciprocal lattice vectors
     8.791366577  0.000000000  0.000000000     0.113747958 -0.065672414  0.000000000
     4.395683289  7.613546790  0.000000000     0.000000000  0.131344829  0.000000000
     0.000000000  0.000000000 22.178121567     0.000000000  0.000000000  0.045089481

  length of vectors
     8.791366577  8.791366577 22.178121567     0.131344829  0.131344829  0.045089481


 FORCES acting on ions
    electron-ion (+dipol)            ewald-force                    non-local-force                 convergence-correction
 -----------------------------------------------------------------------------------------------
   0.459E-04 -.283E-04 0.250E+04   -.954E-04 0.593E-04 -.250E+04   -.947E-19 -.125E-17 -.219E+01   -.126E-03 -.180E-03 -.243E+00
   0.413E+00 0.443E+00 0.250E+04   -.491E+00 -.417E+00 -.250E+04   0.436E-01 -.232E-01 -.161E+01   0.328E-01 0.220E-02 -.146E+00
   -.413E+00 0.443E+00 0.250E+04   0.491E+00 -.417E+00 -.250E+04   -.436E-01 -.232E-01 -.161E+01   -.333E-01 0.418E-02 -.146E+00
   0.590E+00 0.136E+00 0.250E+04   -.607E+00 -.217E+00 -.250E+04   0.173E-02 0.494E-01 -.161E+01   0.185E-01 0.275E-01 -.146E+00
   -.793E-05 -.200E-04 0.250E+04   0.981E-04 -.197E-05 -.250E+04   0.162E-17 0.647E-18 -.161E+01   0.630E-02 0.385E-02 -.208E+00
   -.590E+00 0.136E+00 0.250E+04   0.606E+00 -.217E+00 -.250E+04   -.173E-02 0.494E-01 -.161E+01   -.200E-01 0.284E-01 -.145E+00
   0.177E+00 -.579E+00 0.250E+04   -.116E+00 0.634E+00 -.250E+04   -.419E-01 -.262E-01 -.161E+01   -.126E-01 -.304E-01 -.146E+00
   -.177E+00 -.579E+00 0.250E+04   0.115E+00 0.634E+00 -.250E+04   0.419E-01 -.262E-01 -.161E+01   0.143E-01 -.315E-01 -.145E+00
   0.365E-04 -.130E-04 0.250E+04   0.792E-04 -.643E-04 -.250E+04   0.166E-17 0.156E-17 -.183E+01   -.670E-02 -.346E-02 -.195E+00
   0.594E+01 0.343E+01 0.826E+03   -.565E+01 -.326E+01 -.826E+03   -.287E+00 -.166E+00 -.819E+00   0.104E-01 0.603E-02 0.164E+00
   -.287E-04 0.411E+01 0.832E+03   0.409E-04 -.419E+01 -.832E+03   0.850E-14 0.129E-02 -.506E+00   0.644E-02 0.501E-01 0.181E+00
   -.594E+01 0.343E+01 0.826E+03   0.565E+01 -.326E+01 -.826E+03   0.287E+00 -.166E+00 -.819E+00   -.122E-01 0.752E-02 0.165E+00
   0.356E+01 -.205E+01 0.832E+03   -.363E+01 0.210E+01 -.832E+03   0.112E-02 -.647E-03 -.506E+00   0.465E-01 -.195E-01 0.181E+00
   -.356E+01 -.205E+01 0.832E+03   0.363E+01 0.210E+01 -.832E+03   -.112E-02 -.647E-03 -.506E+00   -.354E-01 -.202E-01 0.181E+00
   0.161E-04 0.184E+01 0.827E+03   -.108E-03 -.179E+01 -.827E+03   0.132E-12 0.201E-01 -.662E+00   -.196E-02 -.853E-01 0.104E+00
   -.815E-05 -.686E+01 0.826E+03   0.205E-04 0.652E+01 -.826E+03   0.218E-11 0.331E+00 -.819E+00   0.385E-03 -.144E-01 0.165E+00
   0.159E+01 -.920E+00 0.827E+03   -.155E+01 0.894E+00 -.827E+03   0.174E-01 -.100E-01 -.662E+00   -.749E-01 0.409E-01 0.104E+00
   -.159E+01 -.920E+00 0.827E+03   0.155E+01 0.894E+00 -.827E+03   -.174E-01 -.100E-01 -.662E+00   0.748E-01 0.431E-01 0.104E+00
   0.407E-04 0.268E+01 -.876E+03   -.128E-03 -.262E+01 0.876E+03   -.336E-12 -.512E-01 0.464E+00   -.637E-02 -.188E-01 0.299E+00
   0.626E+01 0.362E+01 -.846E+03   -.563E+01 -.325E+01 0.846E+03   -.737E+00 -.426E+00 -.881E+00   0.107E+00 0.618E-01 0.341E+00
   -.626E+01 0.362E+01 -.846E+03   0.563E+01 -.325E+01 0.846E+03   0.737E+00 -.426E+00 -.881E+00   -.105E+00 0.629E-01 0.341E+00
   -.118E+01 0.684E+00 -.865E+03   0.637E+00 -.368E+00 0.864E+03   0.359E+00 -.207E+00 0.517E+00   0.168E+00 -.102E+00 0.293E+00
   -.545E-04 -.723E+01 -.846E+03   0.424E-04 0.651E+01 0.846E+03   0.559E-11 0.851E+00 -.881E+00   0.216E-02 -.122E+00 0.341E+00
   0.118E+01 0.684E+00 -.865E+03   -.637E+00 -.368E+00 0.864E+03   -.359E+00 -.207E+00 0.517E+00   -.179E+00 -.103E+00 0.294E+00
   -.232E+01 -.134E+01 -.876E+03   0.227E+01 0.131E+01 0.876E+03   0.443E-01 0.256E-01 0.464E+00   0.104E-01 0.587E-02 0.298E+00
   0.232E+01 -.134E+01 -.876E+03   -.227E+01 0.131E+01 0.876E+03   -.443E-01 0.256E-01 0.464E+00   -.198E-01 0.374E-02 0.299E+00
   0.198E-04 -.137E+01 -.865E+03   0.110E-03 0.735E+00 0.864E+03   0.272E-11 0.415E+00 0.517E+00   -.504E-02 0.197E+00 0.294E+00
   0.541E-04 -.368E-04 -.252E+04   -.114E-03 0.774E-04 0.251E+04   -.623E-17 0.602E-17 0.208E+01   -.148E-04 -.144E-03 0.250E+00
   0.236E+01 0.556E+01 -.253E+04   -.166E+01 -.449E+01 0.253E+04   -.741E+00 -.109E+01 0.167E+01   0.406E-01 0.131E-01 0.278E+00
   -.236E+01 0.556E+01 -.253E+04   0.166E+01 -.449E+01 0.253E+04   0.741E+00 -.109E+01 0.167E+01   -.409E-01 0.148E-01 0.278E+00
   0.600E+01 -.742E+00 -.253E+04   -.472E+01 0.810E+00 0.253E+04   -.131E+01 -.988E-01 0.167E+01   0.318E-01 0.288E-01 0.278E+00
   -.600E+01 -.742E+00 -.253E+04   0.472E+01 0.810E+00 0.253E+04   0.131E+01 -.988E-01 0.167E+01   -.329E-01 0.296E-01 0.277E+00
   0.364E+01 -.482E+01 -.253E+04   -.306E+01 0.368E+01 0.253E+04   -.570E+00 0.118E+01 0.167E+01   -.714E-02 -.422E-01 0.278E+00
   -.364E+01 -.482E+01 -.253E+04   0.306E+01 0.368E+01 0.253E+04   0.570E+00 0.118E+01 0.167E+01   0.879E-02 -.432E-01 0.277E+00
   0.246E-04 -.131E-04 -.251E+04   0.105E-03 -.653E-04 0.251E+04   -.273E-17 -.121E-17 0.221E+01   -.667E-02 -.342E-02 0.445E+00
   -.248E-04 -.147E-04 -.200E+04   0.867E-04 0.108E-04 0.199E+04   0.208E-17 0.225E-17 0.200E+01   0.231E-02 0.139E-02 0.369E+00
 -----------------------------------------------------------------------------------------------
   0.320E-03 -.707E-03 -.629E+00   0.423E-13 0.168E-12 -.227E-11   -.334E-15 0.104E-17 -.464E+01   -.183E-01 -.734E-02 0.536E+01
 
 
 POSITION                                       TOTAL-FORCE (eV/Angst)
 -----------------------------------------------------------------------------------
      0.00000      0.00000      5.28219        -0.000000      0.000000      0.051984
      2.93046      0.00000      5.28219        -0.001161      0.005974      0.028366
      5.86091      0.00000      5.28219         0.001161      0.005974      0.028366
      1.46523      2.53785      5.28219         0.004593     -0.003993      0.028366
      4.39568      2.53785      5.28219        -0.000000      0.000000      0.014686
      7.32614      2.53785      5.28219        -0.004593     -0.003993      0.028366
      2.93046      5.07570      5.28219         0.005755     -0.001981      0.028366
      5.86091      5.07570      5.28219        -0.005755     -0.001981      0.028366
      8.79137      5.07570      5.28219        -0.000000      0.000000      0.032499
      1.46523      0.84595      7.67490         0.018638      0.010761      0.001230
      4.39568      0.84595      7.67490        -0.000000     -0.036849     -0.094427
      7.32614      0.84595      7.67490        -0.018638      0.010761      0.001230
      2.93046      3.38380      7.67490        -0.031912      0.018424     -0.094427
      5.86091      3.38380      7.67490         0.031912      0.018424     -0.094427
      8.79137      3.38380      7.67490        -0.000000     -0.014906      0.001836
      4.39568      5.92165      7.67490        -0.000000     -0.021521      0.001230
      7.32614      5.92165      7.67490        -0.012909      0.007453      0.001836
     10.25659      5.92165      7.67490         0.012909      0.007453      0.001836
      8.79137      1.70006     10.06849        -0.000000     -0.003920     -0.011915
      2.92657      1.68966     10.02287        -0.000952     -0.000550     -0.006037
      5.86479      1.68966     10.02287         0.000952     -0.000550     -0.006037
     10.25237      4.23218     10.05185        -0.015579      0.008994     -0.012536
      4.39568      4.23423     10.02287         0.000000      0.001100     -0.006037
      7.33036      4.23218     10.05185         0.015579      0.008994     -0.012536
     11.71475      6.76352     10.06849         0.003395      0.001960     -0.011915
      5.86798      6.76352     10.06849        -0.003395      0.001960     -0.011915
      8.79137      6.76272     10.05185        -0.000000     -0.017989     -0.012536
      0.00000      0.00000     12.42216        -0.000000      0.000000      0.022769
      2.95716      0.04978     12.43839        -0.003742     -0.001470      0.005019
      5.83420      0.04978     12.43839         0.003742     -0.001470      0.005019
      1.52169      2.53609     12.43839        -0.003144     -0.002505      0.005019
      7.26967      2.53609     12.43839         0.003144     -0.002505      0.005019
      2.96021      5.02768     12.43839         0.000598      0.003975      0.005019
      5.83115      5.02768     12.43839        -0.000598      0.003975      0.005019
      8.79137      5.07570     12.41166        -0.000000      0.000000     -0.000242
      4.39568      2.53785     12.21369        -0.000000      0.000000      0.043541
 -----------------------------------------------------------------------------------
    total drift:                               -0.017974     -0.008051      0.083355


--------------------------------------------------------------------------------------------------------



  FREE ENERGIE OF THE ION-ELECTRON SYSTEM (eV)
  ---------------------------------------------------
  free  energy   TOTEN  =       -95.99671118 eV

  energy  without entropy=      -95.99671118  energy(sigma->0) =      -95.99671118
 


--------------------------------------------------------------------------------------------------------


    POTLOK:  cpu time    0.0583: real time    0.0584


--------------------------------------------------------------------------------------------------------


 stress matrix after NEB project (eV)
     -8.97673     -0.00000     -0.00000
     -0.00000     -8.97673      0.00000
      0.00000      0.00000      0.66570
  FORCES: max atom, RMS     0.043541    0.011413
  FORCE total and by dimension    0.068481    0.043541
  Stress total and by dimension   12.712457    8.976731
     LOOP+:  cpu time  101.8999: real time  102.2190
 -----------------------------------------------------------------------------
|                                                                             |
|           W    W    AA    RRRRR   N    N  II  N    N   GGGG   !!!           |
|           W    W   A  A   R    R  NN   N  II  NN   N  G    G  !!!           |
|           W    W  A    A  R    R  N N  N  II  N N  N  G       !!!           |
|           W WW W  AAAAAA  RRRRR   N  N N  II  N  N N  G  GGG   !            |
|           WW  WW  A    A  R   R   N   NN  II  N   NN  G    G                |
|           W    W  A    A  R    R  N    N  II  N    N   GGGG   !!!           |
|                                                                             |
|     Tetrahedron method does not include variations of the Fermi             |
|     occupations, so forces and stress will be inaccurate. We suggest        |
|     using a different smearing scheme ISMEAR = 1 or 2 for metals in         |
|     relaxations.                                                            |
|                                                                             |
 -----------------------------------------------------------------------------

    4ORBIT:  cpu time    0.0000: real time    0.0000



 total charge

# of ion       s       p       d       tot
------------------------------------------
    1        0.415   0.204   9.177   9.796
    2        0.419   0.202   9.178   9.799
    3        0.419   0.202   9.178   9.799
    4        0.419   0.202   9.178   9.799
    5        0.413   0.204   9.178   9.796
    6        0.419   0.202   9.178   9.799
    7        0.419   0.202   9.178   9.799
    8        0.419   0.202   9.178   9.799
    9        0.417   0.203   9.178   9.797
   10        0.406   0.270   9.162   9.839
   11        0.408   0.268   9.168   9.844
   12        0.406   0.270   9.162   9.839
   13        0.408   0.268   9.168   9.844
   14        0.408   0.268   9.168   9.844
   15        0.404   0.268   9.167   9.839
   16        0.406   0.270   9.162   9.839
   17        0.404   0.268   9.167   9.839
   18        0.404   0.268   9.167   9.839
   19        0.402   0.267   9.167   9.835
   20        0.412   0.295   9.156   9.863
   21        0.412   0.295   9.156   9.863
   22        0.398   0.272   9.169   9.839
   23        0.412   0.295   9.156   9.863
   24        0.398   0.272   9.169   9.839
   25        0.402   0.267   9.167   9.835
   26        0.402   0.267   9.167   9.835
   27        0.398   0.272   9.169   9.839
   28        0.414   0.196   9.182   9.791
   29        0.414   0.214   9.170   9.798
   30        0.414   0.214   9.170   9.798
   31        0.414   0.214   9.170   9.798
   32        0.414   0.214   9.170   9.798
   33        0.414   0.214   9.170   9.798
   34        0.414   0.214   9.170   9.798
   35        0.406   0.198   9.183   9.787
   36        0.578   0.257   7.088   7.923
--------------------------------------------------
tot         14.935   8.675 328.041 351.652
 
 BZINTS: Fermi energy:    0.785031;  394.000000 electrons
         Band energy:-0.126159E+04;  BLOECHL correction:   -0.052777

 total amount of memory used by VASP MPI-rank0   122400. kBytes
=======================================================================

   base      :      30000. kBytes
   nonlr-proj:      15094. kBytes
   fftplans  :       4330. kBytes
   grid      :      17098. kBytes
   one-center:        559. kBytes
   wavefun   :      55319. kBytes
 
  
  
 General timing and accounting informations for this job:
 ========================================================
  
                  Total CPU time used (sec):      110.656
                            User time (sec):      107.462
                          System time (sec):        3.194
                         Elapsed time (sec):      111.412
  
                   Maximum memory used (kb):      381352.
                   Average memory used (kb):          N/A
  
                          Minor page faults:        75349
                          Major page faults:            0
                 Voluntary context switches:         5373
