PROCAR new format
# of k-points:   10         # of bands:  252         # of ions:   36

 k-point     1 :    0.00000000 0.00000000 0.00000000     weight = 0.01562500

band     1 # energy   -6.31430052 # occ.  2.00000000
 
ion      s      p      d    tot
    1  0.006  0.001  0.000  0.007
    2  0.006  0.001  0.000  0.007
    3  0.006  0.001  0.000  0.007
    4  0.006  0.001  0.000  0.007
    5  0.006  0.001  0.000  0.007
    6  0.006  0.001  0.000  0.007
    7  0.006  0.001  0.000  0.007
    8  0.006  0.001  0.000  0.007
    9  0.006  0.001  0.000  0.007
   10  0.023  0.000  0.000  0.024
   11  0.024  0.000  0.000  0.024
   12  0.023  0.000  0.000  0.024
   13  0.024  0.000  0.000  0.024
   14  0.024  0.000  0.000  0.024
   15  0.023  0.000  0.000  0.023
   16  0.023  0.000  0.000  0.024
   17  0.023  0.000  0.000  0.023
   18  0.023  0.000  0.000  0.023
   19  0.022  0.000  0.000  0.022
   20  0.024  0.000  0.000  0.025
   21  0.024  0.000  0.000  0.025
   22  0.023  0.000  0.000  0.023
   23  0.024  0.000  0.000  0.025
   24  0.023  0.000  0.000  0.023
   25  0.022  0.000  0.000  0.022
   26  0.022  0.000  0.000  0.022
   27  0.023  0.000  0.000  0.023
   28  0.005  0.001  0.000  0.006
   29  0.006  0.001  0.000  0.006
   30  0.006  0.001  0.000  0.006
   31  0.006  0.001  0.000  0.006
   32  0.006  0.001  0.000  0.006
   33  0.006  0.001  0.000  0.006
   34  0.006  0.001  0.000  0.006
   35  0.006  0.001  0.000  0.006
   36  0.013  0.001  0.000  0.014
tot    0.528  0.013  0.006  0.547
 
band     2 # energy   -5.44487588 # occ.  2.00000000
 
ion      s      p      d    tot
    1  0.009  0.000  0.001  0.010
    2  0.009  0.000  0.001  0.010
    3  0.009  0.000  0.001  0.010
    4  0.009  0.000  0.001  0.010
    5  0.009  0.000  0.000  0.010
    6  0.009  0.000  0.001  0.010
    7  0.009  0.000  0.001  0.010
    8  0.009  0.000  0.001  0.010
    9  0.009  0.000  0.001  0.010
   10  0.011  0.001  0.014  0.025
   11  0.011  0.001  0.013  0.025
   12  0.011  0.001  0.014  0.025
   13  0.011  0.001  0.013  0.025
   14  0.011  0.001  0.013  0.025
   15  0.012  0.001  0.013  0.026
   16  0.011  0.001  0.014  0.025
   17  0.012  0.001  0.013  0.026
   18  0.012  0.001  0.013  0.026
   19  0.010  0.001  0.013  0.024
   20  0.013  0.001  0.011  0.025
   21  0.013  0.001  0.010  0.025
   22  0.011  0.001  0.013  0.025
   23  0.013  0.001  0.010  0.025
   24  0.011  0.001  0.013  0.025
   25  0.010  0.001  0.013  0.024
   26  0.010  0.001  0.013  0.024
   27  0.011  0.001  0.013  0.025
   28  0.008  0.000  0.000  0.009
   29  0.009  0.000  0.001  0.010
   30  0.009  0.000  0.001  0.010
   31  0.009  0.000  0.001  0.010
   32  0.009  0.000  0.001  0.010
   33  0.009  0.000  0.001  0.010
   34  0.009  0.000  0.001  0.010
   35  0.008  0.000  0.000  0.008
   36  0.022  0.001  0.000  0.023
tot    0.373  0.027  0.239  0.639
 
band     3 # energy   -5.16868529 # occ.  2.00000000
 
ion      s      p      d    tot
    1  0.009  0.000  0.024  0.033
    2  0.011  0.000  0.019  0.030
    3  0.011  0.000  0.019  0.030
    4  0.011  0.000  0.019  0.030
    5  0.011  0.000  0.017  0.029
    6  0.011  0.000  0.019  0.030
    7  0.011  0.000  0.019  0.030
    8  0.011  0.000  0.019  0.030
    9  0.014  0.000  0.017  0.031
   10  0.001  0.000  0.022  0.023
   11  0.001  0.000  0.024  0.025
   12  0.001  0.000  0.022  0.023
   13  0.001  0.000  0.024  0.025
   14  0.001  0.000  0.024  0.025
   15  0.000  0.000  0.024  0.024
   16  0.001  0.000  0.022  0.023
   17  0.000  0.000  0.024  0.024
   18  0.000  0.000  0.024  0.024
   19  0.001  0.000  0.014  0.015
   20  0.000  0.000  0.021  0.021
   21  0.000  0.000  0.021  0.021
   22  0.001  0.000  0.014  0.015
   23  0.000  0.000  0.021  0.021
   24  0.001  0.000  0.014  0.015
   25  0.001  0.000  0.014  0.015
   26  0.001  0.000  0.014  0.015
   27  0.001  0.000  0.014  0.015
   28  0.003  0.000  0.011  0.014
   29  0.006  0.000  0.009  0.015
   30  0.006  0.000  0.009  0.015
   31  0.006  0.000  0.009  0.015
   32  0.006  0.000  0.009  0.015
   33  0.006  0.000  0.009  0.015
   34  0.006  0.000  0.009  0.015
   35  0.004  0.000  0.009  0.013
   36  0.020  0.000  0.003  0.023
tot    0.176  0.005  0.604  0.785
 
band     4 # energy   -5.04623360 # occ.  2.00000000
 
ion      s      p      d    tot
    1  0.015  0.001  0.000  0.016
    2  0.003  0.000  0.011  0.015
    3  0.003  0.000  0.011  0.014
    4  0.003  0.000  0.011  0.015
    5  0.003  0.000  0.015  0.018
    6  0.003  0.000  0.011  0.014
    7  0.003  0.000  0.011  0.014
    8  0.003  0.000  0.011  0.014
    9  0.000  0.001  0.014  0.015
   10  0.003  0.000  0.055  0.058
   11  0.000  0.001  0.029  0.029
   12  0.003  0.000  0.055  0.058
   13  0.000  0.001  0.029  0.029
   14  0.000  0.001  0.029  0.029
   15  0.014  0.001  0.004  0.019
   16  0.003  0.000  0.055  0.058
   17  0.014  0.001  0.004  0.019
   18  0.014  0.001  0.004  0.019
   19  0.002  0.000  0.027  0.030
   20  0.005  0.000  0.032  0.037
   21  0.005  0.000  0.032  0.037
   22  0.009  0.001  0.002  0.012
   23  0.005  0.000  0.032  0.037
   24  0.009  0.001  0.002  0.012
   25  0.002  0.000  0.027  0.030
   26  0.002  0.000  0.027  0.030
   27  0.009  0.001  0.002  0.012
   28  0.000  0.000  0.009  0.009
   29  0.001  0.000  0.010  0.011
   30  0.001  0.000  0.010  0.011
   31  0.001  0.000  0.010  0.011
   32  0.001  0.000  0.010  0.011
   33  0.001  0.000  0.010  0.011
   34  0.001  0.000  0.010  0.011
   35  0.000  0.000  0.002  0.003
   36  0.028  0.002  0.000  0.029
tot    0.170  0.016  0.609  0.795
 
band     5 # energy   -5.02067849 # occ.  2.00000000
 
ion      s      p      d    tot
    1  0.000  0.000  0.002  0.002
    2  0.000  0.000  0.003  0.003
    3  0.002  0.001  0.007  0.009
    4  0.000  0.000  0.003  0.003
    5  0.000  0.000  0.010  0.011
    6  0.001  0.001  0.004  0.006
    7  0.002  0.001  0.007  0.009
    8  0.001  0.001  0.004  0.006
    9  0.000  0.000  0.004  0.004
   10  0.003  0.000  0.021  0.024
   11  0.008  0.000  0.077  0.085
   12  0.001  0.001  0.058  0.060
   13  0.007  0.000  0.079  0.087
   14  0.030  0.001  0.007  0.038
   15  0.004  0.001  0.017  0.022
   16  0.001  0.001  0.057  0.058
   17  0.004  0.001  0.016  0.021
   18  0.015  0.000  0.040  0.055
   19  0.000  0.000  0.028  0.029
   20  0.010  0.000  0.027  0.038
   21  0.002  0.001  0.018  0.021
   22  0.004  0.001  0.037  0.042
   23  0.003  0.001  0.018  0.022
   24  0.019  0.001  0.008  0.027
   25  0.002  0.000  0.014  0.016
   26  0.000  0.000  0.028  0.029
   27  0.005  0.001  0.036  0.042
   28  0.000  0.000  0.001  0.001
   29  0.001  0.000  0.003  0.005
   30  0.000  0.000  0.002  0.002
   31  0.001  0.000  0.003  0.005
   32  0.001  0.000  0.002  0.003
   33  0.000  0.000  0.002  0.002
   34  0.001  0.000  0.002  0.003
   35  0.000  0.000  0.008  0.008
   36  0.000  0.000  0.002  0.002
tot    0.128  0.017  0.656  0.802
 
band     6 # energy   -5.02067089 # occ.  2.00000000
 
ion      s      p      d    tot
    1  0.000  0.000  0.002  0.002
    2  0.002  0.001  0.006  0.009
    3  0.000  0.000  0.003  0.003
    4  0.002  0.001  0.006  0.009
    5  0.000  0.000  0.010  0.011
    6  0.001  0.000  0.005  0.006
    7  0.000  0.000  0.003  0.003
    8  0.001  0.000  0.005  0.006
    9  0.000  0.000  0.003  0.004
   10  0.000  0.001  0.071  0.071
   11  0.023  0.001  0.032  0.055
   12  0.002  0.000  0.032  0.035
   13  0.023  0.001  0.029  0.053
   14  0.000  0.000  0.102  0.102
   15  0.011  0.001  0.031  0.043
   16  0.002  0.000  0.034  0.036
   17  0.011  0.001  0.032  0.044
   18  0.000  0.002  0.009  0.011
   19  0.001  0.000  0.019  0.021
   20  0.000  0.001  0.015  0.017
   21  0.008  0.001  0.024  0.032
   22  0.014  0.001  0.017  0.032
   23  0.007  0.001  0.024  0.032
   24  0.000  0.000  0.046  0.047
   25  0.000  0.000  0.033  0.033
   26  0.001  0.000  0.018  0.020
   27  0.014  0.001  0.018  0.033
   28  0.000  0.000  0.001  0.001
   29  0.000  0.000  0.002  0.002
   30  0.001  0.000  0.003  0.005
   31  0.000  0.000  0.002  0.002
   32  0.001  0.000  0.003  0.004
   33  0.001  0.000  0.003  0.005
   34  0.001  0.000  0.003  0.004
   35  0.000  0.000  0.008  0.008
   36  0.000  0.000  0.002  0.002
tot    0.128  0.017  0.656  0.802
 
band     7 # energy   -5.01653976 # occ.  2.00000000
 
ion      s      p      d    tot
    1  0.002  0.001  0.001  0.003
    2  0.000  0.000  0.005  0.006
    3  0.000  0.000  0.005  0.006
    4  0.000  0.000  0.005  0.006
    5  0.005  0.001  0.007  0.013
    6  0.000  0.000  0.006  0.006
    7  0.000  0.000  0.005  0.006
    8  0.000  0.000  0.006  0.006
    9  0.001  0.000  0.004  0.005
   10  0.010  0.001  0.002  0.013
   11  0.013  0.000  0.053  0.067
   12  0.010  0.001  0.002  0.013
   13  0.013  0.000  0.053  0.067
   14  0.014  0.000  0.053  0.067
   15  0.000  0.000  0.061  0.062
   16  0.010  0.001  0.002  0.013
   17  0.000  0.000  0.061  0.062
   18  0.000  0.000  0.060  0.061
   19  0.009  0.001  0.021  0.031
   20  0.004  0.001  0.014  0.018
   21  0.004  0.001  0.014  0.019
   22  0.001  0.000  0.046  0.047
   23  0.004  0.001  0.014  0.019
   24  0.002  0.000  0.046  0.047
   25  0.009  0.001  0.021  0.031
   26  0.009  0.001  0.021  0.031
   27  0.001  0.000  0.046  0.047
   28  0.003  0.001  0.003  0.007
   29  0.000  0.000  0.003  0.003
   30  0.000  0.000  0.003  0.003
   31  0.000  0.000  0.003  0.003
   32  0.000  0.000  0.003  0.003
   33  0.000  0.000  0.003  0.003
   34  0.000  0.000  0.003  0.003
   35  0.003  0.001  0.005  0.008
   36  0.000  0.000  0.000  0.000
tot    0.127  0.016  0.660  0.803
 
band     8 # energy   -5.01027717 # occ.  2.00000000
 
ion      s      p      d    tot
    1  0.000  0.000  0.008  0.008
    2  0.001  0.001  0.007  0.009
    3  0.000  0.000  0.003  0.004
    4  0.001  0.001  0.007  0.009
    5  0.000  0.000  0.000  0.000
    6  0.000  0.000  0.005  0.005
    7  0.000  0.000  0.003  0.004
    8  0.000  0.000  0.005  0.005
    9  0.000  0.000  0.008  0.008
   10  0.027  0.000  0.030  0.057
   11  0.000  0.001  0.033  0.034
   12  0.007  0.001  0.037  0.045
   13  0.000  0.001  0.033  0.034
   14  0.001  0.000  0.039  0.040
   15  0.004  0.000  0.098  0.102
   16  0.006  0.001  0.037  0.045
   17  0.005  0.000  0.094  0.099
   18  0.018  0.001  0.005  0.024
   19  0.003  0.001  0.021  0.024
   20  0.010  0.001  0.008  0.019
   21  0.003  0.000  0.028  0.031
   22  0.000  0.001  0.029  0.030
   23  0.002  0.000  0.029  0.032
   24  0.000  0.000  0.026  0.026
   25  0.012  0.001  0.019  0.032
   26  0.003  0.001  0.021  0.025
   27  0.000  0.001  0.029  0.030
   28  0.000  0.000  0.006  0.006
   29  0.000  0.000  0.002  0.002
   30  0.001  0.000  0.003  0.003
   31  0.000  0.000  0.002  0.002
   32  0.001  0.000  0.002  0.003
   33  0.001  0.000  0.003  0.003
   34  0.001  0.000  0.002  0.003
   35  0.000  0.000  0.002  0.002
   36  0.000  0.000  0.001  0.001
tot    0.110  0.015  0.685  0.810
 
band     9 # energy   -5.01025798 # occ.  2.00000000
 
ion      s      p      d    tot
    1  0.000  0.000  0.008  0.008
    2  0.000  0.000  0.003  0.003
    3  0.001  0.000  0.007  0.008
    4  0.000  0.000  0.003  0.003
    5  0.000  0.000  0.000  0.000
    6  0.001  0.001  0.005  0.007
    7  0.001  0.000  0.007  0.008
    8  0.001  0.001  0.005  0.007
    9  0.000  0.000  0.008  0.008
   10  0.000  0.001  0.039  0.041
   11  0.001  0.000  0.037  0.038
   12  0.020  0.001  0.032  0.053
   13  0.001  0.001  0.037  0.038
   14  0.000  0.001  0.031  0.032
   15  0.014  0.000  0.033  0.048
   16  0.021  0.001  0.032  0.054
   17  0.013  0.000  0.038  0.052
   18  0.000  0.000  0.126  0.126
   19  0.009  0.001  0.020  0.030
   20  0.000  0.000  0.036  0.036
   21  0.007  0.001  0.016  0.023
   22  0.000  0.000  0.027  0.028
   23  0.008  0.001  0.015  0.023
   24  0.000  0.001  0.030  0.031
   25  0.000  0.001  0.021  0.022
   26  0.009  0.001  0.020  0.029
   27  0.000  0.000  0.027  0.028
   28  0.000  0.000  0.006  0.006
   29  0.001  0.000  0.002  0.003
   30  0.000  0.000  0.002  0.002
   31  0.001  0.000  0.002  0.003
   32  0.000  0.000  0.002  0.003
   33  0.000  0.000  0.002  0.002
   34  0.000  0.000  0.002  0.003
   35  0.000  0.000  0.002  0.002
   36  0.000  0.000  0.001  0.001
tot    0.110  0.015  0.685  0.810
 
band    10 # energy   -4.99400918 # occ.  2.00000000
 
ion      s      p      d    tot
    1  0.003  0.000  0.012  0.015
    2  0.001  0.000  0.008  0.010
    3  0.001  0.000  0.008  0.010
    4  0.001  0.000  0.008  0.010
    5  0.001  0.000  0.006  0.007
    6  0.001  0.000  0.008  0.010
    7  0.001  0.000  0.008  0.010
    8  0.001  0.000  0.008  0.010
    9  0.001  0.000  0.001  0.001
   10  0.001  0.000  0.045  0.046
   11  0.005  0.000  0.014  0.019
   12  0.001  0.000  0.045  0.046
   13  0.005  0.000  0.014  0.019
   14  0.005  0.000  0.014  0.019
   15  0.003  0.000  0.046  0.049
   16  0.001  0.000  0.045  0.046
   17  0.003  0.000  0.046  0.049
   18  0.003  0.000  0.046  0.049
   19  0.006  0.000  0.029  0.036
   20  0.000  0.001  0.013  0.014
   21  0.000  0.001  0.013  0.014
   22  0.001  0.000  0.052  0.052
   23  0.000  0.001  0.013  0.014
   24  0.001  0.000  0.051  0.052
   25  0.006  0.000  0.029  0.036
   26  0.006  0.000  0.029  0.036
   27  0.001  0.000  0.052  0.052
   28  0.001  0.000  0.015  0.017
   29  0.002  0.000  0.009  0.011
   30  0.002  0.000  0.009  0.011
   31  0.002  0.000  0.009  0.011
   32  0.002  0.000  0.009  0.011
   33  0.002  0.000  0.009  0.011
   34  0.002  0.000  0.009  0.011
   35  0.001  0.000  0.000  0.001
   36  0.008  0.000  0.002  0.011
tot    0.082  0.010  0.735  0.826
 
band    11 # energy   -4.97778344 # occ.  2.00000000
 
ion      s      p      d    tot
    1  0.001  0.000  0.016  0.017
    2  0.001  0.000  0.012  0.013
    3  0.001  0.000  0.012  0.013
    4  0.001  0.000  0.012  0.013
    5  0.000  0.000  0.000  0.001
    6  0.001  0.000  0.012  0.013
    7  0.001  0.000  0.012  0.013
    8  0.001  0.000  0.012  0.013
    9  0.009  0.000  0.004  0.013
   10  0.003  0.000  0.030  0.033
   11  0.001  0.000  0.038  0.039
   12  0.003  0.000  0.030  0.033
   13  0.001  0.000  0.038  0.039
   14  0.001  0.000  0.038  0.039
   15  0.001  0.000  0.010  0.011
   16  0.003  0.000  0.030  0.033
   17  0.001  0.000  0.010  0.011
   18  0.001  0.000  0.011  0.011
   19  0.001  0.000  0.006  0.008
   20  0.001  0.000  0.041  0.042
   21  0.001  0.000  0.041  0.042
   22  0.005  0.000  0.054  0.059
   23  0.001  0.000  0.041  0.042
   24  0.005  0.000  0.054  0.059
   25  0.001  0.000  0.006  0.008
   26  0.001  0.000  0.006  0.008
   27  0.005  0.000  0.054  0.059
   28  0.012  0.000  0.004  0.016
   29  0.004  0.000  0.012  0.015
   30  0.004  0.000  0.012  0.015
   31  0.004  0.000  0.012  0.015
   32  0.004  0.000  0.012  0.015
   33  0.004  0.000  0.012  0.015
   34  0.004  0.000  0.012  0.015
   35  0.001  0.001  0.033  0.034
   36  0.001  0.000  0.000  0.001
tot    0.086  0.007  0.735  0.828
 
band    12 # energy   -4.96767360 # occ.  2.00000000
 
ion      s      p      d    tot
    1  0.000  0.000  0.007  0.007
    2  0.004  0.000  0.007  0.011
    3  0.000  0.000  0.010  0.010
    4  0.004  0.000  0.007  0.011
    5  0.000  0.000  0.009  0.010
    6  0.002  0.000  0.007  0.010
    7  0.000  0.000  0.010  0.010
    8  0.002  0.000  0.007  0.010
    9  0.000  0.000  0.022  0.022
   10  0.005  0.000  0.021  0.026
   11  0.001  0.000  0.038  0.039
   12  0.001  0.000  0.028  0.029
   13  0.001  0.000  0.037  0.039
   14  0.005  0.000  0.011  0.016
   15  0.000  0.000  0.029  0.029
   16  0.001  0.000  0.028  0.029
   17  0.000  0.000  0.030  0.030
   18  0.000  0.000  0.038  0.039
   19  0.003  0.000  0.073  0.075
   20  0.000  0.000  0.042  0.042
   21  0.000  0.000  0.019  0.020
   22  0.004  0.000  0.055  0.059
   23  0.000  0.000  0.019  0.019
   24  0.015  0.000  0.023  0.038
   25  0.011  0.000  0.006  0.017
   26  0.003  0.000  0.071  0.074
   27  0.003  0.000  0.056  0.059
   28  0.000  0.000  0.006  0.006
   29  0.000  0.000  0.007  0.007
   30  0.002  0.000  0.002  0.005
   31  0.000  0.000  0.007  0.007
   32  0.001  0.001  0.007  0.009
   33  0.002  0.000  0.002  0.005
   34  0.001  0.001  0.007  0.009
   35  0.000  0.000  0.010  0.010
   36  0.000  0.000  0.002  0.002
tot    0.071  0.008  0.758  0.837
 
band    13 # energy   -4.96763873 # occ.  2.00000000
 
ion      s      p      d    tot
    1  0.000  0.000  0.007  0.007
    2  0.000  0.000  0.009  0.010
    3  0.004  0.001  0.006  0.010
    4  0.000  0.000  0.009  0.010
    5  0.000  0.000  0.009  0.009
    6  0.002  0.000  0.008  0.011
    7  0.004  0.001  0.006  0.010
    8  0.002  0.000  0.008  0.011
    9  0.000  0.000  0.022  0.022
   10  0.000  0.000  0.030  0.030
   11  0.004  0.000  0.019  0.023
   12  0.003  0.000  0.024  0.027
   13  0.004  0.000  0.020  0.024
   14  0.000  0.000  0.046  0.046
   15  0.000  0.000  0.036  0.036
   16  0.003  0.000  0.023  0.027
   17  0.000  0.000  0.035  0.036
   18  0.000  0.000  0.027  0.027
   19  0.009  0.000  0.027  0.035
   20  0.000  0.000  0.011  0.012
   21  0.000  0.000  0.034  0.034
   22  0.011  0.000  0.034  0.045
   23  0.000  0.000  0.035  0.035
   24  0.000  0.000  0.065  0.066
   25  0.000  0.000  0.094  0.094
   26  0.008  0.000  0.029  0.037
   27  0.011  0.000  0.033  0.045
   28  0.000  0.000  0.006  0.006
   29  0.002  0.001  0.004  0.007
   30  0.000  0.000  0.009  0.009
   31  0.002  0.001  0.004  0.007
   32  0.001  0.000  0.004  0.005
   33  0.000  0.000  0.009  0.009
   34  0.001  0.000  0.004  0.005
   35  0.000  0.000  0.010  0.010
   36  0.000  0.000  0.002  0.002
tot    0.071  0.008  0.758  0.837
 
band    14 # energy   -4.96310267 # occ.  2.00000000
 
ion      s      p      d    tot
    1  0.000  0.000  0.020  0.021
    2  0.003  0.000  0.008  0.011
    3  0.000  0.000  0.009  0.010
    4  0.003  0.000  0.008  0.011
    5  0.000  0.000  0.015  0.015
    6  0.002  0.000  0.007  0.008
    7  0.000  0.000  0.009  0.010
    8  0.002  0.000  0.007  0.008
    9  0.000  0.000  0.002  0.002
   10  0.000  0.000  0.056  0.056
   11  0.000  0.000  0.037  0.037
   12  0.001  0.000  0.030  0.031
   13  0.000  0.000  0.036  0.037
   14  0.000  0.000  0.017  0.017
   15  0.002  0.000  0.018  0.020
   16  0.001  0.000  0.029  0.031
   17  0.002  0.000  0.018  0.020
   18  0.000  0.000  0.031  0.031
   19  0.006  0.000  0.038  0.044
   20  0.000  0.000  0.107  0.107
   21  0.011  0.000  0.031  0.042
   22  0.001  0.000  0.032  0.032
   23  0.011  0.000  0.030  0.041
   24  0.000  0.000  0.039  0.040
   25  0.000  0.000  0.027  0.028
   26  0.006  0.000  0.038  0.044
   27  0.001  0.000  0.031  0.032
   28  0.000  0.000  0.010  0.010
   29  0.000  0.000  0.007  0.007
   30  0.002  0.000  0.003  0.005
   31  0.000  0.000  0.007  0.007
   32  0.001  0.001  0.006  0.008
   33  0.002  0.000  0.003  0.006
   34  0.001  0.001  0.006  0.008
   35  0.000  0.000  0.003  0.003
   36  0.000  0.001  0.003  0.004
tot    0.058  0.008  0.777  0.843
 
band    15 # energy   -4.96305314 # occ.  2.00000000
 
ion      s      p      d    tot
    1  0.000  0.000  0.020  0.021
    2  0.000  0.000  0.008  0.008
    3  0.003  0.000  0.006  0.010
    4  0.000  0.000  0.008  0.008
    5  0.000  0.000  0.015  0.015
    6  0.002  0.000  0.009  0.011
    7  0.003  0.000  0.006  0.010
    8  0.002  0.000  0.009  0.011
    9  0.000  0.000  0.002  0.002
   10  0.002  0.000  0.021  0.023
   11  0.000  0.000  0.023  0.023
   12  0.000  0.000  0.047  0.047
   13  0.000  0.000  0.023  0.023
   14  0.000  0.000  0.043  0.043
   15  0.001  0.000  0.027  0.028
   16  0.000  0.000  0.047  0.048
   17  0.001  0.000  0.027  0.028
   18  0.002  0.000  0.013  0.016
   19  0.002  0.000  0.031  0.034
   20  0.014  0.000  0.005  0.020
   21  0.004  0.000  0.081  0.085
   22  0.000  0.000  0.036  0.037
   23  0.004  0.000  0.082  0.086
   24  0.001  0.000  0.029  0.030
   25  0.009  0.000  0.041  0.050
   26  0.002  0.000  0.031  0.034
   27  0.000  0.000  0.036  0.037
   28  0.000  0.000  0.010  0.010
   29  0.002  0.001  0.004  0.007
   30  0.000  0.000  0.007  0.008
   31  0.002  0.001  0.004  0.007
   32  0.001  0.000  0.005  0.006
   33  0.000  0.000  0.007  0.008
   34  0.001  0.000  0.005  0.006
   35  0.000  0.000  0.003  0.003
   36  0.000  0.001  0.003  0.004
tot    0.058  0.008  0.777  0.843
 
band    16 # energy   -4.94762832 # occ.  2.00000000
 
ion      s      p      d    tot
    1  0.001  0.000  0.000  0.001
    2  0.001  0.000  0.013  0.014
    3  0.001  0.000  0.013  0.014
    4  0.001  0.000  0.013  0.014
    5  0.008  0.000  0.002  0.010
    6  0.001  0.000  0.013  0.014
    7  0.001  0.000  0.013  0.014
    8  0.001  0.000  0.013  0.014
    9  0.002  0.000  0.016  0.018
   10  0.002  0.000  0.018  0.020
   11  0.000  0.000  0.016  0.017
   12  0.002  0.000  0.018  0.020
   13  0.000  0.000  0.016  0.017
   14  0.000  0.000  0.017  0.017
   15  0.000  0.000  0.028  0.028
   16  0.002  0.000  0.018  0.020
   17  0.000  0.000  0.028  0.028
   18  0.000  0.000  0.028  0.028
   19  0.001  0.000  0.047  0.048
   20  0.008  0.000  0.047  0.056
   21  0.008  0.000  0.047  0.056
   22  0.003  0.001  0.009  0.013
   23  0.008  0.000  0.047  0.056
   24  0.003  0.001  0.009  0.013
   25  0.001  0.000  0.047  0.048
   26  0.001  0.000  0.047  0.048
   27  0.003  0.001  0.009  0.013
   28  0.002  0.000  0.001  0.003
   29  0.004  0.000  0.015  0.020
   30  0.004  0.000  0.015  0.020
   31  0.004  0.000  0.015  0.020
   32  0.004  0.000  0.015  0.020
   33  0.004  0.000  0.015  0.020
   34  0.004  0.000  0.015  0.020
   35  0.016  0.001  0.008  0.025
   36  0.002  0.001  0.010  0.013
tot    0.108  0.009  0.699  0.816
 
band    17 # energy   -4.81136041 # occ.  2.00000000
 
ion      s      p      d    tot
    1  0.001  0.001  0.008  0.009
    2  0.000  0.000  0.011  0.012
    3  0.000  0.000  0.011  0.012
    4  0.000  0.000  0.011  0.012
    5  0.004  0.001  0.000  0.004
    6  0.000  0.000  0.011  0.012
    7  0.000  0.000  0.011  0.012
    8  0.000  0.000  0.011  0.012
    9  0.000  0.000  0.007  0.007
   10  0.001  0.001  0.048  0.050
   11  0.000  0.000  0.020  0.020
   12  0.001  0.001  0.048  0.049
   13  0.000  0.000  0.020  0.020
   14  0.000  0.000  0.020  0.020
   15  0.003  0.000  0.042  0.045
   16  0.001  0.001  0.048  0.049
   17  0.003  0.000  0.042  0.045
   18  0.003  0.000  0.042  0.045
   19  0.002  0.000  0.040  0.042
   20  0.000  0.000  0.011  0.011
   21  0.000  0.000  0.011  0.011
   22  0.001  0.001  0.053  0.055
   23  0.000  0.000  0.011  0.011
   24  0.001  0.001  0.053  0.055
   25  0.002  0.000  0.040  0.042
   26  0.002  0.000  0.040  0.042
   27  0.001  0.001  0.053  0.055
   28  0.002  0.000  0.012  0.015
   29  0.000  0.000  0.010  0.011
   30  0.000  0.000  0.010  0.011
   31  0.000  0.000  0.010  0.011
   32  0.000  0.000  0.010  0.011
   33  0.000  0.000  0.010  0.011
   34  0.000  0.000  0.010  0.011
   35  0.005  0.001  0.002  0.007
   36  0.004  0.001  0.000  0.004
tot    0.038  0.017  0.799  0.854
 
band    18 # energy   -4.80242720 # occ.  2.00000000
 
ion      s      p      d    tot
    1  0.000  0.000  0.007  0.007
    2  0.000  0.001  0.011  0.012
    3  0.001  0.000  0.008  0.009
    4  0.000  0.001  0.011  0.012
    5  0.000  0.000  0.005  0.005
    6  0.002  0.001  0.006  0.009
    7  0.001  0.000  0.008  0.009
    8  0.002  0.001  0.006  0.009
    9  0.000  0.001  0.021  0.022
   10  0.001  0.001  0.039  0.041
   11  0.000  0.000  0.053  0.053
   12  0.000  0.000  0.010  0.011
   13  0.000  0.000  0.053  0.053
   14  0.000  0.001  0.022  0.023
   15  0.001  0.000  0.070  0.070
   16  0.000  0.000  0.010  0.010
   17  0.001  0.000  0.069  0.070
   18  0.003  0.000  0.051  0.054
   19  0.000  0.000  0.015  0.015
   20  0.003  0.001  0.038  0.041
   21  0.001  0.000  0.028  0.029
   22  0.000  0.000  0.070  0.071
   23  0.001  0.000  0.028  0.029
   24  0.001  0.000  0.030  0.032
   25  0.000  0.001  0.025  0.026
   26  0.000  0.000  0.015  0.015
   27  0.000  0.000  0.071  0.071
   28  0.000  0.000  0.001  0.001
   29  0.000  0.000  0.006  0.006
   30  0.001  0.001  0.006  0.008
   31  0.000  0.000  0.006  0.006
   32  0.001  0.000  0.003  0.005
   33  0.001  0.001  0.006  0.008
   34  0.001  0.000  0.003  0.005
   35  0.000  0.001  0.011  0.012
   36  0.000  0.001  0.004  0.005
tot    0.024  0.016  0.825  0.865
 
band    19 # energy   -4.80236012 # occ.  2.00000000
 
ion      s      p      d    tot
    1  0.000  0.000  0.007  0.007
    2  0.002  0.001  0.006  0.008
    3  0.001  0.001  0.009  0.011
    4  0.002  0.001  0.006  0.008
    5  0.000  0.000  0.005  0.005
    6  0.000  0.000  0.010  0.011
    7  0.001  0.001  0.009  0.011
    8  0.000  0.000  0.011  0.011
    9  0.000  0.001  0.021  0.022
   10  0.000  0.000  0.000  0.001
   11  0.000  0.001  0.032  0.033
   12  0.001  0.001  0.029  0.031
   13  0.000  0.001  0.033  0.034
   14  0.000  0.000  0.062  0.062
   15  0.002  0.000  0.057  0.059
   16  0.001  0.001  0.029  0.031
   17  0.002  0.000  0.057  0.059
   18  0.000  0.000  0.077  0.077
   19  0.000  0.001  0.021  0.022
   20  0.000  0.000  0.024  0.024
   21  0.002  0.001  0.034  0.037
   22  0.001  0.000  0.044  0.045
   23  0.002  0.001  0.034  0.037
   24  0.000  0.000  0.083  0.084
   25  0.000  0.000  0.013  0.013
   26  0.000  0.001  0.021  0.022
   27  0.001  0.000  0.044  0.045
   28  0.000  0.000  0.001  0.001
   29  0.001  0.001  0.004  0.006
   30  0.000  0.000  0.004  0.005
   31  0.001  0.001  0.004  0.006
   32  0.000  0.000  0.007  0.008
   33  0.000  0.000  0.004  0.005
   34  0.000  0.000  0.007  0.008
   35  0.000  0.001  0.011  0.012
   36  0.000  0.001  0.004  0.005
tot    0.024  0.016  0.825  0.865
 
band    20 # energy   -4.79892468 # occ.  2.00000000
 
ion      s      p      d    tot
    1  0.002  0.000  0.001  0.004
    2  0.000  0.000  0.012  0.012
    3  0.000  0.000  0.011  0.012
    4  0.000  0.000  0.012  0.012
    5  0.000  0.000  0.015  0.015
    6  0.000  0.000  0.012  0.012
    7  0.000  0.000  0.011  0.012
    8  0.000  0.000  0.012  0.012
    9  0.004  0.001  0.003  0.008
   10  0.002  0.000  0.024  0.026
   11  0.001  0.000  0.061  0.062
   12  0.002  0.000  0.022  0.024
   13  0.001  0.000  0.061  0.062
   14  0.001  0.000  0.061  0.062
   15  0.000  0.000  0.035  0.036
   16  0.002  0.000  0.022  0.024
   17  0.000  0.000  0.035  0.036
   18  0.000  0.001  0.032  0.033
   19  0.000  0.001  0.040  0.040
   20  0.001  0.000  0.058  0.060
   21  0.001  0.000  0.056  0.057
   22  0.001  0.000  0.013  0.014
   23  0.001  0.000  0.056  0.057
   24  0.001  0.000  0.014  0.015
   25  0.000  0.001  0.036  0.037
   26  0.000  0.001  0.040  0.040
   27  0.001  0.000  0.014  0.014
   28  0.005  0.001  0.001  0.007
   29  0.000  0.000  0.008  0.009
   30  0.000  0.000  0.008  0.008
   31  0.000  0.000  0.008  0.009
   32  0.000  0.000  0.008  0.008
   33  0.000  0.000  0.008  0.008
   34  0.000  0.000  0.008  0.008
   35  0.000  0.000  0.000  0.001
   36  0.000  0.000  0.005  0.005
tot    0.027  0.015  0.822  0.864
 
band    21 # energy   -4.79773056 # occ.  2.00000000
 
ion      s      p      d    tot
    1  0.000  0.001  0.014  0.015
    2  0.000  0.000  0.012  0.013
    3  0.001  0.000  0.008  0.009
    4  0.000  0.000  0.012  0.013
    5  0.000  0.001  0.017  0.017
    6  0.002  0.001  0.006  0.009
    7  0.001  0.000  0.008  0.009
    8  0.002  0.001  0.006  0.009
    9  0.000  0.000  0.001  0.001
   10  0.000  0.000  0.088  0.088
   11  0.002  0.000  0.049  0.051
   12  0.001  0.000  0.048  0.049
   13  0.002  0.000  0.049  0.051
   14  0.000  0.000  0.034  0.034
   15  0.000  0.001  0.022  0.023
   16  0.001  0.000  0.048  0.050
   17  0.000  0.001  0.023  0.024
   18  0.000  0.000  0.018  0.018
   19  0.002  0.000  0.044  0.046
   20  0.000  0.000  0.051  0.052
   21  0.000  0.000  0.029  0.030
   22  0.001  0.001  0.026  0.029
   23  0.000  0.000  0.029  0.030
   24  0.000  0.000  0.001  0.001
   25  0.000  0.000  0.063  0.063
   26  0.002  0.000  0.044  0.046
   27  0.001  0.001  0.027  0.029
   28  0.000  0.001  0.015  0.015
   29  0.000  0.000  0.006  0.006
   30  0.001  0.001  0.006  0.008
   31  0.000  0.000  0.006  0.006
   32  0.001  0.000  0.003  0.004
   33  0.001  0.001  0.007  0.008
   34  0.001  0.000  0.003  0.004
   35  0.000  0.000  0.007  0.007
   36  0.000  0.000  0.001  0.001
tot    0.022  0.014  0.830  0.866
 
band    22 # energy   -4.79765989 # occ.  2.00000000
 
ion      s      p      d    tot
    1  0.000  0.001  0.014  0.015
    2  0.002  0.001  0.005  0.007
    3  0.001  0.001  0.010  0.012
    4  0.002  0.001  0.005  0.007
    5  0.000  0.001  0.017  0.017
    6  0.000  0.000  0.011  0.011
    7  0.001  0.001  0.010  0.012
    8  0.000  0.000  0.011  0.011
    9  0.000  0.000  0.001  0.001
   10  0.001  0.000  0.034  0.035
   11  0.001  0.000  0.038  0.039
   12  0.000  0.000  0.075  0.076
   13  0.001  0.000  0.038  0.039
   14  0.002  0.001  0.054  0.057
   15  0.000  0.000  0.019  0.020
   16  0.000  0.000  0.075  0.076