PROCAR new format
# of k-points:   10         # of bands:  252         # of ions:   37

 k-point     1 :    0.00000000 0.00000000 0.00000000     weight = 0.01562500

band     1 # energy  -10.88366844 # occ.  2.00000000
 
ion      s      p      d    tot
    1  0.000  0.000  0.000  0.000
    2  0.000  0.000  0.000  0.000
    3  0.000  0.000  0.000  0.000
    4  0.000  0.000  0.000  0.000
    5  0.000  0.000  0.000  0.000
    6  0.000  0.000  0.000  0.000
    7  0.000  0.000  0.000  0.000
    8  0.000  0.000  0.000  0.000
    9  0.000  0.000  0.000  0.000
   10  0.000  0.000  0.000  0.000
   11  0.000  0.000  0.000  0.000
   12  0.000  0.000  0.000  0.000
   13  0.000  0.000  0.000  0.000
   14  0.000  0.000  0.000  0.000
   15  0.000  0.000  0.000  0.000
   16  0.000  0.000  0.000  0.000
   17  0.000  0.000  0.000  0.000
   18  0.000  0.000  0.000  0.000
   19  0.000  0.000  0.000  0.000
   20  0.001  0.000  0.001  0.002
   21  0.001  0.000  0.001  0.002
   22  0.000  0.000  0.000  0.000
   23  0.001  0.000  0.001  0.002
   24  0.000  0.000  0.000  0.000
   25  0.000  0.000  0.000  0.000
   26  0.000  0.000  0.000  0.000
   27  0.000  0.000  0.000  0.000
   28  0.000  0.000  0.000  0.000
   29  0.000  0.000  0.000  0.001
   30  0.000  0.000  0.000  0.001
   31  0.000  0.000  0.000  0.001
   32  0.000  0.000  0.000  0.001
   33  0.000  0.000  0.000  0.001
   34  0.000  0.000  0.000  0.001
   35  0.000  0.000  0.000  0.000
   36  0.065  0.052  0.111  0.228
   37  0.627  0.009  0.000  0.636
tot    0.697  0.062  0.114  0.873
 
band     2 # energy   -8.26949313 # occ.  2.00000000
 
ion      s      p      d    tot
    1  0.007  0.001  0.000  0.007
    2  0.007  0.001  0.000  0.007
    3  0.007  0.001  0.000  0.007
    4  0.007  0.001  0.000  0.007
    5  0.007  0.001  0.000  0.007
    6  0.007  0.001  0.000  0.007
    7  0.007  0.001  0.000  0.007
    8  0.007  0.001  0.000  0.007
    9  0.007  0.001  0.000  0.007
   10  0.027  0.000  0.000  0.027
   11  0.028  0.000  0.000  0.028
   12  0.027  0.000  0.000  0.027
   13  0.028  0.000  0.000  0.028
   14  0.028  0.000  0.000  0.028
   15  0.026  0.000  0.000  0.027
   16  0.027  0.000  0.000  0.027
   17  0.026  0.000  0.000  0.027
   18  0.026  0.000  0.000  0.027
   19  0.023  0.000  0.000  0.023
   20  0.026  0.000  0.000  0.027
   21  0.026  0.000  0.000  0.027
   22  0.024  0.000  0.000  0.024
   23  0.026  0.000  0.000  0.027
   24  0.024  0.000  0.000  0.024
   25  0.023  0.000  0.000  0.023
   26  0.023  0.000  0.000  0.023
   27  0.024  0.000  0.000  0.024
   28  0.004  0.000  0.000  0.005
   29  0.004  0.000  0.000  0.005
   30  0.004  0.000  0.000  0.005
   31  0.004  0.000  0.000  0.005
   32  0.004  0.000  0.000  0.005
   33  0.004  0.000  0.000  0.005
   34  0.004  0.000  0.000  0.005
   35  0.005  0.000  0.000  0.005
   36  0.004  0.003  0.000  0.007
   37  0.003  0.000  0.000  0.003
tot    0.564  0.014  0.004  0.582
 
band     3 # energy   -7.09383919 # occ.  2.00000000
 
ion      s      p      d    tot
    1  0.017  0.000  0.001  0.018
    2  0.016  0.000  0.001  0.018
    3  0.016  0.000  0.001  0.018
    4  0.016  0.000  0.001  0.018
    5  0.016  0.000  0.001  0.018
    6  0.016  0.000  0.001  0.018
    7  0.016  0.000  0.001  0.018
    8  0.016  0.000  0.001  0.018
    9  0.016  0.000  0.001  0.018
   10  0.010  0.001  0.002  0.014
   11  0.009  0.002  0.003  0.014
   12  0.010  0.001  0.002  0.014
   13  0.009  0.002  0.003  0.014
   14  0.009  0.002  0.003  0.014
   15  0.010  0.001  0.002  0.014
   16  0.010  0.001  0.002  0.014
   17  0.010  0.001  0.002  0.014
   18  0.010  0.001  0.002  0.014
   19  0.013  0.001  0.004  0.018
   20  0.016  0.001  0.004  0.021
   21  0.016  0.001  0.004  0.021
   22  0.015  0.001  0.003  0.019
   23  0.016  0.001  0.004  0.021
   24  0.015  0.001  0.003  0.019
   25  0.013  0.001  0.004  0.018
   26  0.013  0.001  0.004  0.018
   27  0.015  0.001  0.003  0.019
   28  0.014  0.000  0.001  0.015
   29  0.014  0.001  0.001  0.015
   30  0.014  0.001  0.001  0.015
   31  0.014  0.001  0.001  0.015
   32  0.014  0.001  0.001  0.015
   33  0.014  0.001  0.001  0.015
   34  0.014  0.001  0.001  0.015
   35  0.014  0.000  0.001  0.015
   36  0.012  0.003  0.002  0.016
   37  0.003  0.000  0.000  0.003
tot    0.496  0.033  0.074  0.603
 
band     4 # energy   -6.16278541 # occ.  2.00000000
 
ion      s      p      d    tot
    1  0.004  0.000  0.016  0.021
    2  0.013  0.000  0.013  0.025
    3  0.013  0.000  0.013  0.025
    4  0.013  0.000  0.013  0.025
    5  0.009  0.000  0.010  0.019
    6  0.013  0.000  0.012  0.025
    7  0.013  0.000  0.013  0.025
    8  0.013  0.000  0.012  0.025
    9  0.032  0.000  0.007  0.039
   10  0.013  0.001  0.014  0.028
   11  0.011  0.002  0.011  0.024
   12  0.013  0.001  0.014  0.027
   13  0.011  0.002  0.011  0.024
   14  0.011  0.002  0.011  0.024
   15  0.002  0.001  0.015  0.017
   16  0.013  0.001  0.014  0.027
   17  0.002  0.001  0.015  0.017
   18  0.002  0.001  0.015  0.017
   19  0.000  0.001  0.009  0.010
   20  0.013  0.002  0.009  0.024
   21  0.013  0.002  0.009  0.024
   22  0.004  0.001  0.002  0.007
   23  0.013  0.002  0.009  0.024
   24  0.004  0.001  0.002  0.008
   25  0.000  0.001  0.009  0.010
   26  0.000  0.001  0.009  0.010
   27  0.004  0.001  0.002  0.007
   28  0.010  0.000  0.002  0.012
   29  0.008  0.000  0.006  0.014
   30  0.008  0.000  0.006  0.014
   31  0.008  0.000  0.006  0.014
   32  0.008  0.000  0.006  0.014
   33  0.008  0.000  0.006  0.014
   34  0.008  0.000  0.006  0.014
   35  0.018  0.000  0.003  0.022
   36  0.000  0.002  0.006  0.007
   37  0.000  0.000  0.000  0.000
tot    0.326  0.027  0.339  0.692
 
band     5 # energy   -6.14754319 # occ.  2.00000000
 
ion      s      p      d    tot
    1  0.000  0.000  0.008  0.009
    2  0.003  0.001  0.003  0.006
    3  0.001  0.000  0.003  0.004
    4  0.003  0.001  0.003  0.007
    5  0.000  0.001  0.007  0.008
    6  0.007  0.001  0.004  0.011
    7  0.001  0.000  0.003  0.004
    8  0.006  0.001  0.004  0.011
    9  0.000  0.000  0.001  0.001
   10  0.036  0.002  0.004  0.043
   11  0.013  0.003  0.021  0.037
   12  0.009  0.001  0.028  0.038
   13  0.013  0.003  0.021  0.037
   14  0.052  0.001  0.012  0.064
   15  0.000  0.003  0.006  0.009
   16  0.009  0.001  0.028  0.038
   17  0.000  0.003  0.007  0.009
   18  0.001  0.000  0.012  0.014
   19  0.002  0.003  0.006  0.011
   20  0.062  0.001  0.010  0.074
   21  0.016  0.002  0.031  0.049
   22  0.004  0.001  0.021  0.026
   23  0.015  0.002  0.031  0.048
   24  0.016  0.002  0.005  0.023
   25  0.010  0.000  0.013  0.023
   26  0.003  0.003  0.006  0.011
   27  0.004  0.001  0.021  0.026
   28  0.000  0.000  0.001  0.001
   29  0.006  0.001  0.004  0.010
   30  0.002  0.000  0.003  0.005
   31  0.006  0.001  0.004  0.010
   32  0.001  0.000  0.002  0.004
   33  0.001  0.000  0.003  0.005
   34  0.001  0.000  0.002  0.004
   35  0.000  0.000  0.004  0.004
   36  0.000  0.003  0.006  0.009
   37  0.000  0.000  0.000  0.000
tot    0.305  0.044  0.346  0.694
 
band     6 # energy   -6.14752616 # occ.  2.00000000
 
ion      s      p      d    tot
    1  0.000  0.000  0.008  0.009
    2  0.004  0.001  0.004  0.008
    3  0.006  0.001  0.003  0.011
    4  0.004  0.001  0.004  0.008
    5  0.000  0.001  0.007  0.008
    6  0.000  0.000  0.003  0.003
    7  0.006  0.001  0.003  0.010
    8  0.000  0.000  0.003  0.003
    9  0.000  0.000  0.001  0.001
   10  0.000  0.000  0.036  0.036
   11  0.039  0.001  0.015  0.055
   12  0.027  0.002  0.012  0.041
   13  0.038  0.002  0.015  0.055
   14  0.000  0.004  0.024  0.028
   15  0.001  0.001  0.010  0.012
   16  0.027  0.002  0.012  0.041
   17  0.001  0.001  0.010  0.012
   18  0.000  0.003  0.005  0.008
   19  0.007  0.001  0.011  0.019
   20  0.000  0.002  0.038  0.040
   21  0.046  0.002  0.017  0.065
   22  0.012  0.001  0.011  0.024
   23  0.047  0.002  0.017  0.065
   24  0.000  0.000  0.026  0.027
   25  0.000  0.004  0.003  0.007
   26  0.007  0.001  0.011  0.019
   27  0.012  0.001  0.010  0.024
   28  0.000  0.000  0.001  0.001
   29  0.000  0.000  0.002  0.002
   30  0.004  0.001  0.003  0.008
   31  0.000  0.000  0.002  0.002
   32  0.004  0.001  0.004  0.009
   33  0.004  0.001  0.003  0.008
   34  0.004  0.001  0.004  0.009
   35  0.000  0.000  0.004  0.004
   36  0.000  0.003  0.006  0.008
   37  0.000  0.000  0.000  0.000
tot    0.305  0.044  0.346  0.694
 
band     7 # energy   -6.13564893 # occ.  2.00000000
 
ion      s      p      d    tot
    1  0.020  0.000  0.006  0.026
    2  0.009  0.000  0.012  0.021
    3  0.009  0.000  0.012  0.021
    4  0.009  0.000  0.012  0.021
    5  0.015  0.000  0.010  0.026
    6  0.009  0.000  0.012  0.022
    7  0.009  0.000  0.012  0.021
    8  0.009  0.000  0.012  0.022
    9  0.000  0.001  0.015  0.016
   10  0.000  0.000  0.032  0.032
   11  0.000  0.001  0.022  0.023
   12  0.000  0.000  0.032  0.032
   13  0.000  0.001  0.022  0.023
   14  0.000  0.001  0.022  0.023
   15  0.031  0.001  0.011  0.044
   16  0.000  0.000  0.032  0.032
   17  0.031  0.001  0.011  0.044
   18  0.031  0.001  0.011  0.044
   19  0.000  0.000  0.018  0.019
   20  0.018  0.000  0.015  0.033
   21  0.018  0.000  0.015  0.034
   22  0.004  0.002  0.009  0.015
   23  0.018  0.000  0.015  0.034
   24  0.004  0.002  0.009  0.015
   25  0.000  0.000  0.019  0.019
   26  0.000  0.000  0.018  0.019
   27  0.004  0.002  0.009  0.015
   28  0.001  0.000  0.000  0.001
   29  0.000  0.000  0.003  0.003
   30  0.000  0.000  0.003  0.003
   31  0.000  0.000  0.003  0.003
   32  0.000  0.000  0.003  0.003
   33  0.000  0.000  0.003  0.003
   34  0.000  0.000  0.003  0.003
   35  0.005  0.000  0.000  0.005
   36  0.002  0.003  0.002  0.007
   37  0.001  0.000  0.000  0.001
tot    0.266  0.022  0.442  0.730
 
band     8 # energy   -6.10916513 # occ.  2.00000000
 
ion      s      p      d    tot
    1  0.008  0.001  0.000  0.009
    2  0.000  0.001  0.006  0.007
    3  0.000  0.001  0.006  0.007
    4  0.000  0.001  0.006  0.007
    5  0.014  0.002  0.002  0.018
    6  0.000  0.001  0.006  0.007
    7  0.000  0.001  0.006  0.007
    8  0.000  0.001  0.006  0.007
    9  0.001  0.000  0.001  0.002
   10  0.018  0.003  0.005  0.026
   11  0.028  0.001  0.016  0.045
   12  0.018  0.003  0.005  0.026
   13  0.028  0.001  0.016  0.045
   14  0.028  0.001  0.016  0.045
   15  0.000  0.001  0.026  0.027
   16  0.018  0.003  0.005  0.026
   17  0.000  0.001  0.026  0.027
   18  0.000  0.001  0.026  0.027
   19  0.031  0.002  0.004  0.038
   20  0.004  0.002  0.019  0.026
   21  0.004  0.002  0.019  0.026
   22  0.004  0.000  0.027  0.031
   23  0.004  0.002  0.019  0.026
   24  0.003  0.000  0.027  0.031
   25  0.031  0.002  0.004  0.037
   26  0.031  0.002  0.004  0.038
   27  0.004  0.000  0.027  0.031
   28  0.006  0.001  0.003  0.011
   29  0.001  0.000  0.004  0.005
   30  0.001  0.000  0.004  0.005
   31  0.001  0.000  0.004  0.005
   32  0.001  0.000  0.004  0.005
   33  0.001  0.000  0.004  0.005
   34  0.001  0.000  0.004  0.005
   35  0.007  0.000  0.000  0.007
   36  0.002  0.000  0.001  0.004
   37  0.000  0.000  0.000  0.000
tot    0.297  0.040  0.361  0.698
 
band     9 # energy   -6.08158060 # occ.  2.00000000
 
ion      s      p      d    tot
    1  0.004  0.001  0.001  0.006
    2  0.000  0.000  0.002  0.002
    3  0.000  0.000  0.002  0.002
    4  0.000  0.000  0.002  0.002
    5  0.000  0.000  0.000  0.000
    6  0.000  0.000  0.002  0.002
    7  0.000  0.000  0.002  0.002
    8  0.000  0.000  0.002  0.002
    9  0.003  0.000  0.000  0.003
   10  0.007  0.000  0.009  0.017
   11  0.001  0.001  0.010  0.011
   12  0.007  0.000  0.009  0.017
   13  0.001  0.001  0.010  0.011
   14  0.001  0.001  0.010  0.011
   15  0.005  0.001  0.005  0.012
   16  0.007  0.000  0.009  0.017
   17  0.005  0.001  0.005  0.012
   18  0.006  0.001  0.005  0.012
   19  0.002  0.001  0.018  0.021
   20  0.000  0.000  0.036  0.037
   21  0.000  0.000  0.036  0.036
   22  0.022  0.002  0.014  0.038
   23  0.000  0.000  0.036  0.036
   24  0.021  0.002  0.015  0.038
   25  0.002  0.001  0.018  0.021
   26  0.002  0.001  0.018  0.021
   27  0.022  0.002  0.014  0.038
   28  0.020  0.000  0.016  0.036
   29  0.019  0.000  0.016  0.035
   30  0.019  0.000  0.016  0.035
   31  0.019  0.000  0.016  0.035
   32  0.019  0.000  0.016  0.035
   33  0.019  0.000  0.016  0.035
   34  0.019  0.000  0.016  0.035
   35  0.009  0.000  0.020  0.029
   36  0.018  0.000  0.011  0.029
   37  0.002  0.000  0.000  0.002
tot    0.283  0.017  0.433  0.733
 
band    10 # energy   -6.07674955 # occ.  2.00000000
 
ion      s      p      d    tot
    1  0.000  0.001  0.003  0.004
    2  0.004  0.001  0.003  0.008
    3  0.000  0.000  0.004  0.004
    4  0.005  0.001  0.003  0.009
    5  0.000  0.000  0.005  0.005
    6  0.008  0.001  0.004  0.014
    7  0.001  0.001  0.004  0.005
    8  0.008  0.001  0.004  0.013
    9  0.000  0.001  0.011  0.012
   10  0.000  0.005  0.004  0.009
   11  0.007  0.001  0.011  0.019
   12  0.017  0.002  0.013  0.032
   13  0.006  0.001  0.014  0.021
   14  0.000  0.001  0.026  0.027
   15  0.052  0.002  0.012  0.066
   16  0.021  0.001  0.015  0.037
   17  0.043  0.001  0.018  0.062
   18  0.000  0.001  0.043  0.044
   19  0.033  0.002  0.009  0.043
   20  0.000  0.002  0.012  0.014
   21  0.000  0.001  0.013  0.014
   22  0.023  0.002  0.013  0.037
   23  0.000  0.001  0.013  0.015
   24  0.000  0.004  0.016  0.020
   25  0.000  0.000  0.036  0.036
   26  0.027  0.002  0.014  0.042
   27  0.028  0.001  0.012  0.041
   28  0.000  0.000  0.006  0.006
   29  0.004  0.001  0.002  0.007
   30  0.002  0.000  0.002  0.005
   31  0.004  0.001  0.002  0.006
   32  0.001  0.000  0.001  0.002
   33  0.002  0.000  0.002  0.004
   34  0.000  0.000  0.001  0.002
   35  0.000  0.001  0.004  0.004
   36  0.000  0.000  0.001  0.001
   37  0.000  0.000  0.000  0.000
tot    0.297  0.041  0.355  0.693
 
band    11 # energy   -6.07674598 # occ.  2.00000000
 
ion      s      p      d    tot
    1  0.000  0.001  0.003  0.004
    2  0.005  0.001  0.004  0.010
    3  0.008  0.001  0.004  0.014
    4  0.004  0.001  0.004  0.009
    5  0.000  0.000  0.005  0.005
    6  0.000  0.000  0.003  0.004
    7  0.008  0.001  0.004  0.013
    8  0.001  0.000  0.003  0.005
    9  0.000  0.001  0.011  0.012
   10  0.025  0.000  0.017  0.043
   11  0.002  0.001  0.023  0.026
   12  0.009  0.003  0.008  0.020
   13  0.003  0.001  0.020  0.024
   14  0.009  0.001  0.008  0.018
   15  0.012  0.001  0.036  0.049
   16  0.005  0.004  0.006  0.015
   17  0.021  0.001  0.031  0.053
   18  0.063  0.002  0.006  0.070
   19  0.007  0.001  0.030  0.038
   20  0.000  0.001  0.013  0.015
   21  0.000  0.002  0.012  0.014
   22  0.011  0.003  0.014  0.028
   23  0.000  0.002  0.012  0.014
   24  0.035  0.001  0.011  0.046
   25  0.039  0.002  0.003  0.045
   26  0.013  0.001  0.025  0.039
   27  0.006  0.003  0.015  0.024
   28  0.000  0.000  0.006  0.006
   29  0.000  0.000  0.002  0.002
   30  0.002  0.000  0.001  0.004
   31  0.000  0.000  0.002  0.002
   32  0.003  0.001  0.002  0.007
   33  0.003  0.001  0.002  0.005
   34  0.004  0.001  0.002  0.007
   35  0.000  0.001  0.004  0.004
   36  0.000  0.000  0.001  0.001
   37  0.000  0.000  0.000  0.000
tot    0.297  0.041  0.355  0.693
 
band    12 # energy   -5.66534429 # occ.  2.00000000
 
ion      s      p      d    tot
    1  0.000  0.001  0.004  0.004
    2  0.001  0.001  0.005  0.006
    3  0.009  0.001  0.004  0.014
    4  0.001  0.001  0.005  0.006
    5  0.000  0.001  0.010  0.012
    6  0.005  0.001  0.004  0.009
    7  0.009  0.001  0.004  0.014
    8  0.005  0.001  0.004  0.009
    9  0.000  0.000  0.008  0.008
   10  0.000  0.001  0.050  0.050
   11  0.016  0.001  0.021  0.037
   12  0.007  0.001  0.019  0.027
   13  0.016  0.001  0.021  0.037
   14  0.000  0.000  0.049  0.050
   15  0.001  0.000  0.019  0.021
   16  0.007  0.001  0.019  0.027
   17  0.001  0.000  0.019  0.021
   18  0.000  0.001  0.011  0.013
   19  0.004  0.000  0.019  0.024
   20  0.000  0.000  0.083  0.083
   21  0.017  0.001  0.026  0.044
   22  0.003  0.001  0.019  0.024
   23  0.017  0.001  0.026  0.044
   24  0.000  0.001  0.035  0.035
   25  0.000  0.001  0.010  0.011
   26  0.004  0.000  0.019  0.024
   27  0.003  0.001  0.019  0.024
   28  0.000  0.000  0.007  0.008
   29  0.003  0.001  0.005  0.008
   30  0.008  0.001  0.004  0.014
   31  0.003  0.001  0.005  0.008
   32  0.002  0.001  0.004  0.006
   33  0.008  0.001  0.004  0.014
   34  0.002  0.001  0.004  0.006
   35  0.000  0.000  0.003  0.003
   36  0.000  0.004  0.005  0.008
   37  0.000  0.000  0.000  0.000
tot    0.151  0.030  0.573  0.754
 
band    13 # energy   -5.66532299 # occ.  2.00000000
 
ion      s      p      d    tot
    1  0.000  0.001  0.004  0.004
    2  0.009  0.001  0.004  0.014
    3  0.001  0.000  0.004  0.005
    4  0.009  0.001  0.004  0.014
    5  0.000  0.001  0.010  0.012
    6  0.004  0.001  0.005  0.010
    7  0.001  0.000  0.004  0.005
    8  0.005  0.001  0.005  0.010
    9  0.000  0.000  0.008  0.008
   10  0.009  0.002  0.008  0.020
   11  0.005  0.000  0.040  0.046
   12  0.002  0.001  0.039  0.043
   13  0.005  0.000  0.040  0.046
   14  0.021  0.001  0.011  0.033
   15  0.000  0.001  0.014  0.015
   16  0.002  0.001  0.039  0.043
   17  0.000  0.001  0.014  0.015
   18  0.002  0.000  0.022  0.024
   19  0.001  0.001  0.013  0.015
   20  0.022  0.001  0.008  0.031
   21  0.006  0.000  0.064  0.070
   22  0.001  0.001  0.029  0.032
   23  0.006  0.000  0.064  0.070
   24  0.005  0.001  0.014  0.020
   25  0.006  0.000  0.022  0.028
   26  0.001  0.001  0.013  0.015
   27  0.001  0.001  0.029  0.032
   28  0.000  0.000  0.007  0.008
   29  0.006  0.001  0.004  0.011
   30  0.000  0.000  0.004  0.004
   31  0.006  0.001  0.004  0.011
   32  0.007  0.001  0.005  0.013
   33  0.000  0.000  0.004  0.004
   34  0.007  0.001  0.005  0.013
   35  0.000  0.000  0.003  0.003
   36  0.000  0.004  0.005  0.008
   37  0.000  0.000  0.000  0.000
tot    0.151  0.030  0.573  0.754
 
band    14 # energy   -5.66130977 # occ.  2.00000000
 
ion      s      p      d    tot
    1  0.012  0.002  0.002  0.016
    2  0.000  0.001  0.008  0.008
    3  0.000  0.001  0.008  0.008
    4  0.000  0.001  0.008  0.008
    5  0.000  0.000  0.002  0.002
    6  0.000  0.001  0.008  0.008
    7  0.000  0.001  0.008  0.008
    8  0.000  0.001  0.008  0.008
    9  0.016  0.001  0.000  0.017
   10  0.010  0.001  0.014  0.025
   11  0.002  0.000  0.045  0.048
   12  0.010  0.001  0.014  0.025
   13  0.002  0.000  0.045  0.048
   14  0.002  0.000  0.045  0.047
   15  0.004  0.001  0.020  0.025
   16  0.010  0.001  0.014  0.025
   17  0.004  0.001  0.020  0.025
   18  0.004  0.001  0.020  0.025
   19  0.003  0.001  0.013  0.017
   20  0.001  0.000  0.057  0.058
   21  0.001  0.000  0.057  0.058
   22  0.011  0.001  0.018  0.031
   23  0.001  0.000  0.057  0.058
   24  0.011  0.001  0.018  0.031
   25  0.003  0.001  0.013  0.017
   26  0.003  0.001  0.013  0.017
   27  0.011  0.001  0.018  0.031
   28  0.013  0.001  0.000  0.014
   29  0.000  0.000  0.006  0.006
   30  0.000  0.000  0.006  0.006
   31  0.000  0.000  0.006  0.006
   32  0.000  0.000  0.006  0.006
   33  0.000  0.000  0.006  0.006
   34  0.000  0.000  0.006  0.006
   35  0.006  0.001  0.003  0.010
   36  0.000  0.000  0.001  0.001
   37  0.000  0.000  0.000  0.000
tot    0.143  0.026  0.590  0.758
 
band    15 # energy   -5.61026374 # occ.  2.00000000
 
ion      s      p      d    tot
    1  0.008  0.000  0.001  0.009
    2  0.000  0.001  0.009  0.009
    3  0.000  0.001  0.009  0.009
    4  0.000  0.001  0.009  0.009
    5  0.018  0.002  0.001  0.021
    6  0.000  0.001  0.009  0.009
    7  0.000  0.001  0.009  0.009
    8  0.000  0.001  0.009  0.009
    9  0.003  0.001  0.002  0.006
   10  0.000  0.000  0.042  0.043
   11  0.007  0.002  0.009  0.017
   12  0.000  0.000  0.042  0.043
   13  0.007  0.002  0.009  0.017
   14  0.007  0.002  0.009  0.017
   15  0.007  0.001  0.027  0.035
   16  0.000  0.000  0.042  0.043
   17  0.007  0.001  0.027  0.035
   18  0.008  0.001  0.027  0.035
   19  0.011  0.001  0.037  0.049
   20  0.009  0.002  0.009  0.019
   21  0.009  0.002  0.009  0.020
   22  0.000  0.000  0.036  0.036
   23  0.009  0.002  0.009  0.020
   24  0.000  0.000  0.036  0.036
   25  0.011  0.001  0.037  0.049
   26  0.011  0.001  0.037  0.049
   27  0.000  0.000  0.036  0.036
   28  0.002  0.001  0.005  0.007
   29  0.000  0.000  0.006  0.007
   30  0.000  0.000  0.006  0.007
   31  0.000  0.000  0.006  0.007
   32  0.000  0.000  0.006  0.007
   33  0.000  0.000  0.006  0.007
   34  0.000  0.000  0.006  0.007
   35  0.003  0.000  0.000  0.003
   36  0.015  0.005  0.000  0.020
   37  0.002  0.000  0.000  0.002
tot    0.154  0.033  0.577  0.765
 
band    16 # energy   -5.59094462 # occ.  2.00000000
 
ion      s      p      d    tot
    1  0.000  0.001  0.014  0.015
    2  0.010  0.001  0.004  0.015
    3  0.001  0.000  0.005  0.007
    4  0.010  0.001  0.004  0.015
    5  0.000  0.000  0.005  0.006
    6  0.004  0.001  0.005  0.010
    7  0.001  0.000  0.005  0.007
    8  0.004  0.001  0.005  0.010
    9  0.000  0.001  0.007  0.008
   10  0.000  0.001  0.031  0.031
   11  0.000  0.001  0.020  0.022
   12  0.007  0.000  0.022  0.030
   13  0.000  0.001  0.020  0.022
   14  0.000  0.001  0.018  0.019
   15  0.010  0.002  0.020  0.032
   16  0.007  0.000  0.022  0.030
   17  0.010  0.002  0.020  0.032
   18  0.000  0.000  0.063  0.063
   19  0.014  0.001  0.020  0.035
   20  0.000  0.002  0.021  0.023
   21  0.000  0.001  0.024  0.025
   22  0.017  0.001  0.020  0.038
   23  0.000  0.001  0.024  0.025
   24  0.000  0.000  0.030  0.031
   25  0.000  0.000  0.068  0.069
   26  0.014  0.001  0.020  0.034
   27  0.017  0.001  0.020  0.038
   28  0.000  0.001  0.005  0.006
   29  0.005  0.001  0.003  0.010
   30  0.000  0.000  0.005  0.005
   31  0.005  0.001  0.003  0.010
   32  0.004  0.001  0.002  0.007
   33  0.000  0.000  0.005  0.005
   34  0.004  0.001  0.002  0.007
   35  0.000  0.001  0.008  0.009
   36  0.000  0.000  0.002  0.002
   37  0.000  0.000  0.000  0.000
tot    0.146  0.028  0.577  0.751
 
band    17 # energy   -5.59090771 # occ.  2.00000000
 
ion      s      p      d    tot
    1  0.000  0.001  0.014  0.015
    2  0.000  0.000  0.005  0.006
    3  0.008  0.001  0.005  0.014
    4  0.000  0.000  0.005  0.006
    5  0.000  0.000  0.005  0.006
    6  0.006  0.001  0.005  0.012
    7  0.008  0.001  0.005  0.014
    8  0.006  0.001  0.005  0.012
    9  0.000  0.001  0.007  0.008
   10  0.010  0.000  0.020  0.030
   11  0.000  0.001  0.019  0.020
   12  0.002  0.001  0.028  0.031
   13  0.000  0.001  0.019  0.020
   14  0.001  0.001  0.021  0.023
   15  0.003  0.001  0.049  0.053
   16  0.002  0.001  0.028  0.031
   17  0.003  0.001  0.049  0.053
   18  0.014  0.002  0.006  0.022
   19  0.005  0.001  0.052  0.057
   20  0.000  0.000  0.025  0.026
   21  0.000  0.001  0.022  0.024
   22  0.006  0.001  0.027  0.033
   23  0.000  0.001  0.022  0.024
   24  0.023  0.001  0.017  0.041
   25  0.018  0.001  0.004  0.023
   26  0.005  0.001  0.052  0.057
   27  0.006  0.001  0.027  0.033
   28  0.000  0.001  0.005  0.006
   29  0.001  0.000  0.004  0.005
   30  0.006  0.001  0.002  0.010
   31  0.001  0.000  0.004  0.005
   32  0.002  0.001  0.005  0.008
   33  0.006  0.001  0.002  0.010
   34  0.002  0.001  0.005  0.008
   35  0.000  0.001  0.008  0.009
   36  0.000  0.000  0.002  0.002
   37  0.000  0.000  0.000  0.000
tot    0.146  0.028  0.577  0.751
 
band    18 # energy   -5.27859887 # occ.  2.00000000
 
ion      s      p      d    tot
    1  0.000  0.000  0.019  0.019
    2  0.002  0.001  0.008  0.011
    3  0.002  0.000  0.013  0.015
    4  0.002  0.001  0.008  0.011
    5  0.000  0.001  0.019  0.020
    6  0.008  0.001  0.009  0.018
    7  0.002  0.000  0.013  0.015
    8  0.008  0.001  0.009  0.018
    9  0.000  0.001  0.004  0.005
   10  0.000  0.001  0.021  0.022
   11  0.000  0.000  0.057  0.057
   12  0.000  0.000  0.014  0.014
   13  0.000  0.000  0.057  0.057
   14  0.000  0.000  0.052  0.053
   15  0.000  0.000  0.015  0.015
   16  0.000  0.000  0.014  0.014
   17  0.000  0.000  0.015  0.015
   18  0.000  0.000  0.028  0.028
   19  0.000  0.000  0.009  0.009
   20  0.001  0.000  0.079  0.080
   21  0.000  0.000  0.052  0.053
   22  0.000  0.000  0.025  0.025
   23  0.000  0.000  0.052  0.053
   24  0.001  0.000  0.022  0.023
   25  0.001  0.000  0.014  0.015
   26  0.000  0.000  0.009  0.009
   27  0.000  0.000  0.025  0.025
   28  0.000  0.001  0.007  0.008
   29  0.009  0.001  0.014  0.024
   30  0.001  0.000  0.010  0.011
   31  0.009  0.001  0.014  0.024
   32  0.005  0.001  0.007  0.012
   33  0.001  0.000  0.010  0.011
   34  0.005  0.001  0.007  0.012
   35  0.000  0.000  0.020  0.020
   36  0.000  0.003  0.005  0.009
   37  0.000  0.000  0.000  0.000
tot    0.060  0.017  0.755  0.832
 
band    19 # energy   -5.27857561 # occ.  2.00000000
 
ion      s      p      d    tot
    1  0.000  0.000  0.019  0.019
    2  0.006  0.000  0.012  0.019
    3  0.006  0.001  0.007  0.014
    4  0.006  0.000  0.012  0.019
    5  0.000  0.001  0.019  0.020
    6  0.000  0.000  0.011  0.011
    7  0.006  0.001  0.007  0.014
    8  0.000  0.000  0.011  0.011
    9  0.000  0.001  0.004  0.005
   10  0.000  0.000  0.012  0.012
   11  0.000  0.000  0.054  0.055
   12  0.000  0.000  0.019  0.019
   13  0.000  0.000  0.054  0.055
   14  0.000  0.000  0.058  0.059
   15  0.000  0.000  0.024  0.024
   16  0.000  0.000  0.019  0.019
   17  0.000  0.000  0.024  0.024
   18  0.000  0.000  0.011  0.011
   19  0.000  0.000  0.012  0.013
   20  0.000  0.000  0.044  0.044
   21  0.001  0.000  0.070  0.071
   22  0.001  0.000  0.023  0.024
   23  0.001  0.000  0.070  0.071
   24  0.000  0.000  0.026  0.026
   25  0.000  0.000  0.008  0.008
   26  0.000  0.000  0.012  0.013
   27  0.001  0.000  0.023  0.024
   28  0.000  0.001  0.007  0.008
   29  0.001  0.000  0.006  0.007
   30  0.009  0.001  0.011  0.020
   31  0.001  0.000  0.006  0.007
   32  0.005  0.001  0.014  0.019
   33  0.009  0.001  0.011  0.020
   34  0.005  0.001  0.014  0.019
   35  0.000  0.000  0.020  0.020
   36  0.000  0.003  0.005  0.009
   37  0.000  0.000  0.000  0.000
tot    0.060  0.017  0.755  0.832
 
band    20 # energy   -5.27561597 # occ.  2.00000000
 
ion      s      p      d    tot
    1  0.008  0.000  0.007  0.015
    2  0.000  0.001  0.012  0.013
    3  0.000  0.001  0.012  0.013
    4  0.000  0.001  0.012  0.013
    5  0.003  0.001  0.007  0.010
    6  0.000  0.001  0.012  0.013
    7  0.000  0.001  0.012  0.013
    8  0.000  0.001  0.012  0.013
    9  0.019  0.001  0.000  0.021
   10  0.000  0.000  0.026  0.027
   11  0.000  0.000  0.043  0.043
   12  0.000  0.000  0.026  0.027
   13  0.000  0.000  0.043  0.043
   14  0.000  0.000  0.043  0.043
   15  0.000  0.000  0.028  0.029
   16  0.000  0.000  0.026  0.027
   17  0.000  0.000  0.028  0.029
   18  0.000  0.000  0.028  0.029
   19  0.000  0.000  0.021  0.022
   20  0.001  0.000  0.046  0.047
   21  0.001  0.000  0.046  0.047
   22  0.000  0.000  0.026  0.027
   23  0.001  0.000  0.046  0.047
   24  0.000  0.000  0.026  0.027
   25  0.000  0.000  0.022  0.022
   26  0.000  0.000  0.021  0.022
   27  0.000  0.000  0.026  0.027
   28  0.001  0.000  0.003  0.004
   29  0.000  0.001  0.014  0.015
   30  0.000  0.001  0.014  0.015
   31  0.000  0.001  0.014  0.015
   32  0.000  0.001  0.014  0.015
   33  0.000  0.001  0.014  0.015
   34  0.000  0.001  0.014  0.015
   35  0.015  0.001  0.001  0.017
   36  0.005  0.000  0.006  0.011
   37  0.000  0.000  0.000  0.000
tot    0.057  0.016  0.757  0.830
 
band    21 # energy   -5.25206518 # occ.  2.00000000
 
ion      s      p      d    tot
    1  0.006  0.001  0.001  0.008
    2  0.000  0.001  0.018  0.019
    3  0.000  0.001  0.018  0.019
    4  0.000  0.001  0.018  0.019
    5  0.022  0.001  0.006  0.028
    6  0.000  0.001  0.018  0.019
    7  0.000  0.001  0.018  0.019
    8  0.000  0.001  0.018  0.019
    9  0.005  0.000  0.011  0.016
   10  0.000  0.000  0.029  0.029
   11  0.000  0.000  0.025  0.026
   12  0.000  0.000  0.029  0.029
   13  0.000  0.000  0.025  0.026
   14  0.000  0.000  0.025  0.026
   15  0.000  0.000  0.033  0.033
   16  0.000  0.000  0.029  0.029
   17  0.000  0.000  0.033  0.033
   18  0.000  0.000  0.033  0.033
   19  0.000  0.000  0.026  0.027
   20  0.000  0.000  0.023  0.023
   21  0.000  0.000  0.023  0.023
   22  0.001  0.000  0.020  0.022
   23  0.000  0.000  0.023  0.023
   24  0.001  0.000  0.020  0.022
   25  0.000  0.000  0.026  0.027
   26  0.000  0.000  0.026  0.027
   27  0.001  0.000  0.020  0.022
   28  0.020  0.000  0.007  0.027
   29  0.000  0.000  0.021  0.022
   30  0.000  0.000  0.021  0.022
   31  0.000  0.000  0.021  0.022
   32  0.000  0.000  0.021  0.022
   33  0.000  0.000  0.021  0.022
   34  0.000  0.000  0.021  0.022
   35  0.007  0.000  0.007  0.013
   36  0.004  0.001  0.000  0.005