PROCAR new format
# of k-points:   10         # of bands:  252         # of ions:   37

 k-point     1 :    0.00000000 0.00000000 0.00000000     weight = 0.01562500

band     1 # energy   -6.40495014 # occ.  2.00000000
 
ion      s      p      d    tot
    1  0.006  0.001  0.000  0.007
    2  0.006  0.001  0.000  0.007
    3  0.006  0.001  0.000  0.007
    4  0.006  0.001  0.000  0.007
    5  0.006  0.001  0.000  0.007
    6  0.006  0.001  0.000  0.007
    7  0.006  0.001  0.000  0.007
    8  0.006  0.001  0.000  0.007
    9  0.006  0.001  0.000  0.007
   10  0.024  0.000  0.000  0.024
   11  0.024  0.000  0.000  0.025
   12  0.024  0.000  0.000  0.024
   13  0.024  0.000  0.000  0.025
   14  0.024  0.000  0.000  0.025
   15  0.023  0.000  0.000  0.024
   16  0.024  0.000  0.000  0.024
   17  0.023  0.000  0.000  0.024
   18  0.023  0.000  0.000  0.024
   19  0.022  0.000  0.000  0.023
   20  0.024  0.000  0.000  0.025
   21  0.024  0.000  0.000  0.025
   22  0.022  0.000  0.000  0.023
   23  0.024  0.000  0.000  0.025
   24  0.022  0.000  0.000  0.023
   25  0.022  0.000  0.000  0.023
   26  0.022  0.000  0.000  0.023
   27  0.022  0.000  0.000  0.023
   28  0.005  0.001  0.000  0.006
   29  0.005  0.001  0.000  0.006
   30  0.005  0.001  0.000  0.006
   31  0.005  0.001  0.000  0.006
   32  0.005  0.001  0.000  0.006
   33  0.005  0.001  0.000  0.006
   34  0.005  0.001  0.000  0.006
   35  0.005  0.001  0.000  0.006
   36  0.008  0.001  0.000  0.009
   37  0.000  0.000  0.000  0.000
tot    0.525  0.013  0.006  0.544
 
band     2 # energy   -5.53713709 # occ.  2.00000000
 
ion      s      p      d    tot
    1  0.008  0.000  0.000  0.008
    2  0.008  0.000  0.000  0.009
    3  0.008  0.000  0.000  0.009
    4  0.008  0.000  0.000  0.009
    5  0.008  0.000  0.000  0.009
    6  0.008  0.000  0.000  0.009
    7  0.008  0.000  0.000  0.009
    8  0.008  0.000  0.000  0.009
    9  0.008  0.000  0.000  0.009
   10  0.011  0.001  0.016  0.028
   11  0.011  0.001  0.015  0.027
   12  0.011  0.001  0.016  0.028
   13  0.011  0.001  0.015  0.027
   14  0.011  0.001  0.015  0.027
   15  0.011  0.001  0.013  0.025
   16  0.011  0.001  0.016  0.028
   17  0.011  0.001  0.013  0.025
   18  0.011  0.001  0.013  0.025
   19  0.012  0.001  0.016  0.030
   20  0.013  0.001  0.021  0.035
   21  0.013  0.001  0.021  0.035
   22  0.011  0.001  0.015  0.027
   23  0.013  0.001  0.021  0.035
   24  0.011  0.001  0.015  0.027
   25  0.012  0.001  0.016  0.030
   26  0.012  0.001  0.016  0.030
   27  0.011  0.001  0.015  0.027
   28  0.007  0.000  0.000  0.008
   29  0.006  0.000  0.000  0.007
   30  0.006  0.000  0.000  0.007
   31  0.006  0.000  0.000  0.007
   32  0.006  0.000  0.000  0.007
   33  0.006  0.000  0.000  0.007
   34  0.006  0.000  0.000  0.007
   35  0.007  0.000  0.000  0.007
   36  0.009  0.000  0.000  0.010
   37  0.001  0.000  0.000  0.001
tot    0.340  0.024  0.293  0.657
 
band     3 # energy   -5.25330217 # occ.  2.00000000
 
ion      s      p      d    tot
    1  0.014  0.000  0.027  0.041
    2  0.015  0.000  0.023  0.038
    3  0.015  0.000  0.023  0.038
    4  0.015  0.000  0.023  0.038
    5  0.015  0.000  0.022  0.037
    6  0.015  0.000  0.023  0.038
    7  0.015  0.000  0.023  0.038
    8  0.015  0.000  0.023  0.038
    9  0.016  0.000  0.022  0.038
   10  0.001  0.000  0.022  0.024
   11  0.001  0.000  0.022  0.023
   12  0.001  0.000  0.022  0.023
   13  0.001  0.000  0.022  0.023
   14  0.001  0.000  0.022  0.023
   15  0.000  0.000  0.019  0.020
   16  0.001  0.000  0.022  0.023
   17  0.000  0.000  0.019  0.020
   18  0.000  0.000  0.019  0.020
   19  0.000  0.000  0.009  0.009
   20  0.000  0.000  0.015  0.015
   21  0.000  0.000  0.015  0.015
   22  0.000  0.000  0.009  0.009
   23  0.000  0.000  0.015  0.015
   24  0.000  0.000  0.009  0.009
   25  0.000  0.000  0.009  0.009
   26  0.000  0.000  0.009  0.009
   27  0.000  0.000  0.009  0.009
   28  0.006  0.000  0.008  0.013
   29  0.006  0.000  0.007  0.014
   30  0.006  0.000  0.007  0.014
   31  0.006  0.000  0.007  0.014
   32  0.006  0.000  0.007  0.014
   33  0.006  0.000  0.007  0.014
   34  0.006  0.000  0.007  0.014
   35  0.006  0.000  0.008  0.014
   36  0.008  0.000  0.002  0.009
   37  0.000  0.000  0.000  0.000
tot    0.197  0.006  0.561  0.763
 
band     4 # energy   -5.15716186 # occ.  2.00000000
 
ion      s      p      d    tot
    1  0.007  0.001  0.002  0.010
    2  0.000  0.000  0.005  0.005
    3  0.000  0.000  0.005  0.005
    4  0.000  0.000  0.005  0.005
    5  0.001  0.000  0.001  0.002
    6  0.000  0.000  0.005  0.005
    7  0.000  0.000  0.005  0.005
    8  0.000  0.000  0.005  0.005
    9  0.001  0.000  0.001  0.002
   10  0.007  0.000  0.035  0.042
   11  0.000  0.000  0.025  0.025
   12  0.007  0.000  0.035  0.042
   13  0.000  0.000  0.025  0.025
   14  0.000  0.000  0.025  0.025
   15  0.007  0.001  0.003  0.011
   16  0.007  0.000  0.035  0.042
   17  0.007  0.001  0.003  0.011
   18  0.007  0.001  0.003  0.011
   19  0.001  0.001  0.033  0.034
   20  0.006  0.000  0.094  0.100
   21  0.006  0.000  0.094  0.100
   22  0.016  0.001  0.009  0.025
   23  0.006  0.000  0.094  0.100
   24  0.016  0.001  0.009  0.025
   25  0.001  0.001  0.033  0.034
   26  0.001  0.001  0.033  0.034
   27  0.016  0.001  0.009  0.025
   28  0.000  0.000  0.002  0.002
   29  0.000  0.000  0.004  0.004
   30  0.000  0.000  0.004  0.004
   31  0.000  0.000  0.004  0.004
   32  0.000  0.000  0.004  0.004
   33  0.000  0.000  0.004  0.004
   34  0.000  0.000  0.004  0.004
   35  0.005  0.001  0.003  0.009
   36  0.008  0.001  0.008  0.017
   37  0.002  0.000  0.000  0.002
tot    0.132  0.015  0.666  0.813
 
band     5 # energy   -5.12910047 # occ.  2.00000000
 
ion      s      p      d    tot
    1  0.000  0.000  0.002  0.002
    2  0.000  0.000  0.003  0.003
    3  0.001  0.000  0.006  0.007
    4  0.000  0.000  0.003  0.003
    5  0.000  0.000  0.006  0.007
    6  0.000  0.000  0.003  0.004
    7  0.001  0.000  0.006  0.007
    8  0.000  0.000  0.003  0.003
    9  0.000  0.000  0.005  0.005
   10  0.000  0.000  0.032  0.032
   11  0.005  0.000  0.077  0.082
   12  0.000  0.001  0.047  0.048
   13  0.004  0.000  0.081  0.086
   14  0.018  0.001  0.010  0.028
   15  0.005  0.001  0.021  0.027
   16  0.000  0.001  0.046  0.047
   17  0.004  0.001  0.020  0.025
   18  0.018  0.001  0.031  0.050
   19  0.003  0.000  0.041  0.044
   20  0.000  0.000  0.033  0.034
   21  0.000  0.001  0.052  0.052
   22  0.003  0.001  0.016  0.020
   23  0.000  0.001  0.050  0.051
   24  0.011  0.001  0.023  0.036
   25  0.012  0.001  0.012  0.025
   26  0.003  0.000  0.042  0.045
   27  0.003  0.001  0.016  0.021
   28  0.000  0.000  0.004  0.004
   29  0.000  0.000  0.002  0.002
   30  0.000  0.000  0.003  0.003
   31  0.000  0.000  0.002  0.002
   32  0.000  0.000  0.003  0.004
   33  0.000  0.000  0.003  0.003
   34  0.000  0.000  0.003  0.004
   35  0.000  0.000  0.005  0.005
   36  0.000  0.000  0.002  0.002
   37  0.000  0.000  0.000  0.000
tot    0.093  0.013  0.712  0.819
 
band     6 # energy   -5.12909208 # occ.  2.00000000
 
ion      s      p      d    tot
    1  0.000  0.000  0.002  0.002
    2  0.001  0.000  0.005  0.006
    3  0.000  0.000  0.002  0.002
    4  0.000  0.000  0.005  0.006
    5  0.000  0.000  0.006  0.007
    6  0.000  0.000  0.005  0.005
    7  0.000  0.000  0.002  0.002
    8  0.000  0.000  0.005  0.006
    9  0.000  0.000  0.005  0.005
   10  0.000  0.001  0.051  0.052
   11  0.013  0.000  0.035  0.048
   12  0.000  0.000  0.036  0.037
   13  0.014  0.000  0.031  0.045
   14  0.000  0.000  0.102  0.102
   15  0.013  0.001  0.027  0.041
   16  0.000  0.001  0.037  0.038
   17  0.014  0.001  0.028  0.042
   18  0.000  0.001  0.017  0.018
   19  0.009  0.000  0.023  0.032
   20  0.000  0.001  0.057  0.058
   21  0.000  0.000  0.039  0.039
   22  0.009  0.001  0.021  0.031
   23  0.000  0.000  0.040  0.040
   24  0.000  0.001  0.014  0.015
   25  0.000  0.000  0.051  0.051
   26  0.009  0.000  0.021  0.031
   27  0.008  0.001  0.021  0.030
   28  0.000  0.000  0.004  0.004
   29  0.000  0.000  0.003  0.003
   30  0.001  0.000  0.003  0.003
   31  0.000  0.000  0.003  0.004
   32  0.000  0.000  0.002  0.002
   33  0.001  0.000  0.003  0.003
   34  0.000  0.000  0.002  0.002
   35  0.000  0.000  0.005  0.005
   36  0.000  0.000  0.002  0.002
   37  0.000  0.000  0.000  0.000
tot    0.093  0.013  0.712  0.819
 
band     7 # energy   -5.12520984 # occ.  2.00000000
 
ion      s      p      d    tot
    1  0.000  0.000  0.011  0.011
    2  0.001  0.000  0.005  0.006
    3  0.002  0.001  0.004  0.007
    4  0.001  0.000  0.005  0.006
    5  0.000  0.000  0.005  0.005
    6  0.000  0.000  0.003  0.003
    7  0.002  0.001  0.004  0.007
    8  0.000  0.000  0.003  0.003
    9  0.000  0.000  0.001  0.001
   10  0.000  0.000  0.069  0.069
   11  0.011  0.001  0.029  0.040
   12  0.019  0.001  0.022  0.041
   13  0.011  0.001  0.029  0.041
   14  0.000  0.002  0.016  0.018
   15  0.001  0.000  0.023  0.024
   16  0.018  0.001  0.022  0.042
   17  0.001  0.000  0.023  0.024
   18  0.000  0.001  0.042  0.043
   19  0.009  0.001  0.026  0.036
   20  0.000  0.000  0.081  0.082
   21  0.021  0.001  0.026  0.048
   22  0.002  0.000  0.025  0.027
   23  0.021  0.001  0.026  0.048
   24  0.000  0.000  0.051  0.051
   25  0.000  0.002  0.012  0.014
   26  0.009  0.001  0.026  0.036
   27  0.002  0.000  0.025  0.027
   28  0.000  0.000  0.003  0.003
   29  0.001  0.000  0.003  0.004
   30  0.000  0.000  0.002  0.003
   31  0.001  0.000  0.003  0.004
   32  0.001  0.001  0.004  0.006
   33  0.000  0.000  0.002  0.003
   34  0.001  0.001  0.004  0.006
   35  0.000  0.000  0.002  0.002
   36  0.000  0.001  0.003  0.004
   37  0.000  0.000  0.000  0.000
tot    0.137  0.018  0.641  0.796
 
band     8 # energy   -5.12520571 # occ.  2.00000000
 
ion      s      p      d    tot
    1  0.000  0.000  0.011  0.011
    2  0.001  0.000  0.003  0.005
    3  0.000  0.000  0.003  0.004
    4  0.001  0.000  0.003  0.005
    5  0.000  0.000  0.005  0.005
    6  0.002  0.001  0.005  0.008
    7  0.000  0.000  0.003  0.004
    8  0.002  0.001  0.005  0.008
    9  0.000  0.000  0.001  0.001
   10  0.025  0.001  0.006  0.032
   11  0.004  0.001  0.021  0.026
   12  0.006  0.000  0.054  0.060
   13  0.004  0.001  0.020  0.025
   14  0.015  0.000  0.032  0.048
   15  0.000  0.001  0.036  0.037
   16  0.006  0.000  0.053  0.060
   17  0.000  0.001  0.036  0.037
   18  0.001  0.000  0.016  0.018
   19  0.003  0.001  0.017  0.021
   20  0.028  0.001  0.008  0.037
   21  0.007  0.001  0.063  0.070
   22  0.001  0.000  0.042  0.043
   23  0.007  0.001  0.062  0.070
   24  0.003  0.000  0.016  0.019
   25  0.012  0.000  0.031  0.043
   26  0.003  0.001  0.017  0.021
   27  0.001  0.000  0.042  0.043
   28  0.000  0.000  0.003  0.003
   29  0.001  0.000  0.003  0.005
   30  0.001  0.000  0.004  0.006
   31  0.001  0.000  0.003  0.005
   32  0.000  0.000  0.002  0.003
   33  0.001  0.000  0.004  0.006
   34  0.000  0.000  0.002  0.003
   35  0.000  0.000  0.002  0.002
   36  0.000  0.001  0.003  0.004
   37  0.000  0.000  0.000  0.000
tot    0.137  0.018  0.641  0.796
 
band     9 # energy   -5.12354398 # occ.  2.00000000
 
ion      s      p      d    tot
    1  0.001  0.000  0.000  0.001
    2  0.000  0.000  0.005  0.005
    3  0.000  0.000  0.005  0.005
    4  0.000  0.000  0.005  0.005
    5  0.002  0.001  0.007  0.010
    6  0.000  0.000  0.005  0.005
    7  0.000  0.000  0.005  0.005
    8  0.000  0.000  0.005  0.005
    9  0.001  0.000  0.002  0.004
   10  0.007  0.001  0.005  0.013
   11  0.014  0.001  0.051  0.066
   12  0.007  0.001  0.005  0.013
   13  0.014  0.001  0.051  0.066
   14  0.014  0.001  0.052  0.066
   15  0.001  0.000  0.057  0.058
   16  0.007  0.001  0.005  0.013
   17  0.001  0.000  0.057  0.058
   18  0.001  0.000  0.057  0.058
   19  0.007  0.000  0.037  0.045
   20  0.007  0.001  0.019  0.027
   21  0.007  0.001  0.019  0.027
   22  0.000  0.000  0.033  0.034
   23  0.007  0.001  0.019  0.027
   24  0.000  0.000  0.033  0.033
   25  0.008  0.000  0.037  0.045
   26  0.007  0.000  0.037  0.045
   27  0.000  0.000  0.033  0.034
   28  0.003  0.001  0.003  0.006
   29  0.000  0.000  0.003  0.003
   30  0.000  0.000  0.003  0.003
   31  0.000  0.000  0.003  0.003
   32  0.000  0.000  0.003  0.003
   33  0.000  0.000  0.003  0.003
   34  0.000  0.000  0.003  0.003
   35  0.001  0.000  0.002  0.003
   36  0.000  0.000  0.000  0.000
   37  0.000  0.000  0.000  0.000
tot    0.115  0.016  0.674  0.806
 
band    10 # energy   -5.10266377 # occ.  2.00000000
 
ion      s      p      d    tot
    1  0.000  0.000  0.009  0.010
    2  0.000  0.000  0.009  0.010
    3  0.000  0.000  0.009  0.010
    4  0.000  0.000  0.009  0.010
    5  0.005  0.000  0.004  0.009
    6  0.000  0.000  0.009  0.010
    7  0.000  0.000  0.009  0.010
    8  0.000  0.000  0.009  0.010
    9  0.004  0.001  0.006  0.011
   10  0.001  0.000  0.073  0.074
   11  0.002  0.000  0.039  0.041
   12  0.001  0.000  0.073  0.074
   13  0.002  0.000  0.039  0.041
   14  0.002  0.000  0.039  0.042
   15  0.010  0.000  0.016  0.026
   16  0.001  0.000  0.073  0.074
   17  0.010  0.000  0.016  0.026
   18  0.010  0.000  0.016  0.026
   19  0.003  0.000  0.012  0.015
   20  0.001  0.000  0.047  0.048
   21  0.001  0.000  0.047  0.048
   22  0.001  0.000  0.022  0.024
   23  0.001  0.000  0.047  0.048
   24  0.001  0.000  0.022  0.024
   25  0.003  0.000  0.012  0.015
   26  0.003  0.000  0.012  0.015
   27  0.001  0.000  0.022  0.024
   28  0.004  0.001  0.000  0.005
   29  0.000  0.000  0.008  0.008
   30  0.000  0.000  0.008  0.008
   31  0.000  0.000  0.008  0.008
   32  0.000  0.000  0.008  0.008
   33  0.000  0.000  0.008  0.008
   34  0.000  0.000  0.008  0.008
   35  0.001  0.000  0.003  0.005
   36  0.002  0.000  0.003  0.005
   37  0.000  0.000  0.000  0.000
tot    0.072  0.008  0.759  0.840
 
band    11 # energy   -5.08225088 # occ.  2.00000000
 
ion      s      p      d    tot
    1  0.000  0.000  0.015  0.016
    2  0.003  0.000  0.006  0.009
    3  0.000  0.000  0.011  0.011
    4  0.003  0.000  0.006  0.009
    5  0.000  0.000  0.010  0.010
    6  0.002  0.001  0.008  0.011
    7  0.000  0.000  0.011  0.011
    8  0.003  0.001  0.007  0.011
    9  0.000  0.001  0.007  0.008
   10  0.000  0.000  0.045  0.045
   11  0.001  0.000  0.036  0.037
   12  0.008  0.000  0.035  0.042
   13  0.001  0.000  0.037  0.038
   14  0.000  0.000  0.029  0.029
   15  0.010  0.000  0.032  0.042
   16  0.007  0.000  0.036  0.043
   17  0.011  0.000  0.024  0.036
   18  0.000  0.000  0.098  0.098
   19  0.001  0.000  0.028  0.028
   20  0.000  0.000  0.056  0.056
   21  0.006  0.000  0.018  0.024
   22  0.002  0.000  0.024  0.026
   23  0.005  0.000  0.022  0.027
   24  0.000  0.000  0.026  0.026
   25  0.000  0.000  0.026  0.026
   26  0.001  0.000  0.028  0.029
   27  0.002  0.000  0.024  0.026
   28  0.000  0.000  0.012  0.012
   29  0.000  0.000  0.005  0.006
   30  0.003  0.000  0.004  0.007
   31  0.001  0.000  0.005  0.006
   32  0.001  0.000  0.005  0.007
   33  0.003  0.000  0.004  0.007
   34  0.001  0.000  0.005  0.007
   35  0.000  0.000  0.006  0.006
   36  0.000  0.001  0.002  0.002
   37  0.000  0.000  0.000  0.000
tot    0.074  0.009  0.752  0.835
 
band    12 # energy   -5.08224756 # occ.  2.00000000
 
ion      s      p      d    tot
    1  0.000  0.000  0.015  0.016
    2  0.001  0.001  0.011  0.012
    3  0.004  0.001  0.005  0.010
    4  0.001  0.001  0.010  0.012
    5  0.000  0.000  0.010  0.010
    6  0.001  0.000  0.008  0.010
    7  0.004  0.001  0.006  0.010
    8  0.001  0.000  0.009  0.010
    9  0.000  0.001  0.007  0.008
   10  0.010  0.000  0.032  0.042
   11  0.000  0.000  0.032  0.032
   12  0.002  0.000  0.042  0.044
   13  0.000  0.000  0.031  0.031
   14  0.001  0.000  0.039  0.040
   15  0.004  0.000  0.071  0.075
   16  0.003  0.000  0.041  0.044
   17  0.003  0.000  0.078  0.081
   18  0.014  0.000  0.005  0.019
   19  0.000  0.000  0.026  0.027
   20  0.007  0.000  0.008  0.015
   21  0.002  0.000  0.046  0.047
   22  0.001  0.000  0.025  0.026
   23  0.002  0.000  0.042  0.044
   24  0.003  0.000  0.023  0.027
   25  0.001  0.000  0.028  0.030
   26  0.000  0.000  0.026  0.026
   27  0.001  0.000  0.025  0.026
   28  0.000  0.000  0.012  0.012
   29  0.002  0.001  0.004  0.007
   30  0.000  0.000  0.006  0.006
   31  0.002  0.000  0.004  0.007
   32  0.002  0.000  0.005  0.007
   33  0.000  0.000  0.006  0.006
   34  0.002  0.000  0.004  0.007
   35  0.000  0.000  0.006  0.006
   36  0.000  0.001  0.002  0.002
   37  0.000  0.000  0.000  0.000
tot    0.074  0.009  0.752  0.835
 
band    13 # energy   -5.07937965 # occ.  2.00000000
 
ion      s      p      d    tot
    1  0.004  0.000  0.001  0.005
    2  0.000  0.000  0.010  0.010
    3  0.000  0.000  0.010  0.010
    4  0.000  0.000  0.010  0.010
    5  0.000  0.000  0.004  0.004
    6  0.000  0.000  0.009  0.010
    7  0.000  0.000  0.010  0.010
    8  0.000  0.000  0.009  0.010
    9  0.001  0.000  0.005  0.007
   10  0.001  0.000  0.026  0.027
   11  0.002  0.000  0.016  0.019
   12  0.001  0.000  0.026  0.027
   13  0.002  0.000  0.016  0.019
   14  0.002  0.000  0.016  0.019
   15  0.000  0.000  0.056  0.056
   16  0.001  0.000  0.026  0.027
   17  0.000  0.000  0.056  0.057
   18  0.000  0.000  0.056  0.057
   19  0.005  0.000  0.049  0.055
   20  0.003  0.000  0.013  0.016
   21  0.002  0.000  0.013  0.016
   22  0.000  0.000  0.064  0.064
   23  0.002  0.000  0.013  0.016
   24  0.000  0.000  0.064  0.064
   25  0.005  0.000  0.049  0.054
   26  0.005  0.000  0.049  0.055
   27  0.000  0.000  0.064  0.064
   28  0.000  0.001  0.013  0.014
   29  0.000  0.000  0.007  0.007
   30  0.000  0.000  0.007  0.007
   31  0.000  0.000  0.007  0.007
   32  0.000  0.000  0.007  0.007
   33  0.000  0.000  0.007  0.007
   34  0.000  0.000  0.007  0.007
   35  0.000  0.000  0.005  0.005
   36  0.005  0.001  0.000  0.006
   37  0.000  0.000  0.000  0.000
tot    0.045  0.007  0.800  0.852
 
band    14 # energy   -5.07282818 # occ.  2.00000000
 
ion      s      p      d    tot
    1  0.000  0.000  0.005  0.005
    2  0.003  0.000  0.006  0.010
    3  0.000  0.000  0.008  0.009
    4  0.003  0.000  0.006  0.010
    5  0.000  0.000  0.009  0.010
    6  0.001  0.000  0.006  0.008
    7  0.000  0.000  0.008  0.009
    8  0.001  0.000  0.006  0.008
    9  0.000  0.000  0.020  0.020
   10  0.003  0.000  0.024  0.026
   11  0.001  0.000  0.038  0.039
   12  0.001  0.000  0.020  0.021
   13  0.001  0.000  0.036  0.037
   14  0.003  0.000  0.010  0.013
   15  0.000  0.000  0.029  0.029
   16  0.001  0.000  0.020  0.020
   17  0.000  0.000  0.029  0.029
   18  0.000  0.000  0.036  0.036
   19  0.002  0.000  0.077  0.079
   20  0.001  0.000  0.053  0.054
   21  0.000  0.000  0.021  0.021
   22  0.005  0.000  0.065  0.069
   23  0.000  0.000  0.018  0.018
   24  0.016  0.000  0.020  0.036
   25  0.008  0.000  0.009  0.017
   26  0.002  0.000  0.071  0.074
   27  0.004  0.000  0.069  0.072
   28  0.000  0.000  0.004  0.005
   29  0.000  0.000  0.008  0.008
   30  0.002  0.000  0.003  0.005
   31  0.000  0.000  0.008  0.008
   32  0.001  0.001  0.007  0.009
   33  0.002  0.000  0.003  0.005
   34  0.001  0.001  0.007  0.009
   35  0.000  0.000  0.011  0.011
   36  0.000  0.000  0.002  0.002
   37  0.000  0.000  0.000  0.000
tot    0.062  0.008  0.771  0.841
 
band    15 # energy   -5.07281344 # occ.  2.00000000
 
ion      s      p      d    tot
    1  0.000  0.000  0.005  0.005
    2  0.000  0.000  0.008  0.008
    3  0.003  0.000  0.006  0.009
    4  0.000  0.000  0.008  0.008
    5  0.000  0.000  0.009  0.010
    6  0.002  0.000  0.008  0.010
    7  0.003  0.000  0.006  0.009
    8  0.002  0.000  0.008  0.010
    9  0.000  0.000  0.020  0.020
   10  0.000  0.000  0.019  0.019
   11  0.002  0.000  0.018  0.021
   12  0.002  0.000  0.022  0.024
   13  0.002  0.000  0.020  0.023
   14  0.000  0.000  0.046  0.046
   15  0.000  0.000  0.034  0.034
   16  0.002  0.000  0.023  0.025
   17  0.000  0.000  0.033  0.033
   18  0.000  0.000  0.027  0.027
   19  0.006  0.000  0.028  0.035
   20  0.000  0.001  0.008  0.008
   21  0.001  0.000  0.040  0.041
   22  0.012  0.000  0.038  0.049
   23  0.001  0.000  0.043  0.044
   24  0.000  0.000  0.082  0.082
   25  0.000  0.000  0.096  0.096
   26  0.006  0.000  0.033  0.039
   27  0.013  0.000  0.034  0.046
   28  0.000  0.000  0.004  0.005
   29  0.002  0.001  0.004  0.007
   30  0.000  0.000  0.009  0.010
   31  0.002  0.001  0.004  0.006
   32  0.001  0.000  0.004  0.005
   33  0.000  0.000  0.009  0.010
   34  0.001  0.000  0.005  0.006
   35  0.000  0.000  0.011  0.011
   36  0.000  0.000  0.002  0.002
   37  0.000  0.000  0.000  0.000
tot    0.062  0.008  0.771  0.841
 
band    16 # energy   -5.06708088 # occ.  2.00000000
 
ion      s      p      d    tot
    1  0.003  0.000  0.014  0.017
    2  0.004  0.000  0.013  0.017
    3  0.004  0.000  0.013  0.017
    4  0.004  0.000  0.013  0.017
    5  0.004  0.000  0.009  0.013
    6  0.004  0.000  0.013  0.017
    7  0.004  0.000  0.013  0.017
    8  0.004  0.000  0.013  0.017
    9  0.005  0.000  0.015  0.020
   10  0.003  0.000  0.007  0.010
   11  0.001  0.000  0.005  0.006
   12  0.003  0.000  0.007  0.010
   13  0.001  0.000  0.005  0.006
   14  0.001  0.000  0.005  0.006
   15  0.001  0.000  0.008  0.009
   16  0.003  0.000  0.007  0.010
   17  0.001  0.000  0.008  0.009
   18  0.001  0.000  0.008  0.009
   19  0.001  0.001  0.013  0.015
   20  0.001  0.001  0.018  0.020
   21  0.001  0.001  0.017  0.020
   22  0.001  0.001  0.022  0.024
   23  0.001  0.001  0.017  0.020
   24  0.001  0.001  0.022  0.024
   25  0.001  0.001  0.013  0.015
   26  0.001  0.001  0.013  0.015
   27  0.001  0.001  0.022  0.024
   28  0.015  0.000  0.028  0.043
   29  0.014  0.000  0.028  0.043
   30  0.014  0.000  0.028  0.043
   31  0.014  0.000  0.028  0.043
   32  0.015  0.000  0.028  0.043
   33  0.014  0.000  0.028  0.043
   34  0.015  0.000  0.028  0.043
   35  0.017  0.000  0.035  0.052
   36  0.012  0.000  0.006  0.018
   37  0.000  0.000  0.000  0.000
tot    0.191  0.008  0.571  0.771
 
band    17 # energy   -4.93201341 # occ.  2.00000000
 
ion      s      p      d    tot
    1  0.000  0.000  0.001  0.001
    2  0.000  0.000  0.006  0.006
    3  0.000  0.000  0.006  0.006
    4  0.000  0.000  0.006  0.006
    5  0.001  0.001  0.015  0.016
    6  0.000  0.000  0.006  0.006
    7  0.000  0.000  0.006  0.006
    8  0.000  0.000  0.006  0.006
    9  0.002  0.001  0.004  0.007
   10  0.000  0.000  0.016  0.016
   11  0.000  0.001  0.082  0.083
   12  0.000  0.000  0.015  0.016
   13  0.000  0.001  0.082  0.083
   14  0.000  0.001  0.082  0.083
   15  0.000  0.000  0.030  0.031
   16  0.000  0.000  0.015  0.016
   17  0.000  0.000  0.030  0.031
   18  0.000  0.000  0.030  0.031
   19  0.000  0.000  0.027  0.027
   20  0.002  0.000  0.064  0.066
   21  0.002  0.000  0.064  0.066
   22  0.002  0.000  0.016  0.018
   23  0.002  0.000  0.064  0.066
   24  0.002  0.000  0.016  0.018
   25  0.000  0.000  0.027  0.027
   26  0.000  0.000  0.027  0.027
   27  0.002  0.000  0.016  0.018
   28  0.005  0.001  0.001  0.007
   29  0.000  0.000  0.010  0.010
   30  0.000  0.000  0.010  0.010
   31  0.000  0.000  0.010  0.010
   32  0.000  0.000  0.010  0.010
   33  0.000  0.000  0.010  0.010
   34  0.000  0.000  0.010  0.010
   35  0.002  0.001  0.000  0.003
   36  0.000  0.000  0.005  0.005
   37  0.000  0.000  0.000  0.001
tot    0.026  0.014  0.824  0.864
 
band    18 # energy   -4.92123982 # occ.  2.00000000
 
ion      s      p      d    tot
    1  0.000  0.000  0.001  0.001
    2  0.002  0.001  0.007  0.009
    3  0.000  0.000  0.010  0.010
    4  0.002  0.001  0.007  0.010
    5  0.000  0.001  0.018  0.019
    6  0.001  0.000  0.006  0.008
    7  0.000  0.000  0.010  0.010
    8  0.001  0.000  0.006  0.007
    9  0.000  0.000  0.010  0.010
   10  0.000  0.001  0.024  0.025
   11  0.001  0.000  0.079  0.080
   12  0.000  0.000  0.030  0.031
   13  0.001  0.000  0.080  0.081
   14  0.003  0.000  0.047  0.049
   15  0.001  0.000  0.015  0.016
   16  0.000  0.000  0.030  0.030
   17  0.001  0.000  0.014  0.014
   18  0.002  0.001  0.037  0.040
   19  0.001  0.000  0.015  0.016
   20  0.002  0.000  0.047  0.050
   21  0.001  0.000  0.083  0.084
   22  0.000  0.000  0.027  0.028
   23  0.001  0.000  0.081  0.082
   24  0.000  0.001  0.020  0.021
   25  0.002  0.001  0.035  0.038
   26  0.000  0.000  0.014  0.015
   27  0.000  0.000  0.027  0.027
   28  0.000  0.000  0.008  0.009
   29  0.001  0.000  0.004  0.005
   30  0.000  0.000  0.007  0.007
   31  0.001  0.000  0.004  0.005
   32  0.001  0.001  0.006  0.008
   33  0.000  0.000  0.007  0.007
   34  0.001  0.001  0.006  0.008
   35  0.000  0.000  0.000  0.000
   36  0.000  0.001  0.004  0.006
   37  0.000  0.000  0.000  0.000
tot    0.023  0.015  0.827  0.866
 
band    19 # energy   -4.92122798 # occ.  2.00000000
 
ion      s      p      d    tot
    1  0.000  0.000  0.001  0.001
    2  0.000  0.000  0.008  0.009
    3  0.002  0.001  0.006  0.008
    4  0.000  0.000  0.008  0.009
    5  0.000  0.001  0.018  0.019
    6  0.001  0.001  0.009  0.011
    7  0.002  0.001  0.005  0.008
    8  0.001  0.001  0.010  0.011
    9  0.000  0.000  0.010  0.010
   10  0.000  0.000  0.032  0.033
   11  0.002  0.000  0.059  0.061
   12  0.000  0.001  0.026  0.026
   13  0.002  0.000  0.057  0.059
   14  0.000  0.000  0.090  0.091
   15  0.002  0.001  0.029  0.031
   16  0.000  0.001  0.026  0.027
   17  0.002  0.001  0.030  0.032
   18  0.000  0.000  0.007  0.007
   19  0.001  0.001  0.027  0.030
   20  0.000  0.000  0.094  0.094
   21  0.002  0.000  0.058  0.060
   22  0.000  0.001  0.022  0.023
   23  0.002  0.000  0.060  0.062
   24  0.000  0.000  0.030  0.030
   25  0.000  0.000  0.008  0.008
   26  0.002  0.001  0.029  0.031
   27  0.000  0.001  0.022  0.023
   28  0.000  0.000  0.008  0.009
   29  0.001  0.000  0.007  0.008
   30  0.001  0.001  0.004  0.006
   31  0.001  0.000  0.007  0.008
   32  0.000  0.000  0.005  0.006
   33  0.001  0.001  0.004  0.006
   34  0.000  0.000  0.005  0.006
   35  0.000  0.000  0.000  0.000
   36  0.000  0.001  0.004  0.006
   37  0.000  0.000  0.000  0.000
tot    0.023  0.015  0.827  0.866
 
band    20 # energy   -4.90894075 # occ.  2.00000000
 
ion      s      p      d    tot
    1  0.001  0.001  0.007  0.009
    2  0.000  0.000  0.011  0.012
    3  0.000  0.000  0.011  0.012
    4  0.000  0.000  0.011  0.012
    5  0.004  0.001  0.000  0.004
    6  0.000  0.000  0.011  0.012
    7  0.000  0.000  0.011  0.012
    8  0.000  0.000  0.011  0.012
    9  0.000  0.000  0.006  0.006
   10  0.001  0.001  0.059  0.060
   11  0.000  0.000  0.015  0.016
   12  0.001  0.001  0.059  0.061
   13  0.000  0.000  0.015  0.016
   14  0.000  0.000  0.015  0.016
   15  0.002  0.000  0.038  0.041
   16  0.001  0.001  0.059  0.061
   17  0.002  0.000  0.038  0.041
   18  0.002  0.000  0.038  0.041
   19  0.002  0.000  0.043  0.045
   20  0.000  0.000  0.017  0.018
   21  0.000  0.000  0.018  0.018
   22  0.001  0.001  0.045  0.047
   23  0.000  0.000  0.018  0.018
   24  0.001  0.001  0.045  0.047
   25  0.002  0.000  0.043  0.046
   26  0.002  0.000  0.043  0.045
   27  0.001  0.001  0.045  0.047
   28  0.001  0.000  0.010  0.011
   29  0.000  0.000  0.009  0.010
   30  0.000  0.000  0.009  0.010
   31  0.000  0.000  0.009  0.010
   32  0.000  0.000  0.009  0.010
   33  0.000  0.000  0.009  0.010
   34  0.000  0.000  0.009  0.010
   35  0.002  0.000  0.004  0.006
   36  0.003  0.001  0.000  0.004
   37  0.000  0.000  0.000  0.000
tot    0.033  0.017  0.806  0.856
 
band    21 # energy   -4.90488927 # occ.  2.00000000
 
ion      s      p      d    tot
    1  0.000  0.001  0.018  0.019
    2  0.002  0.001  0.006  0.009
    3  0.000  0.000  0.011  0.012
    4  0.002  0.001  0.007  0.009
    5  0.000  0.000  0.002  0.002
    6  0.001  0.000  0.006  0.007
    7  0.000  0.000  0.011  0.012
    8  0.001  0.000  0.005  0.006
    9  0.000  0.000  0.007  0.007
   10  0.000  0.000  0.057  0.057
   11  0.000  0.001  0.023  0.024
   12  0.002  0.000  0.057  0.059
   13  0.000  0.001  0.025  0.026
   14  0.000  0.000  0.003  0.003
   15  0.000  0.000  0.040  0.041
   16  0.002  0.000  0.057  0.059
   17  0.000  0.000  0.037  0.038
   18  0.000  0.000  0.081  0.081
   19  0.001  0.000  0.037  0.038
   20  0.000  0.000  0.001  0.001
   21  0.001  0.001  0.028  0.030
   22  0.002  0.000  0.040  0.043
   23  0.001  0.001  0.026  0.028
   24  0.000  0.000  0.042  0.042
   25  0.000  0.000  0.070  0.070
   26  0.001  0.000  0.035  0.036
   27  0.002  0.000  0.041  0.043
   28  0.000  0.000  0.008  0.008
   29  0.001  0.000  0.004  0.005
   30  0.000  0.000  0.008  0.008
   31  0.001  0.000  0.004  0.005
   32  0.001  0.001  0.006  0.007
   33  0.000  0.000  0.007  0.008
   34  0.001  0.001  0.005  0.007
   35  0.000  0.001  0.015  0.015
   36  0.000  0.000  0.001  0.001