 vasp.6.2.0 18Jan21 (build Jun 12 2021 23:27:24) complex                        
  
 executed on             LinuxIFC date 2022.05.26  19:46:26
 running on   28 total cores
 distrk:  each k-point on   28 cores,    1 groups
 distr:  one band on NCORE=   1 cores,   28 groups


--------------------------------------------------------------------------------------------------------


 INCAR:
   ISMEAR = -5
   SIGMA = 0.1
   ISPIN = 1
   EDIFF = 1.d-5
   EDIFFG = -0.01
   NSW = 0
   NELM = 150
   ENCUT = 500
   ISIF = 2
   IBRION = 2
   LREAL = Auto
   ALGO = Fast
   ICHARG = 11
   LORBIT = 10
   LCHARG = .F.
   LWAVE = .F.

 POTCAR:    PAW_PBE Ag 02Apr2005                  
 POTCAR:    PAW_PBE Nb_sv 25May2007               
 POTCAR:    PAW_PBE N 08Apr2002                   
 -----------------------------------------------------------------------------
|                                                                             |
|           W    W    AA    RRRRR   N    N  II  N    N   GGGG   !!!           |
|           W    W   A  A   R    R  NN   N  II  NN   N  G    G  !!!           |
|           W    W  A    A  R    R  N N  N  II  N N  N  G       !!!           |
|           W WW W  AAAAAA  RRRRR   N  N N  II  N  N N  G  GGG   !            |
|           WW  WW  A    A  R   R   N   NN  II  N   NN  G    G                |
|           W    W  A    A  R    R  N    N  II  N    N   GGGG   !!!           |
|                                                                             |
|     For optimal performance we recommend to set                             |
|       NCORE = 2 up to number-of-cores-per-socket                            |
|     NCORE specifies how many cores store one orbital (NPAR=cpu/NCORE).      |
|     This setting can greatly improve the performance of VASP for DFT.       |
|     The default, NCORE=1 might be grossly inefficient on modern             |
|     multi-core architectures or massively parallel machines. Do your        |
|     own testing! More info at https://www.vasp.at/wiki/index.php/NCORE      |
|     Unfortunately you need to use the default for GW and RPA                |
|     calculations (for HF NCORE is supported but not extensively tested      |
|     yet).                                                                   |
|                                                                             |
 -----------------------------------------------------------------------------

 POTCAR:    PAW_PBE Ag 02Apr2005                  
   VRHFIN =Ag : s1 d10                                                                              
   LEXCH  = PE                                                                                      
   EATOM  =  1037.2675 eV,   76.2370 Ry                                                             
                                                                                                    
   TITEL  = PAW_PBE Ag 02Apr2005                                                                    
   LULTRA =        F    use ultrasoft PP ?                                                          
   IUNSCR =        1    unscreen: 0-lin 1-nonlin 2-no                                               
   RPACOR =    2.000    partial core radius                                                         
   POMASS =  107.868; ZVAL   =   11.000    mass and valenz                                          
   RCORE  =    2.500    outmost cutoff radius                                                       
   RWIGS  =    2.840; RWIGS  =    1.503    wigner-seitz radius (au A)                               
   ENMAX  =  249.844; ENMIN  =  187.383 eV                                                          
   ICORE  =        3    local potential                                                             
   LCOR   =        T    correct aug charges                                                         
   LPAW   =        T    paw PP                                                                      
   EAUG   =  412.496                                                                                
   DEXC   =    0.000                                                                                
   RMAX   =    2.560    core radius for proj-oper                                                   
   RAUG   =    1.300    factor for augmentation sphere                                              
   RDEP   =    2.576    radius for radial grids                                                     
   RDEPT  =    2.072    core radius for aug-charge                                                  
                                                                                                    
   Atomic configuration                                                                             
   12 entries                                                                                       
     n  l   j            E        occ.                                                              
     1  0  0.50    -25324.9161   2.0000                                                             
     2  0  0.50     -3728.5341   2.0000                                                             
     2  1  1.50     -3344.0404   6.0000                                                             
     3  0  0.50      -683.5581   2.0000                                                             
     3  1  1.50      -557.3225   6.0000                                                             
     3  2  2.50      -358.3853  10.0000                                                             
     4  0  0.50       -95.0341   2.0000                                                             
     4  1  1.50       -58.5511   6.0000                                                             
     4  2  2.50        -7.4440  10.0000                                                             
     5  0  0.50        -4.4045   1.0000                                                             
     5  1  0.50        -1.3606   0.0000                                                             
     4  3  2.50        -1.3606   0.0000                                                             
   Description                                                                                      
     l       E           TYP  RCUT    TYP  RCUT                                                     
     2     -7.4439781     23  2.400                                                                 
     2     -8.8045607     23  2.400                                                                 
     0     -4.4044681     23  2.400                                                                 
     0      1.9520038     23  2.400                                                                 
     1     -1.3605826     23  2.500                                                                 
     1     27.2116520     23  2.500                                                                 
     3     -4.0817478     23  2.400                                                                 
  local pseudopotential read in
  partial core-charges read in
  partial kinetic energy density read in
  atomic valenz-charges read in
  non local Contribution for L=           2  read in
    real space projection operators read in
  non local Contribution for L=           2  read in
    real space projection operators read in
  non local Contribution for L=           0  read in
    real space projection operators read in
  non local Contribution for L=           0  read in
    real space projection operators read in
  non local Contribution for L=           1  read in
    real space projection operators read in
  non local Contribution for L=           1  read in
    real space projection operators read in
    PAW grid and wavefunctions read in
 
   number of l-projection  operators is LMAX  =           6
   number of lm-projection operators is LMMAX =          18
 
 POTCAR:    PAW_PBE Nb_sv 25May2007               
   VRHFIN =Nb: 4p5s4d                                                                               
   LEXCH  = PE                                                                                      
   EATOM  =  1555.1913 eV,  114.3033 Ry                                                             
                                                                                                    
   TITEL  = PAW_PBE Nb_sv 25May2007                                                                 
   LULTRA =        F    use ultrasoft PP ?                                                          
   IUNSCR =        1    unscreen: 0-lin 1-nonlin 2-no                                               
   RPACOR =    1.800    partial core radius                                                         
   POMASS =   92.910; ZVAL   =   13.000    mass and valenz                                          
   RCORE  =    2.400    outmost cutoff radius                                                       
   RWIGS  =    2.400; RWIGS  =    1.270    wigner-seitz radius (au A)                               
   ENMAX  =  293.235; ENMIN  =  219.927 eV                                                          
   ICORE  =        3    local potential                                                             
   LCOR   =        T    correct aug charges                                                         
   LPAW   =        T    paw PP                                                                      
   EAUG   =  455.659                                                                                
   DEXC   =    0.000                                                                                
   RMAX   =    2.456    core radius for proj-oper                                                   
   RAUG   =    1.300    factor for augmentation sphere                                              
   RDEP   =    2.451    radius for radial grids                                                     
   RDEPT  =    1.956    core radius for aug-charge                                                  
                                                                                                    
   Atomic configuration                                                                             
   11 entries                                                                                       
     n  l   j            E        occ.                                                              
     1  0  0.50    -18805.2457   2.0000                                                             
     2  0  0.50     -2630.2869   2.0000                                                             
     2  1  1.50     -2348.4046   6.0000                                                             
     3  0  0.50      -438.8757   2.0000                                                             
     3  1  1.50      -346.7588   6.0000                                                             
     3  2  2.50      -196.2560  10.0000                                                             
     4  0  0.50       -58.3859   2.0000                                                             
     5  0  0.50        -3.9816   1.0000                                                             
     4  1  1.50       -34.5141   6.0000                                                             
     4  2  2.50        -3.0408   4.0000                                                             
     4  3  2.50        -1.3606   0.0000                                                             
   Description                                                                                      
     l       E           TYP  RCUT    TYP  RCUT                                                     
     0    -58.3859094     23  2.200                                                                 
     0     -3.9816262     23  2.200                                                                 
     1    -34.5140738     23  2.200                                                                 
     1     13.6058260     23  2.200                                                                 
     2     -3.0408010     23  2.200                                                                 
     2     -0.1283038     23  2.200                                                                 
     3     -1.3605826     23  2.400                                                                 
  local pseudopotential read in
  partial core-charges read in
  partial kinetic energy density read in
  atomic valenz-charges read in
  non local Contribution for L=           0  read in
    real space projection operators read in
  non local Contribution for L=           0  read in
    real space projection operators read in
  non local Contribution for L=           1  read in
    real space projection operators read in
  non local Contribution for L=           1  read in
    real space projection operators read in
  non local Contribution for L=           2  read in
    real space projection operators read in
  non local Contribution for L=           2  read in
    real space projection operators read in
    PAW grid and wavefunctions read in
 
   number of l-projection  operators is LMAX  =           6
   number of lm-projection operators is LMMAX =          18
 
 POTCAR:    PAW_PBE N 08Apr2002                   
   VRHFIN =N: s2p3                                                                                  
   LEXCH  = PE                                                                                      
   EATOM  =   264.5486 eV,   19.4438 Ry                                                             
                                                                                                    
   TITEL  = PAW_PBE N 08Apr2002                                                                     
   LULTRA =        F    use ultrasoft PP ?                                                          
   IUNSCR =        1    unscreen: 0-lin 1-nonlin 2-no                                               
   RPACOR =    1.200    partial core radius                                                         
   POMASS =   14.001; ZVAL   =    5.000    mass and valenz                                          
   RCORE  =    1.500    outmost cutoff radius                                                       
   RWIGS  =    1.400; RWIGS  =    0.741    wigner-seitz radius (au A)                               
   ENMAX  =  400.000; ENMIN  =  300.000 eV                                                          
   ICORE  =        2    local potential                                                             
   LCOR   =        T    correct aug charges                                                         
   LPAW   =        T    paw PP                                                                      
   EAUG   =  627.112                                                                                
   DEXC   =    0.000                                                                                
   RMAX   =    1.529    core radius for proj-oper                                                   
   RAUG   =    1.300    factor for augmentation sphere                                              
   RDEP   =    1.514    radius for radial grids                                                     
   RDEPT  =    1.338    core radius for aug-charge                                                  
                                                                                                    
   Atomic configuration                                                                             
    4 entries                                                                                       
     n  l   j            E        occ.                                                              
     1  0  0.50      -384.7179   2.0000                                                             
     2  0  0.50       -18.5828   2.0000                                                             
     2  1  0.50        -7.0898   3.0000                                                             
     3  2  1.50        -6.8029   0.0000                                                             
   Description                                                                                      
     l       E           TYP  RCUT    TYP  RCUT                                                     
     0    -18.5828119     23  1.200                                                                 
     0    -13.5018863     23  1.200                                                                 
     1     -7.0897853     23  1.500                                                                 
     1      9.5240782     23  1.500                                                                 
     2     -6.8029130      7  1.500                                                                 
  local pseudopotential read in
  partial core-charges read in
  partial kinetic energy density read in
  atomic valenz-charges read in
  non local Contribution for L=           0  read in
    real space projection operators read in
  non local Contribution for L=           0  read in
    real space projection operators read in
  non local Contribution for L=           1  read in
    real space projection operators read in
  non local Contribution for L=           1  read in
    real space projection operators read in
    PAW grid and wavefunctions read in
 
   number of l-projection  operators is LMAX  =           4
   number of lm-projection operators is LMMAX =           8
 
 Optimization of the real space projectors (new method)

 maximal supplied QI-value         = 15.12
 optimisation between [QCUT,QGAM] = [ 11.34, 22.83] = [ 36.00,145.93] Ry 
 Optimized for a Real-space Cutoff    1.43 Angstroem

   l    n(q)    QCUT    max X(q) W(low)/X(q) W(high)/X(q)  e(spline) 
   2      9    11.338    53.897    0.16E-03    0.20E-03    0.28E-06
   2      9    11.338    52.416    0.16E-03    0.20E-03    0.29E-06
   0     10    11.338   122.045    0.31E-04    0.76E-04    0.15E-06
   0     10    11.338    73.629    0.30E-04    0.72E-04    0.15E-06
   1      9    11.338    15.255    0.20E-03    0.19E-04    0.17E-06
   1      9    11.338     9.562    0.16E-03    0.15E-04    0.14E-06
 Optimization of the real space projectors (new method)

 maximal supplied QI-value         = 15.68
 optimisation between [QCUT,QGAM] = [ 11.45, 22.90] = [ 36.71,146.85] Ry 
 Optimized for a Real-space Cutoff    1.56 Angstroem

   l    n(q)    QCUT    max X(q) W(low)/X(q) W(high)/X(q)  e(spline) 
   0     11    11.450    10.201    0.21E-04    0.96E-05    0.78E-07
   0     11    11.450     8.174    0.31E-04    0.18E-04    0.14E-06
   1     10    11.450     3.488    0.27E-04    0.12E-04    0.96E-07
   1     10    11.450     4.917    0.11E-03    0.11E-03    0.37E-06
   2     10    11.450   153.744    0.37E-03    0.81E-03    0.10E-05
   2     10    11.450   126.342    0.37E-03    0.81E-03    0.10E-05
 Optimization of the real space projectors (new method)

 maximal supplied QI-value         = 25.13
 optimisation between [QCUT,QGAM] = [ 11.31, 22.87] = [ 35.82,146.48] Ry 
 Optimized for a Real-space Cutoff    1.27 Angstroem

   l    n(q)    QCUT    max X(q) W(low)/X(q) W(high)/X(q)  e(spline) 
   0      9    11.310    79.467    0.75E-04    0.16E-03    0.36E-06
   0      9    11.310    66.151    0.74E-04    0.16E-03    0.36E-06
   1      8    11.310    17.416    0.35E-03    0.12E-03    0.95E-06
   1      8    11.310    12.382    0.37E-03    0.13E-03    0.98E-06
  PAW_PBE Ag 02Apr2005                  :
 energy of atom  1       EATOM=-1037.2675
 kinetic energy error for atom=    0.0052 (will be added to EATOM!!)
  PAW_PBE Nb_sv 25May2007               :
 energy of atom  2       EATOM=-1555.1913
 kinetic energy error for atom=    0.0069 (will be added to EATOM!!)
  PAW_PBE N 08Apr2002                   :
 energy of atom  3       EATOM= -264.5486
 kinetic energy error for atom=    0.0138 (will be added to EATOM!!)
 
 
 POSCAR: Ag-Nb-N
  positions in direct lattice
  velocities in cartesian coordinates
 exchange correlation table for  LEXCH =        8
   RHO(1)=    0.500       N(1)  =     2000
   RHO(2)=  100.500       N(2)  =     4000

 VTST: version 3.2, (02/03/18)

 CHAIN: initializing optimizer
 
 OPT: Using VASP Conjugate-Gradient optimizer
 CHAIN: Read ICHAIN            0
 
 POSCAR: Ag-Nb-N
  positions in direct lattice
  velocities in cartesian coordinates
 


--------------------------------------------------------------------------------------------------------


 ion  position               nearest neighbor table
   1  0.000  0.000  0.238-   2 2.93   8 2.93   7 2.93   6 2.93   4 2.93  12 2.93  16 2.93  10 2.93
                             3 2.93
   2  0.333  0.000  0.238-   1 2.93   8 2.93   9 2.93   3 2.93   4 2.93   5 2.93  10 2.93  17 2.93
                            11 2.93
   3  0.667  0.000  0.238-   9 2.93   2 2.93   5 2.93  11 2.93   7 2.93  18 2.93   1 2.93   6 2.93
                            12 2.93
   4  0.000  0.333  0.238-   5 2.93   6 2.93   2 2.93   1 2.93   7 2.93  13 2.93  15 2.93   9 2.93
                            10 2.93
   5  0.333  0.333  0.238-   4 2.93   3 2.93   7 2.93   2 2.93   8 2.93  14 2.93  13 2.93  11 2.93
                             6 2.93
   6  0.667  0.333  0.238-   4 2.93   9 2.93   1 2.93  15 2.93   8 2.93  12 2.93   3 2.93   5 2.93
                            14 2.93
   7  0.000  0.667  0.238-   8 2.93   1 2.93   5 2.93   3 2.93   4 2.93  16 2.93  18 2.93  13 2.93
                             9 2.93
   8  0.333  0.667  0.238-   7 2.93   1 2.93   2 2.93   9 2.93   5 2.93  16 2.93   6 2.93  17 2.93
                            14 2.93
   9  0.667  0.667  0.238-   3 2.93   2 2.93   8 2.93   6 2.93  17 2.93   4 2.93  15 2.93   7 2.93
                            18 2.93
  10  0.111  0.111  0.346-  20 2.90  19 2.93  26 2.93  12 2.93  16 2.93  15 2.93  17 2.93  13 2.93
                            11 2.93   2 2.93   1 2.93   4 2.93
  11  0.444  0.111  0.346-  21 2.90  20 2.90  14 2.93  17 2.93  18 2.93   3 2.93  12 2.93  13 2.93
                            10 2.93   5 2.93   2 2.93  27 2.93
  12  0.778  0.111  0.346-  21 2.90  25 2.93  19 2.93  10 2.93  16 2.93  18 2.93  15 2.93  11 2.93
                             1 2.93  14 2.93   6 2.93   3 2.93
  13  0.111  0.444  0.346-  20 2.90  23 2.90  15 2.93  14 2.93  18 2.93  10 2.93  11 2.93  16 2.93
                             4 2.93   5 2.93   7 2.93  22 2.93
  14  0.444  0.444  0.346-  23 2.90  21 2.90  13 2.93  11 2.93  16 2.93   5 2.93  12 2.93  17 2.93
                             8 2.93  15 2.93   6 2.93  24 2.93
  15  0.778  0.444  0.346-  19 2.93  13 2.93  10 2.93  12 2.93  17 2.93  18 2.93   4 2.93   6 2.93
                             9 2.93  14 2.93  24 2.93  22 2.93
  16  0.111  0.778  0.346-  23 2.90  26 2.93  25 2.93  18 2.93  12 2.93  10 2.93  14 2.93  17 2.93
                            13 2.93   7 2.93   8 2.93   1 2.93
  17  0.444  0.778  0.346-  26 2.93  11 2.93  10 2.93   9 2.93  18 2.93  15 2.93  16 2.93   2 2.93
                            14 2.93   8 2.93  27 2.93  24 2.93
  18  0.778  0.778  0.346-  25 2.93  16 2.93  12 2.93  13 2.93  11 2.93  17 2.93  15 2.93   7 2.93
                             3 2.93   9 2.93  22 2.93  27 2.93
  19  0.889  0.222  0.454-  15 2.93  10 2.93  12 2.93  20 2.93  21 2.93  28 2.93  24 2.93  22 2.93
                            26 2.93  25 2.93  32 2.97  31 2.97
  20  0.222  0.222  0.452-  36 2.82  10 2.90  13 2.90  11 2.90  19 2.93  26 2.93  27 2.93  22 2.93
                            21 2.94  23 2.94  31 2.97  29 2.97
  21  0.556  0.222  0.452-  36 2.82  12 2.90  11 2.90  14 2.90  25 2.93  19 2.93  27 2.93  24 2.93
                            20 2.94  23 2.94  30 2.97  32 2.97
  22  0.889  0.556  0.454-  24 2.93  27 2.93  25 2.93  19 2.93  18 2.93  15 2.93  23 2.93  20 2.93
                            35 2.93  13 2.93  33 2.95  31 2.95
  23  0.222  0.556  0.452-  36 2.82  16 2.90  14 2.90  13 2.90  26 2.93  25 2.93  22 2.93  24 2.93
                            21 2.94  20 2.94  34 2.97  33 2.97
  24  0.556  0.556  0.454-  27 2.93  22 2.93  19 2.93  26 2.93  15 2.93  17 2.93  23 2.93  21 2.93
                            35 2.93  14 2.93  32 2.95  34 2.95
  25  0.889  0.889  0.454-  18 2.93  16 2.93  12 2.93  23 2.93  21 2.93  28 2.93  22 2.93  27 2.93
                            26 2.93  19 2.93  33 2.97  30 2.97
  26  0.222  0.889  0.454-  17 2.93  16 2.93  10 2.93  23 2.93  20 2.93  28 2.93  27 2.93  24 2.93
                            25 2.93  19 2.93  34 2.97  29 2.97
  27  0.556  0.889  0.454-  24 2.93  22 2.93  26 2.93  25 2.93  17 2.93  18 2.93  20 2.93  21 2.93
                            35 2.93  11 2.93  29 2.95  30 2.95
  28  0.000  0.000  0.561-  26 2.93  25 2.93  19 2.93  29 2.95  34 2.95  33 2.95  32 2.95  31 2.95
                            30 2.95
  29  0.333  0.004  0.563-  30 2.90  31 2.90  36 2.91  35 2.95  28 2.95  27 2.95  20 2.97  26 2.97
                            34 2.99
  30  0.663  0.004  0.563-  29 2.90  32 2.90  36 2.91  35 2.95  28 2.95  27 2.95  21 2.97  25 2.97
                            33 2.99
  31  0.004  0.333  0.563-  33 2.90  29 2.90  36 2.91  35 2.95  28 2.95  22 2.95  20 2.97  19 2.97
                            32 2.99
  32  0.663  0.333  0.563-  34 2.90  30 2.90  36 2.91  35 2.95  28 2.95  24 2.95  21 2.97  19 2.97
                            31 2.99
  33  0.004  0.663  0.563-  31 2.90  34 2.90  36 2.91  35 2.95  28 2.95  22 2.95  23 2.97  25 2.97
                            30 2.99
  34  0.333  0.663  0.563-  32 2.90  33 2.90  36 2.91  35 2.95  28 2.95  24 2.95  23 2.97  26 2.97
                            29 2.99
  35  0.667  0.667  0.562-  24 2.93  27 2.93  22 2.93  30 2.95  29 2.95  32 2.95  34 2.95  31 2.95
                            33 2.95
  36  0.333  0.333  0.554-  37 1.71  21 2.82  20 2.82  23 2.82  31 2.91  33 2.91  30 2.91  29 2.91
                            34 2.91  32 2.91
  37  0.333  0.333  0.631-  36 1.71
 
  LATTYP: Found a hexagonal cell.
 ALAT       =     8.7913665772
 C/A-ratio  =     2.5227160501
  
  Lattice vectors:
  
 A1 = (  -4.3956832886,  -7.6135467898,   0.0000000000)
 A2 = (   8.7913665771,   0.0000000000,   0.0000000000)
 A3 = (   0.0000000000,   0.0000000000,  22.1781215668)


Analysis of symmetry for initial positions (statically):
=====================================================================
 Subroutine PRICEL returns:
 Original cell was already a primitive cell.
 

 Routine SETGRP: Setting up the symmetry group for a 
 hexagonal supercell.


 Subroutine GETGRP returns: Found  6 space group operations
 (whereof  6 operations were pure point group operations)
 out of a pool of 24 trial point group operations.


The static configuration has the point symmetry C_3v.


Analysis of symmetry for dynamics (positions and initial velocities):
=====================================================================
 Subroutine PRICEL returns:
 Original cell was already a primitive cell.
 

 Routine SETGRP: Setting up the symmetry group for a 
 hexagonal supercell.


 Subroutine GETGRP returns: Found  6 space group operations
 (whereof  6 operations were pure point group operations)
 out of a pool of 24 trial point group operations.


The dynamic configuration has the point symmetry C_3v.


Analysis of constrained symmetry for selective dynamics:
=====================================================================
 Subroutine PRICEL returns:
 Original cell was already a primitive cell.
 

 Routine SETGRP: Setting up the symmetry group for a 
 hexagonal supercell.


 Subroutine GETGRP returns: Found  6 space group operations
 (whereof  6 operations were pure point group operations)
 out of a pool of 24 trial point group operations.


The constrained configuration has the point symmetry C_3v.


 Subroutine INISYM returns: Found  6 space group operations
 (whereof  6 operations are pure point group operations),
 and found     1 'primitive' translations


----------------------------------------------------------------------------------------

                                     Primitive cell                                     

  volume of cell :    1484.4589

  direct lattice vectors                    reciprocal lattice vectors
     8.791366577  0.000000000  0.000000000     0.113747958 -0.065672414  0.000000000
     4.395683289  7.613546790  0.000000000     0.000000000  0.131344829  0.000000000
     0.000000000  0.000000000 22.178121567     0.000000000  0.000000000  0.045089481

  length of vectors
     8.791366577  8.791366577 22.178121567     0.131344829  0.131344829  0.045089481

  position of ions in fractional coordinates (direct lattice)
     0.000000000  0.000000000  0.238171124
     0.333333313  0.000000000  0.238171124
     0.666666627  0.000000000  0.238171124
     0.000000000  0.333333343  0.238171124
     0.333333313  0.333333343  0.238171124
     0.666666687  0.333333343  0.238171124
     0.000000000  0.666666687  0.238171124
     0.333333313  0.666666687  0.238171124
     0.666666627  0.666666687  0.238171124
     0.111111104  0.111111112  0.346057051
     0.444444448  0.111111112  0.346057051
     0.777777791  0.111111112  0.346057051
     0.111111097  0.444444448  0.346057051
     0.444444418  0.444444448  0.346057051
     0.777777791  0.444444448  0.346057051
     0.111111104  0.777777791  0.346057051
     0.444444448  0.777777791  0.346057051
     0.777777791  0.777777791  0.346057051
     0.888874930  0.222250156  0.453660109
     0.222002280  0.222002295  0.452362180
     0.555995379  0.222002295  0.452362180
     0.888584292  0.555707884  0.454052872
     0.222002295  0.555995439  0.452362180
     0.555707884  0.555707884  0.454052872
     0.888874930  0.888874930  0.453660109
     0.222250126  0.888874930  0.453660109
     0.555707824  0.888584292  0.454052872
     0.000000000  0.000000000  0.561470753
     0.333455740  0.003519001  0.563052859
     0.663025199  0.003519001  0.563052859
     0.003519001  0.333455770  0.563052859
     0.663025259  0.333455770  0.563052859
     0.003519001  0.663025259  0.563052859
     0.333455740  0.663025259  0.563052859
     0.666666627  0.666666687  0.562140206
     0.333333313  0.333333343  0.554116375
     0.333333313  0.333333343  0.631396791

  ion indices of the primitive-cell ions
   primitive index   ion index
                 1           1
                 2           2
                 3           3
                 4           4
                 5           5
                 6           6
                 7           7
                 8           8
                 9           9
                10          10
                11          11
                12          12
                13          13
                14          14
                15          15
                16          16
                17          17
                18          18
                19          19
                20          20
                21          21
                22          22
                23          23
                24          24
                25          25
                26          26
                27          27
                28          28
                29          29
                30          30
                31          31
                32          32
                33          33
                34          34
                35          35
                36          36
                37          37

----------------------------------------------------------------------------------------

 
 
 KPOINTS: Automatic mesh                          

Automatic generation of k-mesh.
 Grid dimensions read from file:
 generate k-points for:    8    8    1

 Generating k-lattice:

  Cartesian coordinates                     Fractional coordinates (reciprocal lattice)
     0.014218495 -0.008209052  0.000000000     0.125000000  0.000000000  0.000000000
     0.000000000  0.016418104  0.000000000     0.000000000  0.125000000  0.000000000
     0.000000000  0.000000000  0.045089481     0.000000000  0.000000000  1.000000000

  Length of vectors
     0.016418104  0.016418104  0.045089481

  Shift w.r.t. Gamma in fractional coordinates (k-lattice)
     0.000000000  0.000000000  0.000000000

 TETIRR: Found     36 inequivalent tetrahedra from      384
 
 Subroutine IBZKPT returns following result:
 ===========================================
 
 Found     10 irreducible k-points:
 
 Following reciprocal coordinates:
            Coordinates               Weight
  0.000000  0.000000  0.000000      1.000000
  0.125000 -0.000000  0.000000      6.000000
  0.250000 -0.000000  0.000000      6.000000
  0.375000 -0.000000  0.000000      6.000000
  0.500000 -0.000000  0.000000      3.000000
  0.250000  0.125000  0.000000      6.000000
  0.375000  0.125000  0.000000     12.000000
  0.500000  0.125000  0.000000     12.000000
  0.500000  0.250000  0.000000      6.000000
 -0.375000  0.250000  0.000000      6.000000
 
 Following cartesian coordinates:
            Coordinates               Weight
  0.000000  0.000000  0.000000      1.000000
  0.014218 -0.008209  0.000000      6.000000
  0.028437 -0.016418  0.000000      6.000000
  0.042655 -0.024627  0.000000      6.000000
  0.056874 -0.032836  0.000000      3.000000
  0.028437 -0.000000  0.000000      6.000000
  0.042655 -0.008209  0.000000     12.000000
  0.056874 -0.016418  0.000000     12.000000
  0.056874 -0.000000  0.000000      6.000000
 -0.042655  0.057463  0.000000      6.000000
 


--------------------------------------------------------------------------------------------------------




 Dimension of arrays:
   k-points           NKPTS =     10   k-points in BZ     NKDIM =     10   number of bands    NBANDS=    252
   number of dos      NEDOS =    301   number of ions     NIONS =     37
   non local maximal  LDIM  =      6   non local SUM 2l+1 LMDIM =     18
   total plane-waves  NPLWV = 290304
   max r-space proj   IRMAX =   3185   max aug-charges    IRDMAX=   9814
   dimension x,y,z NGX =    48 NGY =   48 NGZ =  126
   dimension x,y,z NGXF=    96 NGYF=   96 NGZF=  252
   support grid    NGXF=    96 NGYF=   96 NGZF=  252
   ions per type =              35   1   1
   NGX,Y,Z   is equivalent  to a cutoff of   9.08,  9.08,  9.44 a.u.
   NGXF,Y,Z  is equivalent  to a cutoff of  18.15, 18.15, 18.89 a.u.

 SYSTEM =  unknown system                          
 POSCAR =  Ag-Nb-N                                 

 Startparameter for this run:
   NWRITE =      2    write-flag & timer
   PREC   = normal    normal or accurate (medium, high low for compatibility)
   ISTART =      0    job   : 0-new  1-cont  2-samecut
   ICHARG =     11    charge: 1-file 2-atom 10-const
   ISPIN  =      1    spin polarized calculation?
   LNONCOLLINEAR =      F non collinear calculations
   LSORBIT =      F    spin-orbit coupling
   INIWAV =      1    electr: 0-lowe 1-rand  2-diag
   LASPH  =      F    aspherical Exc in radial PAW
   METAGGA=      F    non-selfconsistent MetaGGA calc.

 Electronic Relaxation 1
   ENCUT  =  500.0 eV  36.75 Ry    6.06 a.u.  16.03 16.03 40.44*2*pi/ulx,y,z
   ENINI  =  500.0     initial cutoff
   ENAUG  =  627.1 eV  augmentation charge cutoff
   NELM   =    150;   NELMIN=  2; NELMDL= -5     # of ELM steps 
   EDIFF  = 0.1E-04   stopping-criterion for ELM
   LREAL  =      T    real-space projection
   NLSPLINE    = F    spline interpolate recip. space projectors
   LCOMPAT=      F    compatible to vasp.4.4
   GGA_COMPAT  = T    GGA compatible to vasp.4.4-vasp.4.6
   LMAXPAW     = -100 max onsite density
   LMAXMIX     =    2 max onsite mixed and CHGCAR
   VOSKOWN=      0    Vosko Wilk Nusair interpolation
   ROPT   =   -0.00050  -0.00050  -0.00050
 Ionic relaxation
   EDIFFG = -.1E-01   stopping-criterion for IOM
   NSW    =      0    number of steps for IOM
   NBLOCK =      1;   KBLOCK =      1    inner block; outer block 
   IBRION =     -1    ionic relax: 0-MD 1-quasi-New 2-CG
   NFREE  =      1    steps in history (QN), initial steepest desc. (CG)
   ISIF   =      2    stress and relaxation
   IWAVPR =     10    prediction:  0-non 1-charg 2-wave 3-comb
   ISYM   =      2    0-nonsym 1-usesym 2-fastsym
   LCORR  =      T    Harris-Foulkes like correction to forces

   POTIM  = 0.5000    time-step for ionic-motion
   TEIN   =    0.0    initial temperature
   TEBEG  =    0.0;   TEEND  =   0.0 temperature during run
   SMASS  =  -3.00    Nose mass-parameter (am)
   estimated Nose-frequenzy (Omega)   =  0.10E-29 period in steps = 0.13E+47 mass=  -0.177E-26a.u.
   SCALEE = 1.0000    scale energy and forces
   NPACO  =    256;   APACO  = 16.0  distance and # of slots for P.C.
   PSTRESS=    0.0 pullay stress

  Mass of Ions in am
   POMASS = 107.87 92.91 14.00
  Ionic Valenz
   ZVAL   =  11.00 13.00  5.00
  Atomic Wigner-Seitz radii
   RWIGS  =  -1.00 -1.00 -1.00
  virtual crystal weights 
   VCA    =   1.00  1.00  1.00
   NELECT =     403.0000    total number of electrons
   NUPDOWN=      -1.0000    fix difference up-down

 DOS related values:
   EMIN   =  10.00;   EMAX   =-10.00  energy-range for DOS
   EFERMI =   0.00
   ISMEAR =    -5;   SIGMA  =   0.10  broadening in eV -4-tet -1-fermi 0-gaus

 Electronic relaxation 2 (details)
   IALGO  =     68    algorithm
   LDIAG  =      T    sub-space diagonalisation (order eigenvalues)
   LSUBROT=      F    optimize rotation matrix (better conditioning)
   TURBO    =      0    0=normal 1=particle mesh
   IRESTART =      0    0=no restart 2=restart with 2 vectors
   NREBOOT  =      0    no. of reboots
   NMIN     =      0    reboot dimension
   EREF     =   0.00    reference energy to select bands
   IMIX   =      4    mixing-type and parameters
     AMIX     =   0.40;   BMIX     =  1.00
     AMIX_MAG =   1.60;   BMIX_MAG =  1.00
     AMIN     =   0.10
     WC   =   100.;   INIMIX=   1;  MIXPRE=   1;  MAXMIX= -45

 Intra band minimization:
   WEIMIN = 0.0000     energy-eigenvalue tresh-hold
   EBREAK =  0.99E-08  absolut break condition
   DEPER  =   0.30     relativ break condition  

   TIME   =   0.40     timestep for ELM

  volume/ion in A,a.u.               =      40.12       270.75
  Fermi-wavevector in a.u.,A,eV,Ry     =   1.060036  2.003177 15.288533  1.123676
  Thomas-Fermi vector in A             =   2.195402
 
 Write flags
   LWAVE        =      F    write WAVECAR
   LDOWNSAMPLE  =      F    k-point downsampling of WAVECAR
   LCHARG       =      F    write CHGCAR
   LVTOT        =      F    write LOCPOT, total local potential
   LVHAR        =      F    write LOCPOT, Hartree potential only
   LELF         =      F    write electronic localiz. function (ELF)
   LORBIT       =     10    0 simple, 1 ext, 2 COOP (PROOUT), +10 PAW based schemes


 Dipole corrections
   LMONO  =      F    monopole corrections only (constant potential shift)
   LDIPOL =      F    correct potential (dipole corrections)
   IDIPOL =      0    1-x, 2-y, 3-z, 4-all directions 
   EPSILON=  1.0000000 bulk dielectric constant

 Exchange correlation treatment:
   GGA     =    --    GGA type
   LEXCH   =     8    internal setting for exchange type
   VOSKOWN=      0    Vosko Wilk Nusair interpolation
   LHFCALC =     F    Hartree Fock is set to
   LHFONE  =     F    Hartree Fock one center treatment
   AEXX    =    0.0000 exact exchange contribution

 Linear response parameters
   LEPSILON=     F    determine dielectric tensor
   LRPA    =     F    only Hartree local field effects (RPA)
   LNABLA  =     F    use nabla operator in PAW spheres
   LVEL    =     F    velocity operator in full k-point grid
   LINTERFAST=   F  fast interpolation
   KINTER  =     0    interpolate to denser k-point grid
   CSHIFT  =0.1000    complex shift for real part using Kramers Kronig
   OMEGAMAX=  -1.0    maximum frequency
   DEG_THRESHOLD= 0.2000000E-02 threshold for treating states as degnerate
   RTIME   =   -0.100 relaxation time in fs
  (WPLASMAI=    0.000 imaginary part of plasma frequency in eV, 0.658/RTIME)
   DFIELD  = 0.0000000 0.0000000 0.0000000 field for delta impulse in time
 
 Orbital magnetization related:
   ORBITALMAG=     F  switch on orbital magnetization
   LCHIMAG   =     F  perturbation theory with respect to B field
   DQ        =  0.001000  dq finite difference perturbation B field
   LLRAUG    =     F  two centre corrections for induced B field



--------------------------------------------------------------------------------------------------------


 Static calculation
 charge density and potential remain constant during run
 non-spin polarized calculation
 RMM-DIIS sequential band-by-band and
  variant of blocked Davidson during initial phase
 perform sub-space diagonalisation
    before iterative eigenvector-optimisation
 no mixing
 using additional bands           50
 real space projection scheme for non local part
 use partial core corrections
 calculate Harris-corrections to forces 
   (improved forces if not selfconsistent)
 use gradient corrections 
 WARNING: stress and forces are not correct
  (second derivative of E(xc) not defined)
 use of overlap-Matrix (Vanderbilt PP)
 Fermi weights with tetrahedron method with Bloechl corrections


--------------------------------------------------------------------------------------------------------


  energy-cutoff  :      500.00
  volume of cell :     1484.46
      direct lattice vectors                 reciprocal lattice vectors
     8.791366577  0.000000000  0.000000000     0.113747958 -0.065672414  0.000000000
     4.395683289  7.613546790  0.000000000     0.000000000  0.131344829  0.000000000
     0.000000000  0.000000000 22.178121567     0.000000000  0.000000000  0.045089481

  length of vectors
     8.791366577  8.791366577 22.178121567     0.131344829  0.131344829  0.045089481


 
 k-points in units of 2pi/SCALE and weight: Automatic mesh                          
   0.00000000  0.00000000  0.00000000       0.016
   0.01421849 -0.00820905  0.00000000       0.094
   0.02843699 -0.01641810  0.00000000       0.094
   0.04265548 -0.02462716  0.00000000       0.094
   0.05687398 -0.03283621  0.00000000       0.047
   0.02843699 -0.00000000  0.00000000       0.094
   0.04265548 -0.00820905  0.00000000       0.188
   0.05687398 -0.01641810  0.00000000       0.188
   0.05687398 -0.00000000  0.00000000       0.094
  -0.04265548  0.05746336  0.00000000       0.094
 
 k-points in reciprocal lattice and weights: Automatic mesh                          
   0.00000000  0.00000000  0.00000000       0.016
   0.12500000 -0.00000000  0.00000000       0.094
   0.25000000 -0.00000000  0.00000000       0.094
   0.37500000 -0.00000000  0.00000000       0.094
   0.50000000 -0.00000000  0.00000000       0.047
   0.25000000  0.12500000  0.00000000       0.094
   0.37500000  0.12500000  0.00000000       0.188
   0.50000000  0.12500000  0.00000000       0.188
   0.50000000  0.25000000  0.00000000       0.094
  -0.37500000  0.25000000  0.00000000       0.094
 
 position of ions in fractional coordinates (direct lattice) 
   0.00000000  0.00000000  0.23817112
   0.33333331  0.00000000  0.23817112
   0.66666663  0.00000000  0.23817112
   0.00000000  0.33333334  0.23817112
   0.33333331  0.33333334  0.23817112
   0.66666669  0.33333334  0.23817112
   0.00000000  0.66666669  0.23817112
   0.33333331  0.66666669  0.23817112
   0.66666663  0.66666669  0.23817112
   0.11111110  0.11111111  0.34605705
   0.44444445  0.11111111  0.34605705
   0.77777779  0.11111111  0.34605705
   0.11111110  0.44444445  0.34605705
   0.44444442  0.44444445  0.34605705
   0.77777779  0.44444445  0.34605705
   0.11111110  0.77777779  0.34605705
   0.44444445  0.77777779  0.34605705
   0.77777779  0.77777779  0.34605705
   0.88887493  0.22225016  0.45366011
   0.22200228  0.22200230  0.45236218
   0.55599538  0.22200230  0.45236218
   0.88858429  0.55570788  0.45405287
   0.22200230  0.55599544  0.45236218
   0.55570788  0.55570788  0.45405287
   0.88887493  0.88887493  0.45366011
   0.22225013  0.88887493  0.45366011
   0.55570782  0.88858429  0.45405287
   0.00000000  0.00000000  0.56147075
   0.33345574  0.00351900  0.56305286
   0.66302520  0.00351900  0.56305286
   0.00351900  0.33345577  0.56305286
   0.66302526  0.33345577  0.56305286
   0.00351900  0.66302526  0.56305286
   0.33345574  0.66302526  0.56305286
   0.66666663  0.66666669  0.56214021
   0.33333331  0.33333334  0.55411638
   0.33333331  0.33333334  0.63139679
 
 position of ions in cartesian coordinates  (Angst):
   0.00000000  0.00000000  5.28218814
   2.93045535  0.00000000  5.28218814
   5.86091070  0.00000000  5.28218814
   1.46522781  2.53784900  5.28218814
   4.39568315  2.53784900  5.28218814
   7.32613904  2.53784900  5.28218814
   2.93045562  5.07569801  5.28218814
   5.86091096  5.07569801  5.28218814
   8.79136632  5.07569801  5.28218814
   1.46522770  0.84594965  7.67489535
   4.39568332  0.84594965  7.67489535
   7.32613893  0.84594965  7.67489535
   2.93045542  3.38379860  7.67489535
   5.86091083  3.38379860  7.67489535
   8.79136671  3.38379860  7.67489535
   4.39568328  5.92164760  7.67489535
   7.32613890  5.92164760  7.67489535
  10.25659451  5.92164760  7.67489535
   8.79136665  1.69211196 10.06132904
   2.92755521  1.69022486 10.03254343
   5.86381097  1.69022486 10.03254343
  10.25458610  4.23090798 10.07003980
   4.39568342  4.23309729 10.03254343
   7.32814758  4.23090798 10.07003980
  11.72163802  6.76749087 10.06132904
   5.86109501  6.76749087 10.06132904
   8.79136631  6.76527808 10.07003980
   0.00000000  0.00000000 12.45236662
   2.94700006  0.02679208 12.48745475
   5.84436599  0.02679208 12.48745475
   1.49670278  2.53878110 12.48745475
   7.29466406  2.53878110 12.48745475
   2.94538588  5.04797383 12.48745475
   5.84598070  5.04797383 12.48745475
   8.79136632  5.07569801 12.46721382
   4.39568315  2.53784900 12.28926033
   4.39568315  2.53784900 14.00319478
 


--------------------------------------------------------------------------------------------------------


 k-point   1 :   0.0000 0.0000 0.0000  plane waves:   37683
 k-point   2 :   0.1250-0.0000 0.0000  plane waves:   37658
 k-point   3 :   0.2500-0.0000 0.0000  plane waves:   37682
 k-point   4 :   0.3750-0.0000 0.0000  plane waves:   37686
 k-point   5 :   0.5000-0.0000 0.0000  plane waves:   37668
 k-point   6 :   0.2500 0.1250 0.0000  plane waves:   37666
 k-point   7 :   0.3750 0.1250 0.0000  plane waves:   37708
 k-point   8 :   0.5000 0.1250 0.0000  plane waves:   37726
 k-point   9 :   0.5000 0.2500 0.0000  plane waves:   37706
 k-point  10 :  -0.3750 0.2500 0.0000  plane waves:   37686

 maximum and minimum number of plane-waves per node :     37726    37658

 maximum number of plane-waves:     37726
 maximum index in each direction: 
   IXMAX=   16   IYMAX=   16   IZMAX=   40
   IXMIN=  -16   IYMIN=  -16   IZMIN=  -40


 serial   3D FFT for wavefunctions
 parallel 3D FFT for charge:
    minimum data exchange during FFTs selected (reduces bandwidth)


 total amount of memory used by VASP MPI-rank0   123562. kBytes
=======================================================================

   base      :      30000. kBytes
   nonlr-proj:      15459. kBytes
   fftplans  :       4330. kBytes
   grid      :      17879. kBytes
   one-center:        575. kBytes
   wavefun   :      55319. kBytes
 
     INWAV:  cpu time    0.0000: real time    0.0000
 initial charge density was supplied:
 number of electron     402.9999911 magnetization 
 keeping initial charge density in first step


--------------------------------------------------------------------------------------------------------


 Maximum index for non-local projection operator         3053
 Maximum index for augmentation-charges          706 (set IRDMAX)


--------------------------------------------------------------------------------------------------------


 First call to EWALD:  gamma=   0.155
 Maximum number of real-space cells 4x 4x 2
 Maximum number of reciprocal cells 2x 2x 5

    FEWALD:  cpu time    0.0013: real time    0.0013


--------------------------------------- Iteration      1(   1)  ---------------------------------------


    POTLOK:  cpu time    0.0573: real time    0.0577
    SETDIJ:  cpu time    0.0044: real time    0.0046
     EDDAV:  cpu time    7.1804: real time    7.1841
 BZINTS: Fermi energy:    9.760910;  403.000000 electrons
         Band energy: 0.105518E+04;  BLOECHL correction:   -0.013126
       DOS:  cpu time    0.0109: real time    0.0110
    --------------------------------------------
      LOOP:  cpu time    7.2530: real time    7.2574

 eigenvalue-minimisations  :  5040
 total energy-change (2. order) : 0.2553586E+04  (-0.1885349E+05)
 number of electron     402.9999911 magnetization 
 augmentation part      402.9999911 magnetization 

 Free energy of the ion-electron system (eV)
  ---------------------------------------------------
  alpha Z        PSCENC =       771.70509469
  Ewald energy   TEWEN  =     98996.06201612
  -Hartree energ DENC   =   -137635.48517556
  -exchange      EXHF   =         0.00000000
  -V(xc)+E(xc)   XCENC  =      -313.54079671
  PAW double counting   =     40356.63758271   -38800.87440601
  entropy T*S    EENTRO =         0.00000000
  eigenvalues    EBANDS =      1055.18147252
  atomic energy  EATOM  =     38123.90012234
  Solvation  Ediel_sol  =         0.00000000
  ---------------------------------------------------
  free energy    TOTEN  =      2553.58591009 eV

  energy without entropy =     2553.58591009  energy(sigma->0) =     2553.58591009


--------------------------------------------------------------------------------------------------------




--------------------------------------- Iteration      1(   2)  ---------------------------------------


     EDDAV:  cpu time    7.5280: real time    7.5340
 BZINTS: Fermi energy:    1.563319;  403.000000 electrons
         Band energy:-0.150106E+04;  BLOECHL correction:   -0.030365
       DOS:  cpu time    0.0101: real time    0.0101
    --------------------------------------------
      LOOP:  cpu time    7.5381: real time    7.5441

 eigenvalue-minimisations  :  5320
 total energy-change (2. order) :-0.2556238E+04  (-0.2452219E+04)
 number of electron     402.9999911 magnetization 
 augmentation part      402.9999911 magnetization 

 Free energy of the ion-electron system (eV)
  ---------------------------------------------------
  alpha Z        PSCENC =       771.70509469
  Ewald energy   TEWEN  =     98996.06201612
  -Hartree energ DENC   =   -137635.48517556
  -exchange      EXHF   =         0.00000000
  -V(xc)+E(xc)   XCENC  =      -313.54079671
  PAW double counting   =     40356.63758271   -38800.87440601
  entropy T*S    EENTRO =         0.00000000
  eigenvalues    EBANDS =     -1501.05628930
  atomic energy  EATOM  =     38123.90012234
  Solvation  Ediel_sol  =         0.00000000
  ---------------------------------------------------
  free energy    TOTEN  =        -2.65185173 eV

  energy without entropy =       -2.65185173  energy(sigma->0) =       -2.65185173


--------------------------------------------------------------------------------------------------------




--------------------------------------- Iteration      1(   3)  ---------------------------------------


     EDDAV:  cpu time    8.9019: real time    8.9051
 BZINTS: Fermi energy:    0.863362;  402.987732 electrons
         Band energy:-0.160104E+04;  BLOECHL correction:   -0.051029
 WARNING: Fermi level nearly degenerate with energies of tetrahedron. This may
     result in numerical instabilities because the density changes by tiny
     changes of the Fermi energy. If the calculation converges, the total
     energy will still be reliable. If you notice convergence issues, you can
     try to
     *) Use a Gamma centered k-point grid
     *) Use tetrahedron method without corrections ISMEAR = -4
     *) Don't use tetrahedron method
        ISMEAR = 0 for semiconductors, 1 or 2 for metals

       DOS:  cpu time    0.0081: real time    0.0081
    --------------------------------------------
      LOOP:  cpu time    8.9100: real time    8.9132

 eigenvalue-minimisations  :  6524
 total energy-change (2. order) :-0.9997792E+02  (-0.9753541E+02)
 number of electron     402.9999911 magnetization 
 augmentation part      402.9999911 magnetization 

 Free energy of the ion-electron system (eV)
  ---------------------------------------------------
  alpha Z        PSCENC =       771.70509469
  Ewald energy   TEWEN  =     98996.06201612
  -Hartree energ DENC   =   -137635.48517556
  -exchange      EXHF   =         0.00000000
  -V(xc)+E(xc)   XCENC  =      -313.54079671
  PAW double counting   =     40356.63758271   -38800.87440601
  entropy T*S    EENTRO =         0.00000000
  eigenvalues    EBANDS =     -1601.03420689
  atomic energy  EATOM  =     38123.90012234
  Solvation  Ediel_sol  =         0.00000000
  ---------------------------------------------------
  free energy    TOTEN  =      -102.62976933 eV

  energy without entropy =     -102.62976933  energy(sigma->0) =     -102.62976933


--------------------------------------------------------------------------------------------------------




--------------------------------------- Iteration      1(   4)  ---------------------------------------


     EDDAV:  cpu time    9.7807: real time    9.8410
 BZINTS: Fermi energy:    0.822141;  403.000000 electrons
         Band energy:-0.160406E+04;  BLOECHL correction:   -0.048658
       DOS:  cpu time    0.0097: real time    0.0097
    --------------------------------------------
      LOOP:  cpu time    9.7904: real time    9.8507

 eigenvalue-minimisations  :  7336
 total energy-change (2. order) :-0.3024132E+01  (-0.2992936E+01)
 number of electron     402.9999911 magnetization 
 augmentation part      402.9999911 magnetization 

 Free energy of the ion-electron system (eV)
  ---------------------------------------------------
  alpha Z        PSCENC =       771.70509469
  Ewald energy   TEWEN  =     98996.06201612
  -Hartree energ DENC   =   -137635.48517556
  -exchange      EXHF   =         0.00000000
  -V(xc)+E(xc)   XCENC  =      -313.54079671
  PAW double counting   =     40356.63758271   -38800.87440601
  entropy T*S    EENTRO =         0.00000000
  eigenvalues    EBANDS =     -1604.05833904
  atomic energy  EATOM  =     38123.90012234
  Solvation  Ediel_sol  =         0.00000000
  ---------------------------------------------------
  free energy    TOTEN  =      -105.65390147 eV

  energy without entropy =     -105.65390147  energy(sigma->0) =     -105.65390147


--------------------------------------------------------------------------------------------------------




--------------------------------------- Iteration      1(   5)  ---------------------------------------


     EDDAV:  cpu time    8.4607: real time    8.4639
 BZINTS: Fermi energy:    0.821381;  403.000000 electrons
         Band energy:-0.160414E+04;  BLOECHL correction:   -0.048756
       DOS:  cpu time    0.0102: real time    0.0102
    --------------------------------------------
      LOOP:  cpu time    8.4709: real time    8.4740

 eigenvalue-minimisations  :  6160
 total energy-change (2. order) :-0.8146018E-01  (-0.8134383E-01)
 number of electron     402.9999911 magnetization 
 augmentation part      402.9999911 magnetization 

 Free energy of the ion-electron system (eV)
  ---------------------------------------------------
  alpha Z        PSCENC =       771.70509469
  Ewald energy   TEWEN  =     98996.06201612
  -Hartree energ DENC   =   -137635.48517556
  -exchange      EXHF   =         0.00000000
  -V(xc)+E(xc)   XCENC  =      -313.54079671
  PAW double counting   =     40356.63758271   -38800.87440601
  entropy T*S    EENTRO =         0.00000000
  eigenvalues    EBANDS =     -1604.13979922
  atomic energy  EATOM  =     38123.90012234
  Solvation  Ediel_sol  =         0.00000000
  ---------------------------------------------------
  free energy    TOTEN  =      -105.73536166 eV

  energy without entropy =     -105.73536166  energy(sigma->0) =     -105.73536166


--------------------------------------------------------------------------------------------------------




--------------------------------------- Iteration      1(   6)  ---------------------------------------


    EDDIAG:  cpu time    1.4483: real time    1.4489
  RMM-DIIS:  cpu time    5.8617: real time    5.8637
    ORTHCH:  cpu time    0.2619: real time    0.2620
 BZINTS: Fermi energy:    0.821371;  403.000000 electrons
         Band energy:-0.160414E+04;  BLOECHL correction:   -0.048760
       DOS:  cpu time    0.0099: real time    0.0099
    --------------------------------------------
      LOOP:  cpu time    7.5818: real time    7.5844

 eigenvalue-minimisations  :  7356
 total energy-change (2. order) :-0.2767025E-02  (-0.2764169E-02)
 number of electron     402.9999911 magnetization 
 augmentation part      402.9999911 magnetization 

 Free energy of the ion-electron system (eV)
  ---------------------------------------------------
  alpha Z        PSCENC =       771.70509469
  Ewald energy   TEWEN  =     98996.06201612
  -Hartree energ DENC   =   -137635.48517556
  -exchange      EXHF   =         0.00000000
  -V(xc)+E(xc)   XCENC  =      -313.54079671
  PAW double counting   =     40356.63758271   -38800.87440601
  entropy T*S    EENTRO =         0.00000000
  eigenvalues    EBANDS =     -1604.14256625
  atomic energy  EATOM  =     38123.90012234
  Solvation  Ediel_sol  =         0.00000000
  ---------------------------------------------------
  free energy    TOTEN  =      -105.73812868 eV

  energy without entropy =     -105.73812868  energy(sigma->0) =     -105.73812868


--------------------------------------------------------------------------------------------------------




--------------------------------------- Iteration      1(   7)  ---------------------------------------


    EDDIAG:  cpu time    1.4475: real time    1.4483
  RMM-DIIS:  cpu time    7.7523: real time    7.7550
    ORTHCH:  cpu time    0.2616: real time    0.2616
 BZINTS: Fermi energy:    0.821366;  403.000000 electrons
         Band energy:-0.160414E+04;  BLOECHL correction:   -0.048762
       DOS:  cpu time    0.0101: real time    0.0101
    --------------------------------------------
      LOOP:  cpu time    9.4715: real time    9.4750

 eigenvalue-minimisations  :  9715
 total energy-change (2. order) :-0.1254055E-02  (-0.1262866E-02)
 number of electron     402.9999911 magnetization 
 augmentation part      402.9999911 magnetization 

 Free energy of the ion-electron system (eV)
  ---------------------------------------------------
  alpha Z        PSCENC =       771.70509469
  Ewald energy   TEWEN  =     98996.06201612
  -Hartree energ DENC   =   -137635.48517556
  -exchange      EXHF   =         0.00000000
  -V(xc)+E(xc)   XCENC  =      -313.54079671
  PAW double counting   =     40356.63758271   -38800.87440601
  entropy T*S    EENTRO =         0.00000000
  eigenvalues    EBANDS =     -1604.14382030
  atomic energy  EATOM  =     38123.90012234
  Solvation  Ediel_sol  =         0.00000000
  ---------------------------------------------------
  free energy    TOTEN  =      -105.73938274 eV

  energy without entropy =     -105.73938274  energy(sigma->0) =     -105.73938274


--------------------------------------------------------------------------------------------------------




--------------------------------------- Iteration      1(   8)  ---------------------------------------


    EDDIAG:  cpu time    1.4516: real time    1.4522
  RMM-DIIS:  cpu time    7.2278: real time    7.2304
    ORTHCH:  cpu time    0.2615: real time    0.2615
 BZINTS: Fermi energy:    0.821364;  403.000000 electrons
         Band energy:-0.160414E+04;  BLOECHL correction:   -0.048762
       DOS:  cpu time    0.0101: real time    0.0101
    --------------------------------------------
      LOOP:  cpu time    8.9510: real time    8.9542

 eigenvalue-minimisations  :  9002
 total energy-change (2. order) :-0.4176434E-03  (-0.4067270E-03)
 number of electron     402.9999911 magnetization 
 augmentation part      402.9999911 magnetization 

 Free energy of the ion-electron system (eV)
  ---------------------------------------------------
  alpha Z        PSCENC =       771.70509469
  Ewald energy   TEWEN  =     98996.06201612
  -Hartree energ DENC   =   -137635.48517556
  -exchange      EXHF   =         0.00000000
  -V(xc)+E(xc)   XCENC  =      -313.54079671
  PAW double counting   =     40356.63758271   -38800.87440601
  entropy T*S    EENTRO =         0.00000000
  eigenvalues    EBANDS =     -1604.14423794
  atomic energy  EATOM  =     38123.90012234
  Solvation  Ediel_sol  =         0.00000000
  ---------------------------------------------------
  free energy    TOTEN  =      -105.73980038 eV

  energy without entropy =     -105.73980038  energy(sigma->0) =     -105.73980038


--------------------------------------------------------------------------------------------------------




--------------------------------------- Iteration      1(   9)  ---------------------------------------


    EDDIAG:  cpu time    1.4467: real time    1.4472
  RMM-DIIS:  cpu time    6.0144: real time    6.0165
    ORTHCH:  cpu time    0.2615: real time    0.2618
 BZINTS: Fermi energy:    0.821364;  403.000000 electrons
         Band energy:-0.160414E+04;  BLOECHL correction:   -0.048763
       DOS:  cpu time    0.0101: real time    0.0101
    --------------------------------------------
      LOOP:  cpu time    7.7328: real time    7.7357

 eigenvalue-minimisations  :  7221
 total energy-change (2. order) :-0.1534774E-03  (-0.1559321E-03)
 number of electron     402.9999911 magnetization 
 augmentation part      402.9999911 magnetization 

 Free energy of the ion-electron system (eV)
  ---------------------------------------------------
  alpha Z        PSCENC =       771.70509469
  Ewald energy   TEWEN  =     98996.06201612
  -Hartree energ DENC   =   -137635.48517556
  -exchange      EXHF   =         0.00000000
  -V(xc)+E(xc)   XCENC  =      -313.54079671
  PAW double counting   =     40356.63758271   -38800.87440601
  entropy T*S    EENTRO =         0.00000000
  eigenvalues    EBANDS =     -1604.14439142
  atomic energy  EATOM  =     38123.90012234
  Solvation  Ediel_sol  =         0.00000000
  ---------------------------------------------------
  free energy    TOTEN  =      -105.73995386 eV

  energy without entropy =     -105.73995386  energy(sigma->0) =     -105.73995386


--------------------------------------------------------------------------------------------------------




--------------------------------------- Iteration      1(  10)  ---------------------------------------


    EDDIAG:  cpu time    1.4435: real time    1.4438
  RMM-DIIS:  cpu time    5.0861: real time    5.0879
    ORTHCH:  cpu time    0.2621: real time    0.2621
 BZINTS: Fermi energy:    0.821363;  403.000000 electrons
         Band energy:-0.160414E+04;  BLOECHL correction:   -0.048763
       DOS:  cpu time    0.0099: real time    0.0099
    --------------------------------------------
      LOOP:  cpu time    6.8016: real time    6.8038

 eigenvalue-minimisations  :  6018
 total energy-change (2. order) :-0.6518516E-04  (-0.6638726E-04)
 number of electron     402.9999911 magnetization 
 augmentation part      402.9999911 magnetization 

 Free energy of the ion-electron system (eV)
  ---------------------------------------------------
  alpha Z        PSCENC =       771.70509469
  Ewald energy   TEWEN  =     98996.06201612
  -Hartree energ DENC   =   -137635.48517556
  -exchange      EXHF   =         0.00000000
  -V(xc)+E(xc)   XCENC  =      -313.54079671
  PAW double counting   =     40356.63758271   -38800.87440601
  entropy T*S    EENTRO =         0.00000000
  eigenvalues    EBANDS =     -1604.14445661
  atomic energy  EATOM  =     38123.90012234
  Solvation  Ediel_sol  =         0.00000000
  ---------------------------------------------------
  free energy    TOTEN  =      -105.74001904 eV

  energy without entropy =     -105.74001904  energy(sigma->0) =     -105.74001904


--------------------------------------------------------------------------------------------------------




--------------------------------------- Iteration      1(  11)  ---------------------------------------


    EDDIAG:  cpu time    1.4481: real time    1.4490
  RMM-DIIS:  cpu time    4.8912: real time    4.8928
    ORTHCH:  cpu time    0.2615: real time    0.2615
 BZINTS: Fermi energy:    0.821363;  403.000000 electrons
         Band energy:-0.160414E+04;  BLOECHL correction:   -0.048763
       DOS:  cpu time    0.0098: real time    0.0098
    --------------------------------------------
      LOOP:  cpu time    6.6105: real time    6.6130

 eigenvalue-minimisations  :  5646
 total energy-change (2. order) :-0.2849870E-04  (-0.3058323E-04)
 number of electron     402.9999911 magnetization 
 augmentation part      402.9999911 magnetization 

 Free energy of the ion-electron system (eV)
  ---------------------------------------------------
  alpha Z        PSCENC =       771.70509469
  Ewald energy   TEWEN  =     98996.06201612
  -Hartree energ DENC   =   -137635.48517556
  -exchange      EXHF   =         0.00000000
  -V(xc)+E(xc)   XCENC  =      -313.54079671
  PAW double counting   =     40356.63758271   -38800.87440601
  entropy T*S    EENTRO =         0.00000000
  eigenvalues    EBANDS =     -1604.14448510
  atomic energy  EATOM  =     38123.90012234
  Solvation  Ediel_sol  =         0.00000000
  ---------------------------------------------------
  free energy    TOTEN  =      -105.74004754 eV

  energy without entropy =     -105.74004754  energy(sigma->0) =     -105.74004754


--------------------------------------------------------------------------------------------------------




--------------------------------------- Iteration      1(  12)  ---------------------------------------


    EDDIAG:  cpu time    1.4508: real time    1.4513
  RMM-DIIS:  cpu time    4.4777: real time    4.4792
    ORTHCH:  cpu time    0.2619: real time    0.2619
 BZINTS: Fermi energy:    0.821363;  403.000000 electrons
         Band energy:-0.160414E+04;  BLOECHL correction:   -0.048763
       DOS:  cpu time    0.0095: real time    0.0095
    --------------------------------------------
      LOOP:  cpu time    6.1999: real time    6.2020

 eigenvalue-minimisations  :  4993
 total energy-change (2. order) :-0.1332964E-04  (-0.1371183E-04)
 number of electron     402.9999911 magnetization 
 augmentation part      402.9999911 magnetization 

 Free energy of the ion-electron system (eV)
  ---------------------------------------------------
  alpha Z        PSCENC =       771.70509469
  Ewald energy   TEWEN  =     98996.06201612
  -Hartree energ DENC   =   -137635.48517556
  -exchange      EXHF   =         0.00000000
  -V(xc)+E(xc)   XCENC  =      -313.54079671
  PAW double counting   =     40356.63758271   -38800.87440601
  entropy T*S    EENTRO =         0.00000000
  eigenvalues    EBANDS =     -1604.14449843
  atomic energy  EATOM  =     38123.90012234
  Solvation  Ediel_sol  =         0.00000000
  ---------------------------------------------------
  free energy    TOTEN  =      -105.74006087 eV

  energy without entropy =     -105.74006087  energy(sigma->0) =     -105.74006087


--------------------------------------------------------------------------------------------------------




--------------------------------------- Iteration      1(  13)  ---------------------------------------


    EDDIAG:  cpu time    1.4498: real time    1.4505
WARNING in EDDRMM: call to ZHEGV failed, returncode =   6  3      3
  RMM-DIIS:  cpu time    4.1395: real time    4.1410
    ORTHCH:  cpu time    0.2612: real time    0.2612
 BZINTS: Fermi energy:    0.821363;  403.000000 electrons
         Band energy:-0.160414E+04;  BLOECHL correction:   -0.048763
       DOS:  cpu time    0.0083: real time    0.0083
    --------------------------------------------
      LOOP:  cpu time    5.8589: real time    5.8610

 eigenvalue-minimisations  :  4560
 total energy-change (2. order) :-0.6284652E-05  (-0.6739697E-05)
 number of electron     402.9999911 magnetization 
 augmentation part      402.9999911 magnetization 

 Free energy of the ion-electron system (eV)
  ---------------------------------------------------
  alpha Z        PSCENC =       771.70509469
  Ewald energy   TEWEN  =     98996.06201612
  -Hartree energ DENC   =   -137635.48517556
  -exchange      EXHF   =         0.00000000
  -V(xc)+E(xc)   XCENC  =      -313.54079671
  PAW double counting   =     40356.63758271   -38800.87440601
  entropy T*S    EENTRO =         0.00000000
  eigenvalues    EBANDS =     -1604.14450472
  atomic energy  EATOM  =     38123.90012234
  Solvation  Ediel_sol  =         0.00000000
  ---------------------------------------------------
  free energy    TOTEN  =      -105.74006715 eV

  energy without entropy =     -105.74006715  energy(sigma->0) =     -105.74006715


--------------------------------------------------------------------------------------------------------




 average (electrostatic) potential at core
  the test charge radii are     1.1249  1.0703  0.7089
  (the norm of the test charge is              1.0000)
       1 -78.0697       2 -78.0592       3 -78.0591       4 -78.0592       5 -78.0658
       6 -78.0589       7 -78.0591       8 -78.0589       9 -78.0732      10 -78.3029
      11 -78.3017      12 -78.3026      13 -78.3017      14 -78.3013      15 -78.2820
      16 -78.3026      17 -78.2820      18 -78.2821      19 -78.2918      20 -78.5517
      21 -78.5513      22 -78.2911      23 -78.5513      24 -78.2908      25 -78.2918
      26 -78.2918      27 -78.2911      28 -78.1127      29 -78.2022      30 -78.2021
      31 -78.2022      32 -78.2018      33 -78.2021      34 -78.2018      35 -78.0765
      36 -87.8511      37 -67.4998
 
 
 
 E-fermi :   0.8214     XC(G=0):  -5.9647     alpha+bet : -5.7041

 Fermi energy:         0.8213631550

 k-point     1 :       0.0000    0.0000    0.0000
  band No.  band energies     occupation 
      1     -54.1138      2.00000
      2     -30.5419      2.00000
      3     -30.2788      2.00000
      4     -30.2788      2.00000
      5     -11.2887      2.00000
      6      -6.3103      2.00000
      7      -5.4526      2.00000
      8      -5.1945      2.00000
      9      -5.1014      2.00000
     10      -5.0834      2.00000
     11      -5.0834      2.00000
     12      -5.0457      2.00000
     13      -5.0457      2.00000
     14      -5.0361      2.00000
     15      -5.0253      2.00000
     16      -5.0178      2.00000
     17      -5.0012      2.00000
     18      -5.0012      2.00000
     19      -4.9901      2.00000
     20      -4.9889      2.00000
     21      -4.9889      2.00000
     22      -4.8709      2.00000
     23      -4.8709      2.00000
     24      -4.8614      2.00000
     25      -4.8247      2.00000
     26      -4.8158      2.00000
     27      -4.8158      2.00000
     28      -4.6914      2.00000
     29      -4.6545      2.00000
     30      -4.6529      2.00000
     31      -4.6529      2.00000
     32      -4.6414      2.00000
     33      -4.6414      2.00000
     34      -4.6252      2.00000
     35      -4.6066      2.00000
     36      -4.5939      2.00000
     37      -4.5938      2.00000
     38      -4.5749      2.00000
     39      -4.5749      2.00000
     40      -4.5271      2.00000
     41      -4.5051      2.00000
     42      -4.5050      2.00000
     43      -4.4992      2.00000
     44      -4.4573      2.00000
     45      -4.4573      2.00000
     46      -4.2825      2.00000
     47      -4.2824      2.00000
     48      -4.2624      2.00000
     49      -4.2517      2.00000
     50      -4.2517      2.00000
     51      -4.2511      2.00000
     52      -4.2407      2.00000
     53      -4.2406      2.00000
     54      -4.2274      2.00000
     55      -4.2274      2.00000
     56      -4.1058      2.00000
     57      -4.0934      2.00000
     58      -4.0629      2.00000
     59      -4.0590      2.00000
     60      -3.9240      2.00000
     61      -3.9086      2.00000
     62      -3.9086      2.00000
     63      -3.8843      2.00000
     64      -3.8818      2.00000
     65      -3.8818      2.00000
     66      -3.8590      2.00000
     67      -3.8547      2.00000
     68      -3.8547      2.00000
     69      -3.7944      2.00000
     70      -3.7944      2.00000
     71      -3.7191      2.00000
     72      -3.7191      2.00000
     73      -3.7100      2.00000
     74      -3.7100      2.00000
     75      -3.7059      2.00000
     76      -3.7033      2.00000
     77      -3.6975      2.00000
     78      -3.6975      2.00000
     79      -3.6811      2.00000
     80      -3.6810      2.00000
     81      -3.6648      2.00000
     82      -3.6579      2.00000
     83      -3.6421      2.00000
     84      -3.6420      2.00000
     85      -3.5973      2.00000
     86      -3.5973      2.00000
     87      -3.5901      2.00000
     88      -3.5900      2.00000
     89      -3.5718      2.00000
     90      -3.5134      2.00000
     91      -3.5133      2.00000
     92      -3.5105      2.00000
     93      -3.5105      2.00000
     94      -3.4850      2.00000
     95      -3.4846      2.00000
     96      -3.4845      2.00000
     97      -3.4591      2.00000
     98      -3.4591      2.00000
     99      -3.4074      2.00000
    100      -3.3659      2.00000
    101      -3.3659      2.00000
    102      -3.3447      2.00000
    103      -3.3447      2.00000
    104      -3.2023      2.00000
    105      -3.2023      2.00000
    106      -3.1818      2.00000
    107      -3.1594      2.00000
    108      -3.1594      2.00000
    109      -3.1407      2.00000
    110      -3.1406      2.00000
    111      -3.1237      2.00000
    112      -3.1025      2.00000
    113      -3.0865      2.00000
    114      -3.0865      2.00000
    115      -3.0465      2.00000
    116      -3.0350      2.00000
    117      -3.0350      2.00000
    118      -3.0252      2.00000
    119      -2.9821      2.00000
    120      -2.9305      2.00000
    121      -2.9305      2.00000
    122      -2.8898      2.00000
    123      -2.8898      2.00000
    124      -2.8457      2.00000
    125      -2.8457      2.00000
    126      -2.8358      2.00000
    127      -2.8358      2.00000
    128      -2.8062      2.00000
    129      -2.7952      2.00000
    130      -2.7836      2.00000
    131      -2.7836      2.00000
    132      -2.7668      2.00000
    133      -2.7668      2.00000
    134      -2.7633      2.00000
    135      -2.7620      2.00000
    136      -2.7619      2.00000
    137      -2.7538      2.00000
    138      -2.6860      2.00000
    139      -2.6860      2.00000
    140      -2.6129      2.00000
    141      -2.6129      2.00000
    142      -2.5961      2.00000
    143      -2.5861      2.00000
    144      -2.5808      2.00000
    145      -2.5777      2.00000
    146      -2.5777      2.00000
    147      -2.5523      2.00000
    148      -2.5523      2.00000
    149      -2.5331      2.00000
    150      -2.5280      2.00000
    151      -2.5228      2.00000
    152      -2.5227      2.00000
    153      -2.4997      2.00000
    154      -2.4828      2.00000
    155      -2.4687      2.00000
    156      -2.4687      2.00000
    157      -2.4551      2.00000
    158      -2.4546      2.00000
    159      -2.4546      2.00000
    160      -2.4307      2.00000
    161      -2.4306      2.00000
    162      -2.4222      2.00000
    163      -2.4132      2.00000
    164      -2.3655      2.00000
    165      -2.3655      2.00000
    166      -2.3564      2.00000
    167      -2.3402      2.00000
    168      -2.3347      2.00000
    169      -2.3347      2.00000
    170      -2.3320      2.00000
    171      -2.3320      2.00000
    172      -2.3289      2.00000
    173      -2.3279      2.00000
    174      -2.2825      2.00000
    175      -2.2825      2.00000
    176      -2.2595      2.00000
    177      -2.2594      2.00000
    178      -2.1927      2.00000
    179      -2.1926      2.00000
    180      -2.1899      2.00000
    181      -2.1668      2.00000
    182      -2.1668      2.00000
    183      -2.1585      2.00000
    184      -2.1012      2.00000
    185      -2.1012      2.00000
    186      -2.0912      2.00000
    187      -2.0682      2.00000
    188      -2.0681      2.00000
    189      -2.0267      2.00000
    190      -1.6506      2.00000
    191      -1.6506      2.00000
    192      -1.3238      2.00000
    193      -1.3238      2.00000
    194      -1.3110      2.00000
    195      -1.2468      2.00000
    196      -1.1611      2.00000
    197      -1.1611      2.00000
    198      -1.0247      2.00000
    199       0.0227      2.00000
    200       0.3679      2.00000
    201       0.3679      2.00000
    202       0.4333      2.00000
    203       0.5510      2.00000
    204       0.5915      2.82646
    205       0.5916      1.63511
    206       1.3100      0.00000
    207       1.3100      0.00000
    208       1.3185      0.00000
    209       2.5851      0.00000
    210       2.6624      0.00000
    211       2.6732      0.00000
    212       2.6732      0.00000
    213       2.8127      0.00000
    214       2.8128      0.00000
    215       3.5719      0.00000
    216       3.5719      0.00000
    217       4.0186      0.00000
    218       4.1565      0.00000
    219       4.3116      0.00000
    220       4.3116      0.00000
    221       4.5535      0.00000
    222       4.5535      0.00000
    223       4.8961      0.00000
    224       5.0601      0.00000
    225       5.0601      0.00000
    226       5.0615      0.00000
[...]
  0.000   0.000   0.000   0.000   0.000   0.000   0.000   0.000   0.000   0.000   0.000   0.000   0.000   0.000   0.000   0.000
  0.000   0.000   0.000   0.000   0.000   0.000   0.000   0.000   0.000   0.000   0.000   0.000   0.000   0.000   0.000   0.000
  0.000   0.000   0.000   0.000   0.000   0.000   0.000   0.000   0.000   0.000   0.000   0.000   0.000   0.000   0.000   0.000
  0.000   0.000   0.000   0.000   0.000   0.000   0.000   0.000   0.000   0.000   0.000   0.000   0.000   0.000   0.000   0.000
  0.000   0.000   0.000   0.000   0.000   0.000   0.000   0.000   0.000   0.000   0.000   0.000   0.000   0.000   0.000   0.000
  0.000   0.000   0.000   0.000   0.000   0.000   0.000   0.000   0.000   0.000   1.000   0.000   0.000   0.000   0.000   0.000
  0.000   0.000   0.000   0.000   0.000   0.000   0.000   0.000   0.000   0.000   0.000   0.000   0.000   0.000   0.000   0.000
  0.000   0.000   0.000   0.000   0.000   0.000   0.000   0.000   0.000   0.000   0.000   0.000   0.000   0.000   0.000   0.000
  0.000   0.000   0.000   0.000   0.000   0.000   0.000   0.000   0.000   0.000   0.000   0.000   0.000   0.000   0.000   0.000
  0.000   0.000   0.000   0.000   0.000   0.000   0.000   0.000   0.000   0.000   0.000   0.000   0.000   0.000   0.000   0.000
  0.000   0.000   0.000   0.000   0.000   0.000   0.000   0.000   0.000   0.000   0.000   0.000   0.000   0.000   0.000   0.000
  0.000   0.000   0.000   0.000   0.000   0.000   0.000   0.000   0.000   0.000   0.000   0.000   0.000   0.000   0.000   0.000
  0.000   0.000   0.000   0.000   0.000   0.000   0.000   0.000   0.000   0.000   0.000   0.000   0.000   0.000   0.000   0.000


------------------------ aborting loop because EDIFF is reached ----------------------------------------





 total charge

# of ion       s       p       d       tot
------------------------------------------
    1        0.415   0.204   9.177   9.796
    2        0.417   0.203   9.176   9.796
    3        0.417   0.203   9.176   9.796
    4        0.417   0.203   9.176   9.796
    5        0.414   0.203   9.177   9.794
    6        0.417   0.203   9.176   9.796
    7        0.417   0.203   9.176   9.796
    8        0.417   0.203   9.176   9.796
    9        0.413   0.203   9.177   9.792
   10        0.405   0.271   9.163   9.839
   11        0.406   0.269   9.165   9.840
   12        0.405   0.271   9.163   9.839
   13        0.406   0.269   9.165   9.840
   14        0.406   0.269   9.165   9.840
   15        0.401   0.269   9.164   9.834
   16        0.405   0.271   9.163   9.839
   17        0.401   0.269   9.164   9.834
   18        0.401   0.269   9.164   9.834
   19        0.402   0.263   9.169   9.834
   20        0.428   0.295   9.149   9.872
   21        0.428   0.295   9.149   9.872
   22        0.394   0.275   9.162   9.831
   23        0.428   0.295   9.149   9.872
   24        0.394   0.275   9.162   9.831
   25        0.402   0.263   9.169   9.834
   26        0.402   0.263   9.169   9.834
   27        0.394   0.275   9.162   9.831
   28        0.412   0.202   9.174   9.788
   29        0.434   0.211   9.164   9.809
   30        0.434   0.211   9.164   9.809
   31        0.434   0.211   9.164   9.809
   32        0.434   0.211   9.164   9.809
   33        0.434   0.211   9.164   9.809
   34        0.434   0.211   9.164   9.809
   35        0.412   0.205   9.173   9.789
   36        2.208   6.010   2.718  10.936
   37        1.346   2.258   0.000   3.604
--------------------------------------------------
tot         18.031  16.696 323.555 358.282
 
    CHARGE:  cpu time    0.3382: real time    0.3386
    FORLOC:  cpu time    0.0100: real time    0.0100
    FORNL :  cpu time    1.4848: real time    1.4852
    STRESS:  cpu time    4.4422: real time    4.4437
    FORCOR:  cpu time    0.0428: real time    0.0429
    FORHAR:  cpu time    0.0165: real time    0.0168
    OFIELD:  cpu time    0.0002: real time    0.0002

  FORCE on cell =-STRESS in cart. coord.  units (eV):
  Direction    XX          YY          ZZ          XY          YZ          ZX
  --------------------------------------------------------------------------------------
  Alpha Z   771.70509   771.70509   771.70509
  Ewald  122156.24421122156.24436************     0.00005     0.00001     0.00004
  Hartree132615.63164132615.63170************     0.00002     0.00000     0.00002
  E(xc)   -2109.77005 -2109.77004 -2114.53129    -0.00001     0.00000     0.00000
  Local  ************************266194.76481     0.00037    -0.00006    -0.00016
  n-local  -337.40336  -321.15328  -349.52845    10.21428    -0.63371     0.63981
  augment  3236.63112  3236.63132  3253.01499    -0.00018    -0.00002     0.00002
  Kinetic  5102.29302  5106.18735  5153.45871     2.95338     0.93655    -0.34950
  Fock        0.00000     0.00000     0.00000     0.00000     0.00000     0.00000
  -------------------------------------------------------------------------------------
  Total      -6.03702    -6.03702     0.31380    -0.00000    -0.00000     0.00000
  in kB      -6.51576    -6.51576     0.33869    -0.00000    -0.00000     0.00000
  external pressure =       -4.23 kB  Pullay stress =        0.00 kB


 VOLUME and BASIS-vectors are now :
 -----------------------------------------------------------------------------
  energy-cutoff  :      500.00
  volume of cell :     1484.46
      direct lattice vectors                 reciprocal lattice vectors
     8.791366577  0.000000000  0.000000000     0.113747958 -0.065672414  0.000000000
     4.395683289  7.613546790  0.000000000     0.000000000  0.131344829  0.000000000
     0.000000000  0.000000000 22.178121567     0.000000000  0.000000000  0.045089481

  length of vectors
     8.791366577  8.791366577 22.178121567     0.131344829  0.131344829  0.045089481


 FORCES acting on ions
    electron-ion (+dipol)            ewald-force                    non-local-force                 convergence-correction
 -----------------------------------------------------------------------------------------------
   0.462E-04 -.281E-04 0.253E+04   -.954E-04 0.593E-04 -.253E+04   -.115E-16 -.586E-17 -.185E+01   -.129E-03 -.181E-03 -.137E+00
   0.234E+00 0.131E+01 0.253E+04   -.379E+00 -.106E+01 -.253E+04   0.184E-01 -.414E-01 -.162E+01   0.119E+00 -.198E+00 -.219E-01
   -.233E+00 0.131E+01 0.253E+04   0.379E+00 -.106E+01 -.253E+04   -.184E-01 -.414E-01 -.162E+01   -.120E+00 -.196E+00 -.212E-01
   0.125E+01 -.453E+00 0.253E+04   -.111E+01 0.203E+00 -.253E+04   -.267E-01 0.366E-01 -.162E+01   -.112E+00 0.202E+00 -.219E-01
   -.573E-05 -.188E-04 0.253E+04   0.980E-04 -.199E-05 -.253E+04   0.297E-17 0.152E-17 -.169E+01   0.630E-02 0.385E-02 0.150E+00
   -.125E+01 -.453E+00 0.253E+04   0.111E+01 0.203E+00 -.253E+04   0.267E-01 0.366E-01 -.162E+01   0.110E+00 0.203E+00 -.209E-01
   0.102E+01 -.857E+00 0.253E+04   -.731E+00 0.859E+00 -.253E+04   -.451E-01 0.479E-02 -.162E+01   -.229E+00 -.506E-02 -.212E-01
   -.102E+01 -.857E+00 0.253E+04   0.731E+00 0.859E+00 -.253E+04   0.451E-01 0.479E-02 -.162E+01   0.231E+00 -.611E-02 -.209E-01
   0.363E-04 -.129E-04 0.253E+04   0.792E-04 -.643E-04 -.253E+04   -.123E-18 0.323E-18 -.180E+01   -.670E-02 -.346E-02 -.107E+00
   0.593E+01 0.342E+01 0.887E+03   -.588E+01 -.339E+01 -.886E+03   -.170E+00 -.980E-01 -.548E+00   0.106E+00 0.611E-01 -.133E+00
   -.286E-04 0.983E+01 0.896E+03   0.411E-04 -.101E+02 -.895E+03   0.719E-12 0.110E+00 -.667E+00   0.640E-02 0.129E+00 -.289E+00
   -.593E+01 0.342E+01 0.887E+03   0.588E+01 -.339E+01 -.886E+03   0.170E+00 -.980E-01 -.548E+00   -.108E+00 0.626E-01 -.132E+00
   0.851E+01 -.491E+01 0.896E+03   -.876E+01 0.506E+01 -.895E+03   0.948E-01 -.548E-01 -.667E+00   0.115E+00 -.589E-01 -.289E+00
   -.851E+01 -.491E+01 0.896E+03   0.876E+01 0.506E+01 -.895E+03   -.948E-01 -.548E-01 -.667E+00   -.104E+00 -.596E-01 -.288E+00
   0.160E-04 -.255E+01 0.882E+03   -.109E-03 0.242E+01 -.881E+03   0.373E-12 0.569E-01 -.546E+00   -.203E-02 0.677E-01 -.333E+00
   -.819E-05 -.684E+01 0.887E+03   0.207E-04 0.679E+01 -.886E+03   0.129E-11 0.196E+00 -.548E+00   0.335E-03 -.125E+00 -.132E+00
   -.220E+01 0.127E+01 0.882E+03   0.210E+01 -.121E+01 -.881E+03   0.492E-01 -.284E-01 -.546E+00   0.576E-01 -.356E-01 -.333E+00
   0.220E+01 0.127E+01 0.882E+03   -.210E+01 -.121E+01 -.881E+03   -.492E-01 -.284E-01 -.546E+00   -.578E-01 -.334E-01 -.333E+00
   0.408E-04 0.329E+00 -.797E+03   -.132E-03 -.364E+00 0.796E+03   0.880E-12 0.134E+00 0.101E+01   -.190E-02 -.111E+00 -.172E+00
   0.443E+02 0.256E+02 -.725E+03   -.441E+02 -.254E+02 0.725E+03   -.417E+00 -.241E+00 -.320E-01   -.847E-01 -.489E-01 -.374E+00
   -.443E+02 0.256E+02 -.725E+03   0.441E+02 -.254E+02 0.725E+03   0.417E+00 -.241E+00 -.320E-01   0.955E-01 -.476E-01 -.374E+00
   0.188E+02 -.108E+02 -.790E+03   -.192E+02 0.111E+02 0.790E+03   0.365E+00 -.211E+00 0.702E+00   0.101E+00 -.579E-01 -.296E+00
   -.575E-04 -.511E+02 -.725E+03   0.500E-04 0.509E+02 0.725E+03   0.316E-11 0.481E+00 -.320E-01   0.682E-02 0.107E+00 -.374E+00
   -.188E+02 -.108E+02 -.790E+03   0.192E+02 0.111E+02 0.790E+03   -.365E+00 -.211E+00 0.702E+00   -.102E+00 -.589E-01 -.296E+00
   -.285E+00 -.165E+00 -.797E+03   0.315E+00 0.182E+00 0.796E+03   -.116E+00 -.670E-01 0.101E+01   0.969E-01 0.558E-01 -.172E+00
   0.285E+00 -.164E+00 -.797E+03   -.315E+00 0.182E+00 0.796E+03   0.116E+00 -.670E-01 0.101E+01   -.971E-01 0.536E-01 -.172E+00
   0.215E-04 0.217E+02 -.790E+03   0.109E-03 -.222E+02 0.790E+03   0.277E-11 0.422E+00 0.702E+00   -.464E-03 0.116E+00 -.296E+00
   0.545E-04 -.359E-04 -.247E+04   -.118E-03 0.785E-04 0.246E+04   0.191E-17 0.106E-17 0.163E+01   -.152E-03 -.226E-03 0.692E-01
   0.501E+02 0.811E+02 -.247E+04   -.493E+02 -.802E+02 0.247E+04   -.683E+00 -.928E+00 0.222E+01   -.217E+00 -.151E+00 0.588E-01
   -.501E+02 0.811E+02 -.247E+04   0.493E+02 -.802E+02 0.247E+04   0.683E+00 -.928E+00 0.222E+01   0.216E+00 -.149E+00 0.586E-01
   0.953E+02 0.281E+01 -.247E+04   -.941E+02 -.257E+01 0.247E+04   -.115E+01 -.127E+00 0.222E+01   -.239E+00 -.112E+00 0.588E-01
   -.953E+02 0.281E+01 -.247E+04   0.941E+02 -.257E+01 0.247E+04   0.115E+01 -.127E+00 0.222E+01   0.237E+00 -.111E+00 0.580E-01
   0.452E+02 -.840E+02 -.247E+04   -.448E+02 0.828E+02 0.247E+04   -.462E+00 0.106E+01 0.222E+01   -.201E-01 0.262E+00 0.586E-01
   -.452E+02 -.840E+02 -.247E+04   0.448E+02 0.828E+02 0.247E+04   0.462E+00 0.106E+01 0.222E+01   0.217E-01 0.261E+00 0.579E-01
   0.202E-04 -.901E-05 -.247E+04   0.106E-03 -.672E-04 0.247E+04   -.155E-17 0.623E-18 0.176E+01   -.680E-02 -.350E-02 0.246E+00
   0.273E-03 -.163E-03 -.254E+04   0.123E-03 0.141E-04 0.254E+04   -.676E-18 -.322E-18 -.384E+01   0.791E-02 0.482E-02 0.604E-01
   0.123E-03 -.622E-04 -.151E+04   0.237E-04 0.339E-06 0.152E+04   -.201E-19 0.204E-18 -.171E+02   0.200E-02 0.122E-02 0.207E+00
 -----------------------------------------------------------------------------------------------
   0.781E-03 -.885E-03 0.237E+02   -.390E-13 0.553E-13 0.796E-11   -.113E-15 -.222E-15 -.195E+02   0.286E-01 0.199E-01 -.408E+01
 
 
 POSITION                                       TOTAL-FORCE (eV/Angst)
 -----------------------------------------------------------------------------------
      0.00000      0.00000      5.28219         0.000000     -0.000000      0.020337
      2.93046      0.00000      5.28219        -0.007061      0.008746      0.024417
      5.86091      0.00000      5.28219         0.007061      0.008746      0.024417
      1.46523      2.53785      5.28219         0.004044     -0.010488      0.024417
      4.39568      2.53785      5.28219         0.000000     -0.000000     -0.012499
      7.32614      2.53785      5.28219        -0.004044     -0.010488      0.024417
      2.93046      5.07570      5.28219         0.011105      0.001742      0.024417
      5.86091      5.07570      5.28219        -0.011105      0.001742      0.024417
      8.79137      5.07570      5.28219         0.000000     -0.000000      0.030683
      1.46523      0.84595      7.67490        -0.015029     -0.008677     -0.036320
      4.39568      0.84595      7.67490        -0.000000     -0.057961     -0.051087
      7.32614      0.84595      7.67490         0.015029     -0.008677     -0.036320
      2.93046      3.38380      7.67490        -0.050196      0.028980     -0.051087
      5.86091      3.38380      7.67490         0.050196      0.028980     -0.051087
      8.79137      3.38380      7.67490         0.000000      0.000846      0.064261
      4.39568      5.92165      7.67490         0.000000      0.017354     -0.036320
      7.32614      5.92165      7.67490         0.000732     -0.000423      0.064261
     10.25659      5.92165      7.67490        -0.000732     -0.000423      0.064261
      8.79137      1.69211     10.06133        -0.000000     -0.012233      0.025476
      2.92756      1.69022     10.03254        -0.320824     -0.185228     -0.253401
      5.86381      1.69022     10.03254         0.320824     -0.185228     -0.253401
     10.25459      4.23091     10.07004         0.027783     -0.016040      0.021575
      4.39568      4.23310     10.03254         0.000000      0.370455     -0.253401
      7.32815      4.23091     10.07004        -0.027783     -0.016040      0.021575
     11.72164      6.76749     10.06133         0.010594      0.006116      0.025476
      5.86110      6.76749     10.06133        -0.010594      0.006116      0.025476
      8.79137      6.76528     10.07004         0.000000      0.032081      0.021575
      0.00000      0.00000     12.45237         0.000000     -0.000000     -0.038732
      2.94700      0.02679     12.48745        -0.099586     -0.174028     -0.096270
      5.84437      0.02679     12.48745         0.099586     -0.174028     -0.096270
      1.49670      2.53878     12.48745        -0.200506      0.000770     -0.096270
      7.29466      2.53878     12.48745         0.200506      0.000770     -0.096270
      2.94539      5.04797     12.48745        -0.100920      0.173258     -0.096270
      5.84598      5.04797     12.48745         0.100920      0.173258     -0.096270
      8.79137      5.07570     12.46721         0.000000     -0.000000     -0.049051
      4.39568      2.53785     12.28926         0.000000     -0.000000      1.188751
      4.39568      2.53785     14.00319         0.000000     -0.000000     -0.019885
 -----------------------------------------------------------------------------------
    total drift:                                0.029350      0.019060      0.101492


--------------------------------------------------------------------------------------------------------



  FREE ENERGIE OF THE ION-ELECTRON SYSTEM (eV)
  ---------------------------------------------------
  free  energy   TOTEN  =      -105.74006715 eV

  energy  without entropy=     -105.74006715  energy(sigma->0) =     -105.74006715
 


--------------------------------------------------------------------------------------------------------


    POTLOK:  cpu time    0.0447: real time    0.0447


--------------------------------------------------------------------------------------------------------


 stress matrix after NEB project (eV)
     -6.03702     -0.00000      0.00000
     -0.00000     -6.03702      0.00000
      0.00000     -0.00000      0.31380
  FORCES: max atom, RMS     0.019885    0.003269
  FORCE total and by dimension    0.019885    0.019885
  Stress total and by dimension    8.543404    6.037023
     LOOP+:  cpu time  107.6523: real time  107.7579
 -----------------------------------------------------------------------------
|                                                                             |
|           W    W    AA    RRRRR   N    N  II  N    N   GGGG   !!!           |
|           W    W   A  A   R    R  NN   N  II  NN   N  G    G  !!!           |
|           W    W  A    A  R    R  N N  N  II  N N  N  G       !!!           |
|           W WW W  AAAAAA  RRRRR   N  N N  II  N  N N  G  GGG   !            |
|           WW  WW  A    A  R   R   N   NN  II  N   NN  G    G                |
|           W    W  A    A  R    R  N    N  II  N    N   GGGG   !!!           |
|                                                                             |
|     Tetrahedron method does not include variations of the Fermi             |
|     occupations, so forces and stress will be inaccurate. We suggest        |
|     using a different smearing scheme ISMEAR = 1 or 2 for metals in         |
|     relaxations.                                                            |
|                                                                             |
 -----------------------------------------------------------------------------

    4ORBIT:  cpu time    0.0000: real time    0.0000



 total charge

# of ion       s       p       d       tot
------------------------------------------
    1        0.415   0.204   9.177   9.796
    2        0.417   0.203   9.176   9.796
    3        0.417   0.203   9.176   9.796
    4        0.417   0.203   9.176   9.796
    5        0.414   0.203   9.177   9.794
    6        0.417   0.203   9.176   9.796
    7        0.417   0.203   9.176   9.796
    8        0.417   0.203   9.176   9.796
    9        0.413   0.203   9.177   9.792
   10        0.405   0.271   9.163   9.839
   11        0.406   0.269   9.165   9.840
   12        0.405   0.271   9.163   9.839
   13        0.406   0.269   9.165   9.840
   14        0.406   0.269   9.165   9.840
   15        0.401   0.269   9.164   9.834
   16        0.405   0.271   9.163   9.839
   17        0.401   0.269   9.164   9.834
   18        0.401   0.269   9.164   9.834
   19        0.402   0.263   9.169   9.834
   20        0.428   0.295   9.149   9.872
   21        0.428   0.295   9.149   9.872
   22        0.394   0.275   9.162   9.831
   23        0.428   0.295   9.149   9.872
   24        0.394   0.275   9.162   9.831
   25        0.402   0.263   9.169   9.834
   26        0.402   0.263   9.169   9.834
   27        0.394   0.275   9.162   9.831
   28        0.412   0.202   9.174   9.788
   29        0.434   0.211   9.164   9.809
   30        0.434   0.211   9.164   9.809
   31        0.434   0.211   9.164   9.809
   32        0.434   0.211   9.164   9.809
   33        0.434   0.211   9.164   9.809
   34        0.434   0.211   9.164   9.809
   35        0.412   0.205   9.173   9.789
   36        2.208   6.010   2.718  10.936
   37        1.346   2.258   0.000   3.604
--------------------------------------------------
tot         18.031  16.696 323.555 358.282
 
 BZINTS: Fermi energy:    0.821363;  403.000000 electrons
         Band energy:-0.160414E+04;  BLOECHL correction:   -0.048763

 total amount of memory used by VASP MPI-rank0   123562. kBytes
=======================================================================

   base      :      30000. kBytes
   nonlr-proj:      15459. kBytes
   fftplans  :       4330. kBytes
   grid      :      17879. kBytes
   one-center:        575. kBytes
   wavefun   :      55319. kBytes
 
  
  
 General timing and accounting informations for this job:
 ========================================================
  
                  Total CPU time used (sec):      115.015
                            User time (sec):      111.472
                          System time (sec):        3.543
                         Elapsed time (sec):      115.504
  
                   Maximum memory used (kb):      381280.
                   Average memory used (kb):          N/A
  
                          Minor page faults:        90564
                          Major page faults:            0
                 Voluntary context switches:         5681
