PROCAR new format
# of k-points:   10         # of bands:  252         # of ions:   37

 k-point     1 :    0.00000000 0.00000000 0.00000000     weight = 0.01562500

band     1 # energy  -54.11376343 # occ.  2.00000000
 
ion      s      p      d    tot
    1  0.000  0.000  0.000  0.000
    2  0.000  0.000  0.000  0.000
    3  0.000  0.000  0.000  0.000
    4  0.000  0.000  0.000  0.000
    5  0.000  0.000  0.000  0.000
    6  0.000  0.000  0.000  0.000
    7  0.000  0.000  0.000  0.000
    8  0.000  0.000  0.000  0.000
    9  0.000  0.000  0.000  0.000
   10  0.000  0.000  0.000  0.000
   11  0.000  0.000  0.000  0.000
   12  0.000  0.000  0.000  0.000
   13  0.000  0.000  0.000  0.000
   14  0.000  0.000  0.000  0.000
   15  0.000  0.000  0.000  0.000
   16  0.000  0.000  0.000  0.000
   17  0.000  0.000  0.000  0.000
   18  0.000  0.000  0.000  0.000
   19  0.000  0.000  0.000  0.000
   20  0.000  0.000  0.000  0.000
   21  0.000  0.000  0.000  0.000
   22  0.000  0.000  0.000  0.000
   23  0.000  0.000  0.000  0.000
   24  0.000  0.000  0.000  0.000
   25  0.000  0.000  0.000  0.000
   26  0.000  0.000  0.000  0.000
   27  0.000  0.000  0.000  0.000
   28  0.000  0.000  0.000  0.000
   29  0.000  0.000  0.000  0.000
   30  0.000  0.000  0.000  0.000
   31  0.000  0.000  0.000  0.000
   32  0.000  0.000  0.000  0.000
   33  0.000  0.000  0.000  0.000
   34  0.000  0.000  0.000  0.000
   35  0.000  0.000  0.000  0.000
   36  0.991  0.000  0.000  0.992
   37  0.001  0.002  0.000  0.003
tot    0.993  0.002  0.000  0.995
 
band     2 # energy  -30.54193413 # occ.  2.00000000
 
ion      s      p      d    tot
    1  0.000  0.000  0.000  0.000
    2  0.000  0.000  0.000  0.000
    3  0.000  0.000  0.000  0.000
    4  0.000  0.000  0.000  0.000
    5  0.000  0.000  0.000  0.000
    6  0.000  0.000  0.000  0.000
    7  0.000  0.000  0.000  0.000
    8  0.000  0.000  0.000  0.000
    9  0.000  0.000  0.000  0.000
   10  0.000  0.000  0.000  0.000
   11  0.000  0.000  0.000  0.000
   12  0.000  0.000  0.000  0.000
   13  0.000  0.000  0.000  0.000
   14  0.000  0.000  0.000  0.000
   15  0.000  0.000  0.000  0.000
   16  0.000  0.000  0.000  0.000
   17  0.000  0.000  0.000  0.000
   18  0.000  0.000  0.000  0.000
   19  0.000  0.000  0.000  0.000
   20  0.000  0.000  0.000  0.000
   21  0.000  0.000  0.000  0.000
   22  0.000  0.000  0.000  0.000
   23  0.000  0.000  0.000  0.000
   24  0.000  0.000  0.000  0.000
   25  0.000  0.000  0.000  0.000
   26  0.000  0.000  0.000  0.000
   27  0.000  0.000  0.000  0.000
   28  0.000  0.000  0.000  0.000
   29  0.000  0.000  0.000  0.000
   30  0.000  0.000  0.000  0.000
   31  0.000  0.000  0.000  0.000
   32  0.000  0.000  0.000  0.000
   33  0.000  0.000  0.000  0.000
   34  0.000  0.000  0.000  0.000
   35  0.000  0.000  0.000  0.000
   36  0.000  0.946  0.001  0.948
   37  0.021  0.017  0.000  0.038
tot    0.022  0.963  0.002  0.987
 
band     3 # energy  -30.27881861 # occ.  2.00000000
 
ion      s      p      d    tot
    1  0.000  0.000  0.000  0.000
    2  0.000  0.000  0.000  0.000
    3  0.000  0.000  0.000  0.000
    4  0.000  0.000  0.000  0.000
    5  0.000  0.000  0.000  0.000
    6  0.000  0.000  0.000  0.000
    7  0.000  0.000  0.000  0.000
    8  0.000  0.000  0.000  0.000
    9  0.000  0.000  0.000  0.000
   10  0.000  0.000  0.000  0.000
   11  0.000  0.000  0.000  0.000
   12  0.000  0.000  0.000  0.000
   13  0.000  0.000  0.000  0.000
   14  0.000  0.000  0.000  0.000
   15  0.000  0.000  0.000  0.000
   16  0.000  0.000  0.000  0.000
   17  0.000  0.000  0.000  0.000
   18  0.000  0.000  0.000  0.000
   19  0.000  0.000  0.000  0.000
   20  0.000  0.000  0.000  0.000
   21  0.000  0.000  0.000  0.000
   22  0.000  0.000  0.000  0.000
   23  0.000  0.000  0.000  0.000
   24  0.000  0.000  0.000  0.000
   25  0.000  0.000  0.000  0.000
   26  0.000  0.000  0.000  0.000
   27  0.000  0.000  0.000  0.000
   28  0.000  0.000  0.000  0.000
   29  0.000  0.000  0.000  0.000
   30  0.000  0.000  0.000  0.000
   31  0.000  0.000  0.000  0.000
   32  0.000  0.000  0.000  0.000
   33  0.000  0.000  0.000  0.000
   34  0.000  0.000  0.000  0.000
   35  0.000  0.000  0.000  0.000
   36  0.000  0.972  0.000  0.972
   37  0.000  0.001  0.000  0.001
tot    0.000  0.973  0.001  0.974
 
band     4 # energy  -30.27881181 # occ.  2.00000000
 
ion      s      p      d    tot
    1  0.000  0.000  0.000  0.000
    2  0.000  0.000  0.000  0.000
    3  0.000  0.000  0.000  0.000
    4  0.000  0.000  0.000  0.000
    5  0.000  0.000  0.000  0.000
    6  0.000  0.000  0.000  0.000
    7  0.000  0.000  0.000  0.000
    8  0.000  0.000  0.000  0.000
    9  0.000  0.000  0.000  0.000
   10  0.000  0.000  0.000  0.000
   11  0.000  0.000  0.000  0.000
   12  0.000  0.000  0.000  0.000
   13  0.000  0.000  0.000  0.000
   14  0.000  0.000  0.000  0.000
   15  0.000  0.000  0.000  0.000
   16  0.000  0.000  0.000  0.000
   17  0.000  0.000  0.000  0.000
   18  0.000  0.000  0.000  0.000
   19  0.000  0.000  0.000  0.000
   20  0.000  0.000  0.000  0.000
   21  0.000  0.000  0.000  0.000
   22  0.000  0.000  0.000  0.000
   23  0.000  0.000  0.000  0.000
   24  0.000  0.000  0.000  0.000
   25  0.000  0.000  0.000  0.000
   26  0.000  0.000  0.000  0.000
   27  0.000  0.000  0.000  0.000
   28  0.000  0.000  0.000  0.000
   29  0.000  0.000  0.000  0.000
   30  0.000  0.000  0.000  0.000
   31  0.000  0.000  0.000  0.000
   32  0.000  0.000  0.000  0.000
   33  0.000  0.000  0.000  0.000
   34  0.000  0.000  0.000  0.000
   35  0.000  0.000  0.000  0.000
   36  0.000  0.972  0.000  0.972
   37  0.000  0.001  0.000  0.001
tot    0.000  0.973  0.001  0.974
 
band     5 # energy  -11.28869074 # occ.  2.00000000
 
ion      s      p      d    tot
    1  0.000  0.000  0.000  0.000
    2  0.000  0.000  0.000  0.000
    3  0.000  0.000  0.000  0.000
    4  0.000  0.000  0.000  0.000
    5  0.000  0.000  0.000  0.000
    6  0.000  0.000  0.000  0.000
    7  0.000  0.000  0.000  0.000
    8  0.000  0.000  0.000  0.000
    9  0.000  0.000  0.000  0.000
   10  0.000  0.000  0.000  0.000
   11  0.000  0.000  0.000  0.000
   12  0.000  0.000  0.000  0.000
   13  0.000  0.000  0.000  0.000
   14  0.000  0.000  0.000  0.000
   15  0.000  0.000  0.000  0.000
   16  0.000  0.000  0.000  0.000
   17  0.000  0.000  0.000  0.000
   18  0.000  0.000  0.000  0.000
   19  0.000  0.000  0.000  0.000
   20  0.000  0.000  0.001  0.001
   21  0.000  0.000  0.001  0.001
   22  0.000  0.000  0.000  0.000
   23  0.000  0.000  0.001  0.001
   24  0.000  0.000  0.000  0.000
   25  0.000  0.000  0.000  0.000
   26  0.000  0.000  0.000  0.000
   27  0.000  0.000  0.000  0.000
   28  0.000  0.000  0.000  0.000
   29  0.000  0.000  0.000  0.000
   30  0.000  0.000  0.000  0.000
   31  0.000  0.000  0.000  0.000
   32  0.000  0.000  0.000  0.000
   33  0.000  0.000  0.000  0.000
   34  0.000  0.000  0.000  0.000
   35  0.000  0.000  0.000  0.000
   36  0.026  0.040  0.090  0.156
   37  0.620  0.007  0.000  0.627
tot    0.648  0.047  0.092  0.787
 
band     6 # energy   -6.31025162 # occ.  2.00000000
 
ion      s      p      d    tot
    1  0.006  0.001  0.000  0.006
    2  0.006  0.001  0.000  0.006
    3  0.006  0.001  0.000  0.006
    4  0.006  0.001  0.000  0.006
    5  0.006  0.001  0.000  0.006
    6  0.006  0.001  0.000  0.006
    7  0.006  0.001  0.000  0.006
    8  0.006  0.001  0.000  0.006
    9  0.006  0.001  0.000  0.006
   10  0.023  0.000  0.000  0.024
   11  0.024  0.000  0.000  0.024
   12  0.023  0.000  0.000  0.023
   13  0.024  0.000  0.000  0.024
   14  0.024  0.000  0.000  0.024
   15  0.022  0.000  0.000  0.023
   16  0.023  0.000  0.000  0.023
   17  0.022  0.000  0.000  0.023
   18  0.022  0.000  0.000  0.023
   19  0.023  0.000  0.000  0.023
   20  0.026  0.000  0.000  0.026
   21  0.026  0.000  0.000  0.026
   22  0.023  0.000  0.000  0.023
   23  0.026  0.000  0.000  0.026
   24  0.023  0.000  0.000  0.023
   25  0.023  0.000  0.000  0.023
   26  0.023  0.000  0.000  0.023
   27  0.023  0.000  0.000  0.023
   28  0.006  0.001  0.000  0.006
   29  0.005  0.001  0.000  0.006
   30  0.005  0.001  0.000  0.006
   31  0.005  0.001  0.000  0.006
   32  0.005  0.001  0.000  0.006
   33  0.005  0.001  0.000  0.006
   34  0.005  0.001  0.000  0.006
   35  0.005  0.001  0.000  0.006
   36  0.002  0.001  0.000  0.003
   37  0.001  0.000  0.000  0.001
tot    0.519  0.013  0.007  0.540
 
band     7 # energy   -5.45260016 # occ.  2.00000000
 
ion      s      p      d    tot
    1  0.008  0.000  0.000  0.008
    2  0.008  0.000  0.000  0.008
    3  0.008  0.000  0.000  0.008
    4  0.008  0.000  0.000  0.008
    5  0.008  0.000  0.000  0.008
    6  0.008  0.000  0.000  0.008
    7  0.008  0.000  0.000  0.008
    8  0.008  0.000  0.000  0.008
    9  0.008  0.000  0.000  0.008
   10  0.012  0.001  0.016  0.029
   11  0.011  0.001  0.016  0.028
   12  0.012  0.001  0.016  0.029
   13  0.011  0.001  0.016  0.028
   14  0.011  0.001  0.016  0.028
   15  0.011  0.001  0.013  0.024
   16  0.012  0.001  0.016  0.029
   17  0.011  0.001  0.013  0.024
   18  0.011  0.001  0.013  0.024
   19  0.011  0.001  0.017  0.028
   20  0.012  0.001  0.026  0.039
   21  0.012  0.001  0.026  0.039
   22  0.011  0.001  0.015  0.027
   23  0.012  0.001  0.026  0.039
   24  0.011  0.001  0.015  0.027
   25  0.011  0.001  0.017  0.028
   26  0.011  0.001  0.017  0.028
   27  0.011  0.001  0.015  0.027
   28  0.007  0.000  0.000  0.007
   29  0.006  0.000  0.000  0.006
   30  0.006  0.000  0.000  0.006
   31  0.006  0.000  0.000  0.006
   32  0.006  0.000  0.000  0.006
   33  0.006  0.000  0.000  0.006
   34  0.006  0.000  0.000  0.006
   35  0.006  0.000  0.000  0.007
   36  0.002  0.001  0.000  0.003
   37  0.001  0.000  0.000  0.001
tot    0.326  0.024  0.310  0.660
 
band     8 # energy   -5.19449055 # occ.  2.00000000
 
ion      s      p      d    tot
    1  0.010  0.000  0.012  0.022
    2  0.008  0.000  0.010  0.019
    3  0.008  0.000  0.010  0.019
    4  0.008  0.000  0.010  0.019
    5  0.007  0.000  0.009  0.016
    6  0.008  0.000  0.010  0.019
    7  0.008  0.000  0.010  0.019
    8  0.008  0.000  0.010  0.019
    9  0.008  0.000  0.009  0.018
   10  0.000  0.000  0.018  0.018
   11  0.000  0.000  0.008  0.009
   12  0.000  0.000  0.018  0.018
   13  0.000  0.000  0.008  0.009
   14  0.000  0.000  0.008  0.009
   15  0.000  0.000  0.006  0.006
   16  0.000  0.000  0.018  0.018
   17  0.000  0.000  0.006  0.006
   18  0.000  0.000  0.006  0.006
   19  0.000  0.000  0.017  0.018
   20  0.001  0.000  0.045  0.046
   21  0.001  0.000  0.045  0.046
   22  0.000  0.000  0.010  0.010
   23  0.001  0.000  0.045  0.046
   24  0.000  0.000  0.010  0.010
   25  0.000  0.000  0.017  0.018
   26  0.000  0.000  0.017  0.018
   27  0.000  0.000  0.010  0.010
   28  0.011  0.000  0.013  0.025
   29  0.014  0.000  0.019  0.032
   30  0.014  0.000  0.019  0.032
   31  0.014  0.000  0.019  0.032
   32  0.014  0.000  0.019  0.032
   33  0.014  0.000  0.019  0.032
   34  0.014  0.000  0.019  0.032
   35  0.016  0.000  0.015  0.031
   36  0.004  0.000  0.011  0.015
   37  0.000  0.001  0.000  0.001
tot    0.193  0.008  0.552  0.753
 
band     9 # energy   -5.10136486 # occ.  2.00000000
 
ion      s      p      d    tot
    1  0.000  0.000  0.006  0.007
    2  0.002  0.000  0.007  0.010
    3  0.002  0.000  0.007  0.010
    4  0.002  0.000  0.007  0.010
    5  0.007  0.000  0.004  0.011
    6  0.002  0.000  0.007  0.010
    7  0.002  0.000  0.007  0.010
    8  0.002  0.000  0.007  0.010
    9  0.004  0.000  0.003  0.006
   10  0.004  0.000  0.008  0.012
   11  0.000  0.000  0.025  0.025
   12  0.004  0.000  0.008  0.012
   13  0.000  0.000  0.025  0.025
   14  0.000  0.000  0.025  0.025
   15  0.001  0.000  0.012  0.013
   16  0.004  0.000  0.008  0.012
   17  0.001  0.000  0.012  0.013
   18  0.001  0.000  0.012  0.014
   19  0.002  0.001  0.029  0.031
   20  0.005  0.000  0.117  0.123
   21  0.005  0.000  0.117  0.122
   22  0.013  0.000  0.015  0.028
   23  0.005  0.000  0.117  0.122
   24  0.012  0.000  0.015  0.028
   25  0.002  0.001  0.029  0.031
   26  0.002  0.001  0.029  0.031
   27  0.013  0.000  0.015  0.028
   28  0.001  0.000  0.002  0.003
   29  0.000  0.000  0.003  0.004
   30  0.000  0.000  0.003  0.004
   31  0.000  0.000  0.003  0.004
   32  0.000  0.000  0.003  0.004
   33  0.000  0.000  0.003  0.004
   34  0.000  0.000  0.003  0.004
   35  0.002  0.001  0.005  0.008
   36  0.001  0.001  0.003  0.005
   37  0.001  0.001  0.000  0.003
tot    0.103  0.012  0.705  0.820
 
band    10 # energy   -5.08344511 # occ.  2.00000000
 
ion      s      p      d    tot
    1  0.000  0.000  0.007  0.007
    2  0.001  0.000  0.002  0.003
    3  0.001  0.000  0.002  0.003
    4  0.001  0.000  0.002  0.003
    5  0.000  0.000  0.004  0.004
    6  0.000  0.000  0.002  0.002
    7  0.001  0.000  0.002  0.003
    8  0.000  0.000  0.002  0.002
    9  0.000  0.000  0.001  0.001
   10  0.000  0.001  0.018  0.019
   11  0.001  0.000  0.022  0.023
   12  0.005  0.001  0.015  0.021
   13  0.001  0.000  0.022  0.023
   14  0.000  0.001  0.020  0.021
   15  0.002  0.000  0.008  0.010
   16  0.005  0.001  0.015  0.021
   17  0.002  0.000  0.008  0.010
   18  0.000  0.000  0.008  0.008
   19  0.016  0.001  0.037  0.054
   20  0.000  0.000  0.190  0.190
   21  0.020  0.000  0.054  0.074
   22  0.000  0.001  0.036  0.037
   23  0.020  0.000  0.051  0.071
   24  0.000  0.001  0.045  0.046
   25  0.000  0.001  0.022  0.024
   26  0.015  0.001  0.037  0.053
   27  0.000  0.001  0.036  0.037
   28  0.000  0.000  0.005  0.005
   29  0.000  0.000  0.008  0.008
   30  0.000  0.000  0.004  0.004
   31  0.000  0.000  0.008  0.008
   32  0.001  0.001  0.006  0.008
   33  0.000  0.000  0.004  0.004
   34  0.001  0.001  0.006  0.008
   35  0.000  0.000  0.001  0.001
   36  0.000  0.000  0.004  0.005
   37  0.000  0.001  0.000  0.001
tot    0.092  0.013  0.714  0.819
 
band    11 # energy   -5.08340320 # occ.  2.00000000
 
ion      s      p      d    tot
    1  0.000  0.000  0.007  0.007
    2  0.000  0.000  0.002  0.002
    3  0.000  0.000  0.002  0.002
    4  0.000  0.000  0.002  0.002
    5  0.000  0.000  0.004  0.004
    6  0.001  0.000  0.002  0.003
    7  0.000  0.000  0.002  0.002
    8  0.001  0.000  0.002  0.003
    9  0.000  0.000  0.001  0.001
   10  0.006  0.001  0.014  0.021
   11  0.000  0.000  0.021  0.022
   12  0.002  0.001  0.017  0.019
   13  0.000  0.000  0.021  0.022
   14  0.001  0.000  0.023  0.024
   15  0.001  0.000  0.008  0.009
   16  0.002  0.001  0.017  0.019
   17  0.001  0.000  0.008  0.009
   18  0.003  0.000  0.008  0.011
   19  0.005  0.001  0.027  0.033
   20  0.027  0.000  0.007  0.034
   21  0.007  0.000  0.142  0.149
   22  0.000  0.001  0.042  0.043
   23  0.006  0.000  0.145  0.152
   24  0.000  0.000  0.033  0.033
   25  0.021  0.000  0.042  0.063
   26  0.005  0.001  0.027  0.034
   27  0.000  0.001  0.042  0.043
   28  0.000  0.000  0.005  0.005
   29  0.001  0.000  0.004  0.005
   30  0.001  0.000  0.008  0.009
   31  0.001  0.000  0.004  0.005
   32  0.000  0.000  0.006  0.006
   33  0.000  0.000  0.008  0.009
   34  0.000  0.000  0.006  0.006
   35  0.000  0.000  0.001  0.001
   36  0.000  0.000  0.004  0.005
   37  0.000  0.001  0.000  0.001
tot    0.092  0.013  0.713  0.819
 
band    12 # energy   -5.04573610 # occ.  2.00000000
 
ion      s      p      d    tot
    1  0.000  0.000  0.003  0.003
    2  0.001  0.001  0.006  0.008
    3  0.001  0.000  0.003  0.004
    4  0.001  0.001  0.006  0.008
    5  0.000  0.000  0.008  0.009
    6  0.000  0.000  0.004  0.004
    7  0.000  0.000  0.002  0.003
    8  0.000  0.000  0.003  0.004
    9  0.000  0.000  0.001  0.001
   10  0.000  0.000  0.085  0.086
   11  0.024  0.001  0.030  0.054
   12  0.004  0.001  0.036  0.041
   13  0.022  0.001  0.033  0.056
   14  0.000  0.001  0.084  0.085
   15  0.006  0.000  0.028  0.035
   16  0.005  0.001  0.032  0.038
   17  0.006  0.001  0.027  0.033
   18  0.000  0.002  0.006  0.008
   19  0.001  0.000  0.018  0.019
   20  0.000  0.001  0.028  0.030
   21  0.008  0.001  0.040  0.049
   22  0.010  0.001  0.016  0.026
   23  0.009  0.001  0.041  0.050
   24  0.000  0.000  0.034  0.034
   25  0.000  0.000  0.034  0.034
   26  0.001  0.000  0.019  0.020
   27  0.011  0.001  0.014  0.026
   28  0.000  0.000  0.001  0.001
   29  0.000  0.000  0.003  0.003
   30  0.001  0.000  0.004  0.005
   31  0.000  0.000  0.003  0.003
   32  0.001  0.000  0.005  0.006
   33  0.001  0.000  0.004  0.005
   34  0.001  0.000  0.005  0.006
   35  0.000  0.000  0.007  0.007
   36  0.000  0.000  0.002  0.002
   37  0.000  0.000  0.000  0.000
tot    0.114  0.015  0.678  0.808
 
band    13 # energy   -5.04573337 # occ.  2.00000000
 
ion      s      p      d    tot
    1  0.000  0.000  0.003  0.003
    2  0.000  0.000  0.002  0.002
    3  0.001  0.000  0.006  0.007
    4  0.000  0.000  0.002  0.002
    5  0.000  0.000  0.008  0.009
    6  0.001  0.001  0.005  0.006
    7  0.001  0.000  0.006  0.007
    8  0.001  0.001  0.005  0.007
    9  0.000  0.000  0.001  0.001
   10  0.006  0.001  0.017  0.024
   11  0.007  0.001  0.069  0.076
   12  0.002  0.000  0.066  0.068
   13  0.008  0.001  0.065  0.074
   14  0.030  0.001  0.014  0.045
   15  0.002  0.001  0.013  0.016
   16  0.001  0.000  0.070  0.071
   17  0.002  0.001  0.014  0.017
   18  0.008  0.000  0.035  0.043
   19  0.000  0.000  0.030  0.030
   20  0.011  0.000  0.045  0.057
   21  0.003  0.001  0.033  0.037
   22  0.004  0.000  0.027  0.031
   23  0.002  0.001  0.032  0.036
   24  0.014  0.001  0.009  0.023
   25  0.001  0.000  0.014  0.015
   26  0.000  0.000  0.029  0.029
   27  0.003  0.000  0.028  0.032
   28  0.000  0.000  0.001  0.001
   29  0.002  0.000  0.005  0.007
   30  0.001  0.000  0.004  0.004
   31  0.001  0.000  0.005  0.007
   32  0.000  0.000  0.003  0.003
   33  0.001  0.000  0.003  0.004
   34  0.000  0.000  0.003  0.003
   35  0.000  0.000  0.007  0.007
   36  0.000  0.000  0.002  0.002
   37  0.000  0.000  0.000  0.000
tot    0.114  0.015  0.678  0.808
 
band    14 # energy   -5.03607608 # occ.  2.00000000
 
ion      s      p      d    tot
    1  0.005  0.001  0.000  0.006
    2  0.001  0.000  0.007  0.007
    3  0.001  0.000  0.007  0.007
    4  0.001  0.000  0.007  0.007
    5  0.000  0.001  0.013  0.014
    6  0.001  0.000  0.007  0.007
    7  0.001  0.000  0.007  0.007
    8  0.001  0.000  0.007  0.007
    9  0.001  0.000  0.000  0.001
   10  0.009  0.001  0.009  0.019
   11  0.011  0.000  0.068  0.080
   12  0.009  0.001  0.009  0.019
   13  0.011  0.000  0.068  0.080
   14  0.011  0.000  0.067  0.079
   15  0.001  0.000  0.035  0.037
   16  0.009  0.001  0.009  0.019
   17  0.001  0.000  0.035  0.037
   18  0.001  0.000  0.035  0.037
   19  0.006  0.000  0.022  0.029
   20  0.003  0.001  0.039  0.042
   21  0.003  0.001  0.038  0.042
   22  0.001  0.000  0.029  0.030
   23  0.003  0.001  0.038  0.042
   24  0.001  0.000  0.029  0.030
   25  0.006  0.000  0.022  0.029
   26  0.006  0.000  0.022  0.029
   27  0.001  0.000  0.029  0.030
   28  0.002  0.000  0.001  0.003
   29  0.000  0.000  0.004  0.005
   30  0.000  0.000  0.004  0.005
   31  0.000  0.000  0.004  0.005
   32  0.000  0.000  0.004  0.005
   33  0.000  0.000  0.004  0.005
   34  0.000  0.000  0.004  0.005
   35  0.000  0.000  0.003  0.004
   36  0.001  0.000  0.000  0.001
   37  0.000  0.000  0.000  0.000
tot    0.106  0.015  0.690  0.811
 
band    15 # energy   -5.02532087 # occ.  2.00000000
 
ion      s      p      d    tot
    1  0.004  0.000  0.001  0.006
    2  0.001  0.000  0.009  0.010
    3  0.001  0.000  0.009  0.010
    4  0.001  0.000  0.009  0.010
    5  0.006  0.000  0.007  0.014
    6  0.001  0.000  0.009  0.010
    7  0.001  0.000  0.009  0.010
    8  0.001  0.000  0.009  0.010
    9  0.001  0.001  0.016  0.019
   10  0.000  0.000  0.067  0.068
   11  0.003  0.001  0.018  0.022
   12  0.000  0.000  0.067  0.068
   13  0.003  0.001  0.018  0.022
   14  0.003  0.001  0.018  0.023
   15  0.015  0.000  0.025  0.040
   16  0.000  0.000  0.067  0.068
   17  0.015  0.000  0.025  0.040
   18  0.015  0.000  0.025  0.040
   19  0.007  0.000  0.017  0.023
   20  0.006  0.000  0.019  0.025
   21  0.006  0.000  0.019  0.025
   22  0.000  0.001  0.020  0.021
   23  0.006  0.000  0.019  0.025
   24  0.000  0.001  0.020  0.021
   25  0.007  0.000  0.017  0.024
   26  0.007  0.000  0.017  0.023
   27  0.000  0.001  0.020  0.021
   28  0.004  0.001  0.003  0.008
   29  0.000  0.000  0.014  0.015
   30  0.000  0.000  0.014  0.015
   31  0.000  0.000  0.014  0.015
   32  0.000  0.000  0.014  0.015
   33  0.000  0.000  0.014  0.015
   34  0.000  0.000  0.014  0.015
   35  0.001  0.000  0.000  0.001
   36  0.004  0.001  0.001  0.006
   37  0.000  0.000  0.000  0.000
tot    0.126  0.013  0.665  0.805
 
band    16 # energy   -5.01776630 # occ.  2.00000000
 
ion      s      p      d    tot
    1  0.004  0.000  0.027  0.031
    2  0.007  0.000  0.018  0.025
    3  0.007  0.000  0.018  0.025
    4  0.007  0.000  0.018  0.025
    5  0.005  0.000  0.009  0.013
    6  0.007  0.000  0.018  0.025
    7  0.007  0.000  0.018  0.025
    8  0.007  0.000  0.018  0.025
    9  0.013  0.000  0.018  0.031
   10  0.004  0.000  0.020  0.025
   11  0.001  0.000  0.017  0.018
   12  0.004  0.000  0.020  0.025
   13  0.001  0.000  0.017  0.018
   14  0.001  0.000  0.017  0.018
   15  0.000  0.000  0.014  0.014
   16  0.004  0.000  0.020  0.025
   17  0.000  0.000  0.014  0.014
   18  0.000  0.000  0.014  0.014
   19  0.000  0.001  0.005  0.006
   20  0.002  0.000  0.020  0.022
   21  0.002  0.000  0.020  0.022
   22  0.003  0.000  0.026  0.028
   23  0.002  0.000  0.020  0.022
   24  0.003  0.000  0.025  0.028
   25  0.000  0.001  0.005  0.006
   26  0.000  0.001  0.005  0.006
   27  0.003  0.000  0.026  0.028
   28  0.013  0.000  0.012  0.025
   29  0.007  0.000  0.020  0.026
   30  0.007  0.000  0.020  0.026
   31  0.007  0.000  0.020  0.026
   32  0.007  0.000  0.020  0.026
   33  0.007  0.000  0.020  0.026
   34  0.007  0.000  0.020  0.026
   35  0.007  0.000  0.029  0.036
   36  0.000  0.000  0.003  0.003
   37  0.000  0.000  0.000  0.000
tot    0.154  0.008  0.626  0.787
 
band    17 # energy   -5.00122962 # occ.  2.00000000
 
ion      s      p      d    tot
    1  0.000  0.001  0.008  0.009
    2  0.004  0.001  0.005  0.010
    3  0.002  0.000  0.005  0.008
    4  0.004  0.001  0.006  0.011
    5  0.000  0.000  0.009  0.009
    6  0.001  0.000  0.007  0.008
    7  0.002  0.000  0.005  0.007
    8  0.000  0.000  0.007  0.008
    9  0.000  0.000  0.011  0.012
   10  0.018  0.000  0.010  0.027
   11  0.000  0.000  0.013  0.014
   12  0.006  0.000  0.036  0.042
   13  0.001  0.000  0.015  0.016
   14  0.002  0.000  0.025  0.027
   15  0.001  0.000  0.041  0.042
   16  0.003  0.000  0.042  0.045
   17  0.002  0.000  0.037  0.039
   18  0.007  0.000  0.017  0.025
   19  0.002  0.000  0.064  0.066
   20  0.001  0.000  0.046  0.047
   21  0.000  0.001  0.028  0.029
   22  0.006  0.000  0.043  0.049
   23  0.000  0.001  0.025  0.026
   24  0.017  0.000  0.012  0.029
   25  0.009  0.000  0.012  0.021
   26  0.003  0.000  0.056  0.059
   27  0.003  0.000  0.049  0.052
   28  0.000  0.000  0.010  0.011
   29  0.000  0.000  0.009  0.009
   30  0.002  0.000  0.004  0.006
   31  0.001  0.000  0.010  0.011
   32  0.004  0.001  0.008  0.013
   33  0.003  0.000  0.004  0.007
   34  0.004  0.001  0.007  0.012
   35  0.000  0.000  0.005  0.006
   36  0.000  0.000  0.002  0.002
   37  0.000  0.000  0.000  0.000
tot    0.108  0.012  0.694  0.815
 
band    18 # energy   -5.00122459 # occ.  2.00000000
 
ion      s      p      d    tot
    1  0.000  0.001  0.008  0.009
    2  0.000  0.000  0.007  0.007
    3  0.002  0.001  0.007  0.010
    4  0.000  0.000  0.006  0.007
    5  0.000  0.000  0.009  0.009
    6  0.004  0.001  0.004  0.009
    7  0.003  0.001  0.007  0.010
    8  0.004  0.001  0.005  0.010
    9  0.000  0.000  0.011  0.012
   10  0.000  0.000  0.049  0.049
   11  0.001  0.000  0.022  0.024
   12  0.012  0.000  0.022  0.034
   13  0.001  0.000  0.020  0.022
   14  0.000  0.000  0.011  0.011
   15  0.006  0.000  0.022  0.029
   16  0.015  0.000  0.017  0.031
   17  0.005  0.000  0.026  0.032
   18  0.000  0.000  0.046  0.046
   19  0.007  0.000  0.023  0.031
   20  0.000  0.001  0.020  0.021
   21  0.001  0.000  0.038  0.039
   22  0.012  0.000  0.026  0.038
   23  0.001  0.000  0.041  0.043
   24  0.000  0.000  0.057  0.057
   25  0.000  0.000  0.076  0.076
   26  0.006  0.000  0.032  0.039
   27  0.014  0.000  0.020  0.034
   28  0.000  0.000  0.010  0.011
   29  0.004  0.001  0.005  0.010
   30  0.003  0.001  0.010  0.013
   31  0.004  0.001  0.004  0.009
   32  0.000  0.000  0.006  0.006
   33  0.002  0.001  0.010  0.013
   34  0.000  0.000  0.007  0.007
   35  0.000  0.000  0.005  0.006
   36  0.000  0.000  0.002  0.002
   37  0.000  0.000  0.000  0.000
tot    0.108  0.012  0.694  0.815
 
band    19 # energy   -4.99007101 # occ.  2.00000000
 
ion      s      p      d    tot
    1  0.005  0.000  0.004  0.009
    2  0.000  0.000  0.008  0.008
    3  0.000  0.000  0.008  0.008
    4  0.000  0.000  0.008  0.008
    5  0.000  0.000  0.004  0.005
    6  0.000  0.000  0.008  0.008
    7  0.000  0.000  0.008  0.008
    8  0.000  0.000  0.008  0.008
    9  0.000  0.000  0.003  0.003
   10  0.000  0.000  0.036  0.036
   11  0.004  0.000  0.009  0.013
   12  0.000  0.000  0.035  0.036
   13  0.004  0.000  0.009  0.013
   14  0.004  0.000  0.009  0.013
   15  0.001  0.000  0.047  0.048
   16  0.000  0.000  0.035  0.035
   17  0.001  0.000  0.047  0.048
   18  0.001  0.000  0.047  0.048
   19  0.004  0.000  0.056  0.060
   20  0.001  0.001  0.013  0.015
   21  0.001  0.001  0.013  0.015
   22  0.000  0.000  0.050  0.050
   23  0.001  0.001  0.013  0.015
   24  0.000  0.000  0.050  0.050
   25  0.004  0.000  0.056  0.060
   26  0.004  0.000  0.056  0.060
   27  0.000  0.000  0.050  0.050
   28  0.001  0.000  0.021  0.023
   29  0.001  0.000  0.014  0.014
   30  0.001  0.000  0.013  0.014
   31  0.001  0.000  0.014  0.014
   32  0.001  0.000  0.014  0.014
   33  0.001  0.000  0.013  0.014
   34  0.001  0.000  0.014  0.014
   35  0.001  0.000  0.001  0.001
   36  0.002  0.001  0.000  0.003
   37  0.000  0.000  0.000  0.001
tot    0.046  0.007  0.793  0.846
 
band    20 # energy   -4.98889698 # occ.  2.00000000
 
ion      s      p      d    tot
    1  0.000  0.000  0.008  0.008
    2  0.000  0.000  0.009  0.009
    3  0.001  0.001  0.006  0.008
    4  0.000  0.000  0.009  0.009
    5  0.000  0.000  0.002  0.002
    6  0.001  0.000  0.005  0.006
    7  0.001  0.001  0.006  0.007
    8  0.001  0.000  0.005  0.006
    9  0.000  0.000  0.013  0.013
   10  0.006  0.000  0.047  0.053
   11  0.000  0.000  0.055  0.056
   12  0.002  0.000  0.020  0.022
   13  0.001  0.000  0.054  0.055
   14  0.002  0.000  0.021  0.023
   15  0.003  0.000  0.086  0.089
   16  0.001  0.000  0.019  0.021
   17  0.004  0.000  0.083  0.087
   18  0.014  0.000  0.014  0.029
   19  0.000  0.000  0.048  0.048
   20  0.000  0.000  0.034  0.034
   21  0.000  0.000  0.016  0.016
   22  0.000  0.000  0.033  0.033
   23  0.000  0.000  0.015  0.015
   24  0.001  0.000  0.033  0.035
   25  0.001  0.001  0.011  0.012
   26  0.000  0.000  0.046  0.047
   27  0.000  0.000  0.033  0.033
   28  0.000  0.000  0.011  0.011
   29  0.002  0.000  0.007  0.009
   30  0.001  0.000  0.005  0.006
   31  0.002  0.000  0.007  0.009
   32  0.000  0.000  0.007  0.008
   33  0.000  0.000  0.005  0.006
   34  0.000  0.000  0.007  0.008
   35  0.000  0.000  0.015  0.015
   36  0.000  0.000  0.000  0.000
   37  0.000  0.000  0.000  0.000
tot    0.047  0.007  0.793  0.847
 
band    21 # energy   -4.98885683 # occ.  2.00000000
 
ion      s      p      d    tot
    1  0.000  0.000  0.008  0.008
    2  0.002  0.000  0.004  0.006
    3  0.001  0.000  0.007  0.008
    4  0.002  0.000  0.004  0.006
    5  0.000  0.000  0.002  0.002
    6  0.000  0.000  0.008  0.009
    7  0.000  0.000  0.007  0.008
    8  0.000  0.000  0.009  0.009
    9  0.000  0.000  0.013  0.013
   10  0.000  0.001  0.010  0.011
   11  0.002  0.000  0.031  0.033
   12  0.004  0.000  0.037  0.042
   13  0.002  0.000  0.033  0.034
   14  0.000  0.000  0.066  0.066
   15  0.011  0.000  0.036  0.047
   16  0.004  0.000  0.039  0.043
   17  0.010  0.000  0.039  0.050
   18  0.000  0.000  0.108  0.108
   19  0.001  0.000  0.022  0.023
   20  0.000  0.000  0.009  0.009
   21  0.000  0.000  0.027  0.027
   22  0.001  0.000  0.033  0.034
   23  0.000  0.000  0.028  0.028
   24  0.000  0.000  0.033  0.033
   25  0.000  0.000  0.059  0.059
   26  0.001  0.000  0.024  0.025
   27  0.001  0.000  0.033  0.034
   28  0.000  0.000  0.011  0.011
   29  0.000  0.000  0.006  0.006
   30  0.001  0.000  0.008  0.009
   31  0.000  0.000  0.006  0.006
   32  0.001  0.000  0.005  0.007
   33  0.001  0.000  0.008  0.009
   34  0.001  0.000  0.005  0.007
   35  0.000  0.000  0.015  0.015
   36  0.000  0.000  0.000  0.000