 vasp.6.2.0 18Jan21 (build Jun 12 2021 23:27:24) complex                        
  
 executed on             LinuxIFC date 2022.05.30  16:06:51
 running on   28 total cores
 distrk:  each k-point on   28 cores,    1 groups
 distr:  one band on NCORE=   1 cores,   28 groups


--------------------------------------------------------------------------------------------------------


 INCAR:
   ISMEAR = -5
   SIGMA = 0.1
   ISPIN = 1
   EDIFF = 1.d-5
   EDIFFG = -0.01
   NSW = 0
   NELM = 150
   ENCUT = 500
   ISIF = 2
   IBRION = 2
   LREAL = Auto
   ALGO = Fast
   ICHARG = 11
   LORBIT = 10
   LCHARG = .F.
   LWAVE = .F.

 POTCAR:    PAW_PBE Au 04Oct2007                  
 POTCAR:    PAW_PBE Zr_sv 04Jan2005               
 POTCAR:    PAW_PBE C 08Apr2002                   
 POTCAR:    PAW_PBE O 08Apr2002                   
 POTCAR:    PAW_PBE H 15Jun2001                   
 -----------------------------------------------------------------------------
|                                                                             |
|           W    W    AA    RRRRR   N    N  II  N    N   GGGG   !!!           |
|           W    W   A  A   R    R  NN   N  II  NN   N  G    G  !!!           |
|           W    W  A    A  R    R  N N  N  II  N N  N  G       !!!           |
|           W WW W  AAAAAA  RRRRR   N  N N  II  N  N N  G  GGG   !            |
|           WW  WW  A    A  R   R   N   NN  II  N   NN  G    G                |
|           W    W  A    A  R    R  N    N  II  N    N   GGGG   !!!           |
|                                                                             |
|     For optimal performance we recommend to set                             |
|       NCORE = 2 up to number-of-cores-per-socket                            |
|     NCORE specifies how many cores store one orbital (NPAR=cpu/NCORE).      |
|     This setting can greatly improve the performance of VASP for DFT.       |
|     The default, NCORE=1 might be grossly inefficient on modern             |
|     multi-core architectures or massively parallel machines. Do your        |
|     own testing! More info at https://www.vasp.at/wiki/index.php/NCORE      |
|     Unfortunately you need to use the default for GW and RPA                |
|     calculations (for HF NCORE is supported but not extensively tested      |
|     yet).                                                                   |
|                                                                             |
 -----------------------------------------------------------------------------

 POTCAR:    PAW_PBE Au 04Oct2007                  
   VRHFIN =Au: s1d10                                                                                
   LEXCH  = PE                                                                                      
   EATOM  =   926.0867 eV,   68.0654 Ry                                                             
                                                                                                    
   TITEL  = PAW_PBE Au 04Oct2007                                                                    
   LULTRA =        F    use ultrasoft PP ?                                                          
   IUNSCR =        1    unscreen: 0-lin 1-nonlin 2-no                                               
   RPACOR =    2.330    partial core radius                                                         
   POMASS =  196.966; ZVAL   =   11.000    mass and valenz                                          
   RCORE  =    2.500    outmost cutoff radius                                                       
   RWIGS  =    2.840; RWIGS  =    1.503    wigner-seitz radius (au A)                               
   ENMAX  =  229.943; ENMIN  =  172.457 eV                                                          
   ICORE  =        3    local potential                                                             
   LCOR   =        T    correct aug charges                                                         
   LPAW   =        T    paw PP                                                                      
   EAUG   =  356.670                                                                                
   DEXC   =    0.000                                                                                
   RMAX   =    2.562    core radius for proj-oper                                                   
   RAUG   =    1.300    factor for augmentation sphere                                              
   RDEP   =    2.598    radius for radial grids                                                     
   RDEPT  =    2.193    core radius for aug-charge                                                  
                                                                                                    
   Atomic configuration                                                                             
   16 entries                                                                                       
     n  l   j            E        occ.                                                              
     1  0  0.50    -80748.5001   2.0000                                                             
     2  0  0.50    -14244.7466   2.0000                                                             
     2  1  1.50    -12310.9591   6.0000                                                             
     3  0  0.50     -3362.1768   2.0000                                                             
     3  1  1.50     -2801.5463   6.0000                                                             
     3  2  2.50     -2203.8206  10.0000                                                             
     4  0  0.50      -729.8168   2.0000                                                             
     4  1  1.50      -546.0527   6.0000                                                             
     4  2  2.50      -325.7302  10.0000                                                             
     4  3  3.50       -81.1472  14.0000                                                             
     5  0  0.50      -108.3201   2.0000                                                             
     5  1  1.50       -59.7479   6.0000                                                             
     5  2  2.50        -6.8783  10.0000                                                             
     6  0  0.50        -5.7602   1.0000                                                             
     6  1  1.50        -6.8029   0.0000                                                             
     5  3  2.50        -1.3606   0.0000                                                             
   Description                                                                                      
     l       E           TYP  RCUT    TYP  RCUT                                                     
     2     -6.8782861     23  2.500                                                                 
     2     -8.2388687     23  2.500                                                                 
     0     -5.7601759     23  2.500                                                                 
     0     -0.8493231     23  2.500                                                                 
     1     -2.7211652     23  2.500                                                                 
     1     27.2116520     23  2.500                                                                 
     3     -1.3605826     23  2.500                                                                 
  local pseudopotential read in
  partial core-charges read in
  partial kinetic energy density read in
  atomic valenz-charges read in
  non local Contribution for L=           2  read in
    real space projection operators read in
  non local Contribution for L=           2  read in
    real space projection operators read in
  non local Contribution for L=           0  read in
    real space projection operators read in
  non local Contribution for L=           0  read in
    real space projection operators read in
  non local Contribution for L=           1  read in
    real space projection operators read in
  non local Contribution for L=           1  read in
    real space projection operators read in
    PAW grid and wavefunctions read in
 
   number of l-projection  operators is LMAX  =           6
   number of lm-projection operators is LMMAX =          18
 
 POTCAR:    PAW_PBE Zr_sv 04Jan2005               
   VRHFIN =Zr: 4s4p5s4d                                                                             
   LEXCH  = PE                                                                                      
   EATOM  =  1284.2219 eV,   94.3876 Ry                                                             
                                                                                                    
   TITEL  = PAW_PBE Zr_sv 04Jan2005                                                                 
   LULTRA =        F    use ultrasoft PP ?                                                          
   IUNSCR =        1    unscreen: 0-lin 1-nonlin 2-no                                               
   RPACOR =    2.200    partial core radius                                                         
   POMASS =   91.224; ZVAL   =   12.000    mass and valenz                                          
   RCORE  =    2.500    outmost cutoff radius                                                       
   RWIGS  =    3.070; RWIGS  =    1.625    wigner-seitz radius (au A)                               
   ENMAX  =  229.898; ENMIN  =  172.424 eV                                                          
   ICORE  =        3    local potential                                                             
   LCOR   =        T    correct aug charges                                                         
   LPAW   =        T    paw PP                                                                      
   EAUG   =  461.257                                                                                
   DEXC   =    0.000                                                                                
   RMAX   =    2.561    core radius for proj-oper                                                   
   RAUG   =    1.300    factor for augmentation sphere                                              
   RDEP   =    2.597    radius for radial grids                                                     
   RDEPT  =    2.007    core radius for aug-charge                                                  
                                                                                                    
   Atomic configuration                                                                             
   11 entries                                                                                       
     n  l   j            E        occ.                                                              
     1  0  0.50    -17820.0161   2.0000                                                             
     2  0  0.50     -2467.0882   2.0000                                                             
     2  1  1.50     -2199.6095   6.0000                                                             
     3  0  0.50      -402.4863   2.0000                                                             
     3  1  1.50      -315.3675   6.0000                                                             
     3  2  2.50      -172.4472  10.0000                                                             
     4  0  0.50       -52.4146   2.0000                                                             
     5  0  0.50        -3.8421   1.0000                                                             
     4  1  1.50       -30.5054   6.0000                                                             
     4  2  2.50        -2.3341   3.0000                                                             
     4  3  2.50        -1.3606   0.0000                                                             
   Description                                                                                      
     l       E           TYP  RCUT    TYP  RCUT                                                     
     0    -52.4145962     23  2.200                                                                 
     0     -3.8421270     23  2.500                                                                 
     1    -30.5053914     23  2.200                                                                 
     1     20.4087390     23  2.200                                                                 
     2     -2.3340816     23  2.500                                                                 
     2     -0.6120942     23  2.500                                                                 
     3     -4.0817478     23  2.500                                                                 
  local pseudopotential read in
  partial core-charges read in
  partial kinetic energy density read in
  atomic valenz-charges read in
  non local Contribution for L=           0  read in
    real space projection operators read in
  non local Contribution for L=           0  read in
    real space projection operators read in
  non local Contribution for L=           1  read in
    real space projection operators read in
  non local Contribution for L=           1  read in
    real space projection operators read in
  non local Contribution for L=           2  read in
    real space projection operators read in
  non local Contribution for L=           2  read in
    real space projection operators read in
    PAW grid and wavefunctions read in
 
   number of l-projection  operators is LMAX  =           6
   number of lm-projection operators is LMMAX =          18
 
 POTCAR:    PAW_PBE C 08Apr2002                   
   VRHFIN =C: s2p2                                                                                  
   LEXCH  = PE                                                                                      
   EATOM  =   147.1560 eV,   10.8157 Ry                                                             
                                                                                                    
   TITEL  = PAW_PBE C 08Apr2002                                                                     
   LULTRA =        F    use ultrasoft PP ?                                                          
   IUNSCR =        1    unscreen: 0-lin 1-nonlin 2-no                                               
   RPACOR =    1.200    partial core radius                                                         
   POMASS =   12.011; ZVAL   =    4.000    mass and valenz                                          
   RCORE  =    1.500    outmost cutoff radius                                                       
   RWIGS  =    1.630; RWIGS  =    0.863    wigner-seitz radius (au A)                               
   ENMAX  =  400.000; ENMIN  =  300.000 eV                                                          
   ICORE  =        2    local potential                                                             
   LCOR   =        T    correct aug charges                                                         
   LPAW   =        T    paw PP                                                                      
   EAUG   =  644.873                                                                                
   DEXC   =    0.000                                                                                
   RMAX   =    1.529    core radius for proj-oper                                                   
   RAUG   =    1.300    factor for augmentation sphere                                              
   RDEP   =    1.501    radius for radial grids                                                     
   RDEPT  =    1.300    core radius for aug-charge                                                  
                                                                                                    
   Atomic configuration                                                                             
    4 entries                                                                                       
     n  l   j            E        occ.                                                              
     1  0  0.50      -273.3789   2.0000                                                             
     2  0  0.50       -13.7508   2.0000                                                             
     2  1  0.50        -5.2854   2.0000                                                             
     3  2  1.50        -5.4423   0.0000                                                             
   Description                                                                                      
     l       E           TYP  RCUT    TYP  RCUT                                                     
     0    -13.7508458     23  1.200                                                                 
     0     -8.2022199     23  1.200                                                                 
     1     -5.2854383     23  1.500                                                                 
     1     34.0145650     23  1.500                                                                 
     2     -5.4423304      7  1.500                                                                 
  local pseudopotential read in
  partial core-charges read in
  partial kinetic energy density read in
  atomic valenz-charges read in
  non local Contribution for L=           0  read in
    real space projection operators read in
  non local Contribution for L=           0  read in
    real space projection operators read in
  non local Contribution for L=           1  read in
    real space projection operators read in
  non local Contribution for L=           1  read in
    real space projection operators read in
    PAW grid and wavefunctions read in
 
   number of l-projection  operators is LMAX  =           4
   number of lm-projection operators is LMMAX =           8
 
 POTCAR:    PAW_PBE O 08Apr2002                   
   VRHFIN =O: s2p4                                                                                  
   LEXCH  = PE                                                                                      
   EATOM  =   432.3788 eV,   31.7789 Ry                                                             
                                                                                                    
   TITEL  = PAW_PBE O 08Apr2002                                                                     
   LULTRA =        F    use ultrasoft PP ?                                                          
   IUNSCR =        1    unscreen: 0-lin 1-nonlin 2-no                                               
   RPACOR =    1.200    partial core radius                                                         
   POMASS =   16.000; ZVAL   =    6.000    mass and valenz                                          
   RCORE  =    1.520    outmost cutoff radius                                                       
   RWIGS  =    1.550; RWIGS  =    0.820    wigner-seitz radius (au A)                               
   ENMAX  =  400.000; ENMIN  =  300.000 eV                                                          
   ICORE  =        2    local potential                                                             
   LCOR   =        T    correct aug charges                                                         
   LPAW   =        T    paw PP                                                                      
   EAUG   =  605.392                                                                                
   DEXC   =    0.000                                                                                
   RMAX   =    1.553    core radius for proj-oper                                                   
   RAUG   =    1.300    factor for augmentation sphere                                              
   RDEP   =    1.550    radius for radial grids                                                     
   RDEPT  =    1.329    core radius for aug-charge                                                  
                                                                                                    
   Atomic configuration                                                                             
    4 entries                                                                                       
     n  l   j            E        occ.                                                              
     1  0  0.50      -514.6923   2.0000                                                             
     2  0  0.50       -23.9615   2.0000                                                             
     2  1  0.50        -9.0305   4.0000                                                             
     3  2  1.50        -9.5241   0.0000                                                             
   Description                                                                                      
     l       E           TYP  RCUT    TYP  RCUT                                                     
     0    -23.9615318     23  1.200                                                                 
     0     -9.5240782     23  1.200                                                                 
     1     -9.0304911     23  1.520                                                                 
     1      8.1634956     23  1.520                                                                 
     2     -9.5240782      7  1.500                                                                 
  local pseudopotential read in
  partial core-charges read in
  partial kinetic energy density read in
  kinetic energy density of atom read in
  atomic valenz-charges read in
  non local Contribution for L=           0  read in
    real space projection operators read in
  non local Contribution for L=           0  read in
    real space projection operators read in
  non local Contribution for L=           1  read in
    real space projection operators read in
  non local Contribution for L=           1  read in
    real space projection operators read in
    PAW grid and wavefunctions read in
 
   number of l-projection  operators is LMAX  =           4
   number of lm-projection operators is LMMAX =           8
 
 POTCAR:    PAW_PBE H 15Jun2001                   
   VRHFIN =H: ultrasoft test                                                                        
   LEXCH  = PE                                                                                      
   EATOM  =    12.4884 eV,    0.9179 Ry                                                             
                                                                                                    
   TITEL  = PAW_PBE H 15Jun2001                                                                     
   LULTRA =        F    use ultrasoft PP ?                                                          
   IUNSCR =        0    unscreen: 0-lin 1-nonlin 2-no                                               
   RPACOR =    0.000    partial core radius                                                         
   POMASS =    1.000; ZVAL   =    1.000    mass and valenz                                          
   RCORE  =    1.100    outmost cutoff radius                                                       
   RWIGS  =    0.700; RWIGS  =    0.370    wigner-seitz radius (au A)                               
   ENMAX  =  250.000; ENMIN  =  200.000 eV                                                          
   RCLOC  =    0.701    cutoff for local pot                                                        
   LCOR   =        T    correct aug charges                                                         
   LPAW   =        T    paw PP                                                                      
   EAUG   =  400.000                                                                                
   RMAX   =    1.123    core radius for proj-oper                                                   
   RAUG   =    1.200    factor for augmentation sphere                                              
   RDEP   =    1.112    radius for radial grids                                                     
   RDEPT  =    0.926    core radius for aug-charge                                                  
                                                                                                    
   Atomic configuration                                                                             
    2 entries                                                                                       
     n  l   j            E        occ.                                                              
     1  0  0.50        -6.4927   1.0000                                                             
     2  1  0.50        -3.4015   0.0000                                                             
   Description                                                                                      
     l       E           TYP  RCUT    TYP  RCUT                                                     
     0     -6.4927494     23  1.100                                                                 
     0      6.8029130     23  1.100                                                                 
     1     -4.0817478     23  1.100                                                                 
  local pseudopotential read in
  atomic valenz-charges read in
  non local Contribution for L=           0  read in
    real space projection operators read in
  non local Contribution for L=           0  read in
    real space projection operators read in
  non local Contribution for L=           1  read in
    real space projection operators read in
    PAW grid and wavefunctions read in
 
   number of l-projection  operators is LMAX  =           3
   number of lm-projection operators is LMMAX =           5
 
 Optimization of the real space projectors (new method)

 maximal supplied QI-value         = 15.12
 optimisation between [QCUT,QGAM] = [ 11.34, 22.83] = [ 36.00,145.93] Ry 
 Optimized for a Real-space Cutoff    1.39 Angstroem

   l    n(q)    QCUT    max X(q) W(low)/X(q) W(high)/X(q)  e(spline) 
   2      9    11.338    60.898    0.39E-03    0.42E-03    0.21E-06
   2      9    11.338    58.894    0.40E-03    0.42E-03    0.22E-06
   0      9    11.338   109.617    0.13E-03    0.20E-04    0.13E-06
   0      9    11.338    75.026    0.13E-03    0.20E-04    0.13E-06
   1      9    11.338    16.344    0.33E-04    0.24E-03    0.18E-06
   1      9    11.338    10.160    0.26E-04    0.19E-03    0.15E-06
 Optimization of the real space projectors (new method)

 maximal supplied QI-value         = 15.12
 optimisation between [QCUT,QGAM] = [ 11.34, 22.83] = [ 36.00,145.93] Ry 
 Optimized for a Real-space Cutoff    1.47 Angstroem

   l    n(q)    QCUT    max X(q) W(low)/X(q) W(high)/X(q)  e(spline) 
   0     10    11.338    12.107    0.38E-04    0.13E-04    0.27E-07
   0     10    11.338     9.948    0.69E-04    0.30E-04    0.38E-07
   1     10    11.338     3.563    0.26E-04    0.18E-04    0.40E-07
   1     10    11.338     4.524    0.25E-03    0.39E-04    0.44E-06
   2      9    11.338    87.261    0.26E-03    0.91E-05    0.26E-06
   2      9    11.338    70.950    0.25E-03    0.91E-05    0.25E-06
 Optimization of the real space projectors (new method)

 maximal supplied QI-value         = 25.13
 optimisation between [QCUT,QGAM] = [ 11.31, 22.87] = [ 35.82,146.48] Ry 
 Optimized for a Real-space Cutoff    1.00 Angstroem

   l    n(q)    QCUT    max X(q) W(low)/X(q) W(high)/X(q)  e(spline) 
   0      7    11.310   115.676    0.43E-03    0.13E-02    0.19E-06
   0      7    11.310    87.132    0.43E-03    0.13E-02    0.18E-06
   1      6    11.310     4.429    0.42E-03    0.74E-03    0.11E-06
   1      6    11.310     2.733    0.34E-03    0.55E-03    0.92E-07
 Optimization of the real space projectors (new method)

 maximal supplied QI-value         = 24.76
 optimisation between [QCUT,QGAM] = [ 11.39, 22.77] = [ 36.31,145.25] Ry 
 Optimized for a Real-space Cutoff    1.00 Angstroem

   l    n(q)    QCUT    max X(q) W(low)/X(q) W(high)/X(q)  e(spline) 
   0      7    11.387    20.381    0.39E-03    0.13E-02    0.15E-06
   0      7    11.387    15.268    0.42E-03    0.14E-02    0.17E-06
   1      6    11.387     5.964    0.41E-03    0.11E-02    0.17E-06
   1      6    11.387     5.382    0.39E-03    0.87E-03    0.15E-06
 Optimization of the real space projectors (new method)

 maximal supplied QI-value         = 34.20
 optimisation between [QCUT,QGAM] = [ 11.29, 22.57] = [ 35.68,142.71] Ry 
 Optimized for a Real-space Cutoff    1.16 Angstroem

   l    n(q)    QCUT    max X(q) W(low)/X(q) W(high)/X(q)  e(spline) 
   0      8    11.287    19.460    0.40E-03    0.73E-03    0.16E-06
   0      8    11.287    12.209    0.38E-03    0.70E-03    0.15E-06
   1      7    11.287     4.655    0.22E-03    0.25E-04    0.22E-06
  PAW_PBE Au 04Oct2007                  :
 energy of atom  1       EATOM= -926.0867
 kinetic energy error for atom=    0.0042 (will be added to EATOM!!)
  PAW_PBE Zr_sv 04Jan2005               :
 energy of atom  2       EATOM=-1284.2219
 kinetic energy error for atom=    0.0049 (will be added to EATOM!!)
  PAW_PBE C 08Apr2002                   :
 energy of atom  3       EATOM= -147.1560
 kinetic energy error for atom=    0.0076 (will be added to EATOM!!)
  PAW_PBE O 08Apr2002                   :
 energy of atom  4       EATOM= -432.3788
 kinetic energy error for atom=    0.0224 (will be added to EATOM!!)
  PAW_PBE H 15Jun2001                   :
 energy of atom  5       EATOM=  -12.4884
 kinetic energy error for atom=    0.0020 (will be added to EATOM!!)
 
 
 POSCAR: Au-Zr-COH
  positions in direct lattice
  velocities in cartesian coordinates
 exchange correlation table for  LEXCH =        8
   RHO(1)=    0.500       N(1)  =     2000
   RHO(2)=  100.500       N(2)  =     4000

 VTST: version 3.2, (02/03/18)

 CHAIN: initializing optimizer
 
 OPT: Using VASP Conjugate-Gradient optimizer
 CHAIN: Read ICHAIN            0
 
 POSCAR: Au-Zr-COH
  positions in direct lattice
  velocities in cartesian coordinates
 


--------------------------------------------------------------------------------------------------------


 ion  position               nearest neighbor table
   1  0.000  0.000  0.197-  16 2.94  12 2.94   6 2.94   8 2.94   7 2.94   3 2.94  10 2.94   4 2.94
                             2 2.94
   2  0.333  0.000  0.197-   9 2.94  11 2.94  17 2.94  10 2.94   8 2.94   4 2.94   5 2.94   1 2.94
                             3 2.94
   3  0.667  0.000  0.197-   7 2.94  18 2.94  12 2.94   1 2.94  11 2.94   5 2.94   6 2.94   9 2.94
                             2 2.94
   4  0.000  0.333  0.197-  10 2.94   6 2.94   5 2.94  13 2.94   2 2.94  15 2.94   9 2.94   1 2.94
                             7 2.94
   5  0.333  0.333  0.197-  13 2.94   7 2.94  11 2.94   4 2.94   2 2.94  14 2.94   3 2.94   8 2.94
                             6 2.94
   6  0.667  0.333  0.197-  15 2.94  14 2.94   1 2.94  12 2.94   4 2.94   9 2.94   8 2.94   3 2.94
                             5 2.94
   7  0.000  0.667  0.197-  18 2.94   3 2.94  16 2.94   5 2.94   1 2.94  13 2.94   8 2.94   4 2.94
                             9 2.94
   8  0.333  0.667  0.197-   9 2.94  17 2.94   1 2.94   2 2.94  14 2.94  16 2.94   6 2.94   7 2.94
                             5 2.94
   9  0.667  0.667  0.197-   2 2.94   8 2.94  17 2.94   6 2.94  15 2.94   4 2.94   3 2.94  18 2.94
                             7 2.94
  10  0.111  0.111  0.287-  20 2.93  26 2.93  19 2.93  11 2.94  17 2.94   2 2.94   4 2.94   1 2.94
                            12 2.94  16 2.94  13 2.94  15 2.94
  11  0.444  0.111  0.287-  20 2.92  21 2.92  27 2.94  13 2.94   2 2.94  10 2.94  17 2.94   5 2.94
                             3 2.94  18 2.94  14 2.94  12 2.94
  12  0.778  0.111  0.287-  21 2.93  25 2.93  19 2.93  16 2.94  18 2.94   1 2.94  14 2.94  15 2.94
                             3 2.94   6 2.94  10 2.94  11 2.94
  13  0.111  0.444  0.287-  23 2.92  20 2.92  22 2.94   5 2.94  18 2.94  11 2.94   7 2.94   4 2.94
                            16 2.94  10 2.94  14 2.94  15 2.94
  14  0.444  0.444  0.287-  21 2.92  23 2.92  24 2.94  15 2.94   6 2.94  12 2.94   8 2.94  17 2.94
                             5 2.94  16 2.94  13 2.94  11 2.94
  15  0.778  0.444  0.287-  24 2.93  22 2.93  19 2.93  14 2.94   6 2.94  17 2.94  12 2.94   9 2.94
                             4 2.94  10 2.94  13 2.94  18 2.94
  16  0.111  0.778  0.287-  23 2.93  25 2.93  26 2.93  18 2.94  12 2.94   7 2.94   1 2.94   8 2.94
                            13 2.94  10 2.94  14 2.94  17 2.94
  17  0.444  0.778  0.287-  27 2.93  24 2.93  26 2.93   9 2.94  15 2.94   2 2.94  10 2.94  11 2.94
                             8 2.94  14 2.94  16 2.94  18 2.94
  18  0.778  0.778  0.287-  22 2.93  27 2.93  25 2.93  16 2.94   7 2.94  13 2.94  12 2.94   3 2.94
                            11 2.94   9 2.94  15 2.94  17 2.94
  19  0.889  0.222  0.376-  10 2.93  12 2.93  15 2.93  26 2.94  25 2.94  24 2.94  22 2.94  21 2.95
                            20 2.95  28 2.96  32 3.04  31 3.04
  20  0.223  0.223  0.376-  36 2.86  23 2.92  21 2.92  11 2.92  13 2.92  10 2.93  27 2.94  22 2.94
                            26 2.95  19 2.95  29 3.00  31 3.00
  21  0.554  0.223  0.376-  36 2.86  20 2.92  23 2.92  14 2.92  11 2.92  12 2.93  27 2.94  24 2.94
                            25 2.95  19 2.95  30 3.00  32 3.00
  22  0.888  0.556  0.376-  24 2.92  27 2.92  18 2.93  15 2.93  13 2.94  25 2.94  19 2.94  23 2.94
                            20 2.94  35 2.96  33 3.01  31 3.01
  23  0.223  0.554  0.376-  36 2.86  20 2.92  21 2.92  13 2.92  14 2.92  16 2.93  22 2.94  24 2.94
                            25 2.95  26 2.95  33 3.00  34 3.00
  24  0.556  0.556  0.376-  27 2.92  22 2.92  15 2.93  17 2.93  14 2.94  26 2.94  19 2.94  21 2.94
                            23 2.94  35 2.96  32 3.01  34 3.01
  25  0.889  0.889  0.376-  16 2.93  12 2.93  18 2.93  19 2.94  26 2.94  22 2.94  27 2.94  23 2.95
                            21 2.95  28 2.96  33 3.04  30 3.04
  26  0.222  0.889  0.376-  10 2.93  16 2.93  17 2.93  19 2.94  25 2.94  27 2.94  24 2.94  20 2.95
                            23 2.95  28 2.96  29 3.04  34 3.04
  27  0.556  0.888  0.376-  24 2.92  22 2.92  17 2.93  18 2.93  11 2.94  26 2.94  25 2.94  20 2.94
                            21 2.94  35 2.96  29 3.01  30 3.01
  28  0.000  0.000  0.467-  25 2.96  19 2.96  26 2.96  34 2.97  32 2.97  33 2.97  30 2.97  31 2.97
                            29 2.97
  29  0.334  0.006  0.469-  30 2.88  31 2.89  36 2.89  35 2.96  28 2.97  20 3.00  27 3.01  26 3.04
                            34 3.04
  30  0.661  0.006  0.469-  29 2.88  32 2.89  36 2.89  35 2.96  28 2.97  21 3.00  27 3.01  25 3.04
                            33 3.04
  31  0.006  0.334  0.469-  33 2.88  29 2.89  36 2.89  35 2.96  28 2.97  20 3.00  22 3.01  19 3.04
                            32 3.04
  32  0.661  0.334  0.469-  34 2.88  30 2.89  36 2.89  35 2.96  28 2.97  21 3.00  24 3.01  19 3.04
                            31 3.04
  33  0.006  0.661  0.469-  31 2.88  34 2.89  36 2.89  35 2.96  28 2.97  23 3.00  22 3.01  25 3.04
                            30 3.04
  34  0.334  0.661  0.469-  32 2.88  33 2.89  36 2.89  35 2.96  28 2.97  23 3.00  24 3.01  26 3.04
                            29 3.04
  35  0.667  0.667  0.467-  24 2.96  27 2.96  22 2.96  29 2.96  34 2.96  32 2.96  31 2.96  30 2.96
                            33 2.96
  36  0.333  0.333  0.462-  37 2.09  20 2.86  23 2.86  21 2.86  33 2.89  31 2.89  29 2.89  30 2.89
                            34 2.89  32 2.89
  37  0.333  0.333  0.541-  38 1.26  36 2.09
  38  0.333  0.333  0.588-  39 0.96  37 1.26
  39  0.333  0.333  0.623-  38 0.96
 
  LATTYP: Found a hexagonal cell.
 ALAT       =     8.8135128021
 C/A-ratio  =     3.0356784858
  
  Lattice vectors:
  
 A1 = (  -4.4067569092,  -7.6327256898,   0.0000000000)
 A2 = (   8.8135128021,   0.0000000000,   0.0000000000)
 A3 = (   0.0000000000,   0.0000000000,  26.7549911976)


Analysis of symmetry for initial positions (statically):
=====================================================================
 Subroutine PRICEL returns:
 Original cell was already a primitive cell.
 

 Routine SETGRP: Setting up the symmetry group for a 
 hexagonal supercell.


 Subroutine GETGRP returns: Found  6 space group operations
 (whereof  6 operations were pure point group operations)
 out of a pool of 24 trial point group operations.


The static configuration has the point symmetry C_3v.


Analysis of symmetry for dynamics (positions and initial velocities):
=====================================================================
 Subroutine PRICEL returns:
 Original cell was already a primitive cell.
 

 Routine SETGRP: Setting up the symmetry group for a 
 hexagonal supercell.


 Subroutine GETGRP returns: Found  6 space group operations
 (whereof  6 operations were pure point group operations)
 out of a pool of 24 trial point group operations.


The dynamic configuration has the point symmetry C_3v.


Analysis of constrained symmetry for selective dynamics:
=====================================================================
 Subroutine PRICEL returns:
 Original cell was already a primitive cell.
 

 Routine SETGRP: Setting up the symmetry group for a 
 hexagonal supercell.


 Subroutine GETGRP returns: Found  6 space group operations
 (whereof  6 operations were pure point group operations)
 out of a pool of 24 trial point group operations.


The constrained configuration has the point symmetry C_3v.


 Subroutine INISYM returns: Found  6 space group operations
 (whereof  6 operations are pure point group operations),
 and found     1 'primitive' translations


----------------------------------------------------------------------------------------

                                     Primitive cell                                     

  volume of cell :    1799.8384

  direct lattice vectors                    reciprocal lattice vectors
     8.813512802  0.000000000  0.000000000     0.113462137 -0.065507406  0.000000000
     4.406756909  7.632725690  0.000000000     0.000000000  0.131014796  0.000000000
     0.000000000  0.000000000 26.754991198     0.000000000  0.000000000  0.037376204

  length of vectors
     8.813512802  8.813512802 26.754991198     0.131014796  0.131014796  0.037376204

  position of ions in fractional coordinates (direct lattice)
     0.000000000  0.000000000  0.197360556
     0.333333343  0.000000000  0.197360556
     0.666666687  0.000000000  0.197360556
     0.000000000  0.333333343  0.197360556
     0.333333313  0.333333343  0.197360556
     0.666666687  0.333333343  0.197360556
     0.000000000  0.666666687  0.197360556
     0.333333343  0.666666687  0.197360556
     0.666666627  0.666666687  0.197360556
     0.111111119  0.111111112  0.287016131
     0.444444418  0.111111112  0.287016131
     0.777777791  0.111111112  0.287016131
     0.111111127  0.444444448  0.287016131
     0.444444478  0.444444448  0.287016131
     0.777777731  0.444444448  0.287016131
     0.111111090  0.777777791  0.287016131
     0.444444448  0.777777791  0.287016131
     0.777777851  0.777777791  0.287016131
     0.888918409  0.222163199  0.376470985
     0.222784835  0.222784820  0.376131720
     0.554430391  0.222784820  0.376131720
     0.887870934  0.556064563  0.376438827
     0.222784790  0.554430391  0.376131720
     0.556064563  0.556064563  0.376438827
     0.888918409  0.888918409  0.376470985
     0.222163229  0.888918409  0.376470985
     0.556064503  0.887870934  0.376438827
     0.000000000  0.000000000  0.467149366
     0.333504088  0.005941424  0.469442834
     0.660554518  0.005941424  0.469442834
     0.005941424  0.333504088  0.469442834
     0.660554518  0.333504088  0.469442834
     0.005941424  0.660554518  0.469442834
     0.333504088  0.660554518  0.469442834
     0.666666627  0.666666687  0.467450447
     0.333333313  0.333333343  0.462499440
     0.333333313  0.333333343  0.540589501
     0.333333313  0.333333343  0.587558156
     0.333333313  0.333333343  0.623402504

  ion indices of the primitive-cell ions
   primitive index   ion index
                 1           1
                 2           2
                 3           3
                 4           4
                 5           5
                 6           6
                 7           7
                 8           8
                 9           9
                10          10
                11          11
                12          12
                13          13
                14          14
                15          15
                16          16
                17          17
                18          18
                19          19
                20          20
                21          21
                22          22
                23          23
                24          24
                25          25
                26          26
                27          27
                28          28
                29          29
                30          30
                31          31
                32          32
                33          33
                34          34
                35          35
                36          36
                37          37
                38          38
                39          39

----------------------------------------------------------------------------------------

 
 
 KPOINTS: Automatic mesh                          

Automatic generation of k-mesh.
 Grid dimensions read from file:
 generate k-points for:    8    8    1

 Generating k-lattice:

  Cartesian coordinates                     Fractional coordinates (reciprocal lattice)
     0.014182767 -0.008188426  0.000000000     0.125000000  0.000000000  0.000000000
     0.000000000  0.016376850  0.000000000     0.000000000  0.125000000  0.000000000
     0.000000000  0.000000000  0.037376204     0.000000000  0.000000000  1.000000000

  Length of vectors
     0.016376850  0.016376850  0.037376204

  Shift w.r.t. Gamma in fractional coordinates (k-lattice)
     0.000000000  0.000000000  0.000000000

 TETIRR: Found     36 inequivalent tetrahedra from      384
 
 Subroutine IBZKPT returns following result:
 ===========================================
 
 Found     10 irreducible k-points:
 
 Following reciprocal coordinates:
            Coordinates               Weight
  0.000000  0.000000  0.000000      1.000000
  0.125000  0.000000  0.000000      6.000000
  0.250000  0.000000  0.000000      6.000000
  0.375000  0.000000  0.000000      6.000000
  0.500000  0.000000  0.000000      3.000000
  0.250000  0.125000  0.000000      6.000000
  0.375000  0.125000  0.000000     12.000000
  0.500000  0.125000  0.000000     12.000000
  0.500000  0.250000  0.000000      6.000000
 -0.375000  0.250000  0.000000      6.000000
 
 Following cartesian coordinates:
            Coordinates               Weight
  0.000000  0.000000  0.000000      1.000000
  0.014183 -0.008188  0.000000      6.000000
  0.028366 -0.016377  0.000000      6.000000
  0.042548 -0.024565  0.000000      6.000000
  0.056731 -0.032754  0.000000      3.000000
  0.028366 -0.000000  0.000000      6.000000
  0.042548 -0.008188  0.000000     12.000000
  0.056731 -0.016377  0.000000     12.000000
  0.056731 -0.000000  0.000000      6.000000
 -0.042548  0.057319  0.000000      6.000000
 


--------------------------------------------------------------------------------------------------------




 Dimension of arrays:
   k-points           NKPTS =     10   k-points in BZ     NKDIM =     10   number of bands    NBANDS=    252
   number of dos      NEDOS =    301   number of ions     NIONS =     39
   non local maximal  LDIM  =      6   non local SUM 2l+1 LMDIM =     18
   total plane-waves  NPLWV = 345600
   max r-space proj   IRMAX =   2627   max aug-charges    IRDMAX=  11941
   dimension x,y,z NGX =    48 NGY =   48 NGZ =  150
   dimension x,y,z NGXF=    96 NGYF=   96 NGZF=  300
   support grid    NGXF=    96 NGYF=   96 NGZF=  300
   ions per type =              35   1   1   1   1
   NGX,Y,Z   is equivalent  to a cutoff of   9.05,  9.05,  9.32 a.u.
   NGXF,Y,Z  is equivalent  to a cutoff of  18.11, 18.11, 18.64 a.u.

 SYSTEM =  unknown system                          
 POSCAR =  Au-Zr-COH                               

 Startparameter for this run:
   NWRITE =      2    write-flag & timer
   PREC   = normal    normal or accurate (medium, high low for compatibility)
   ISTART =      0    job   : 0-new  1-cont  2-samecut
   ICHARG =     11    charge: 1-file 2-atom 10-const
   ISPIN  =      1    spin polarized calculation?
   LNONCOLLINEAR =      F non collinear calculations
   LSORBIT =      F    spin-orbit coupling
   INIWAV =      1    electr: 0-lowe 1-rand  2-diag
   LASPH  =      F    aspherical Exc in radial PAW
   METAGGA=      F    non-selfconsistent MetaGGA calc.

 Electronic Relaxation 1
   ENCUT  =  500.0 eV  36.75 Ry    6.06 a.u.  16.07 16.07 48.78*2*pi/ulx,y,z
   ENINI  =  500.0     initial cutoff
   ENAUG  =  644.9 eV  augmentation charge cutoff
   NELM   =    150;   NELMIN=  2; NELMDL= -5     # of ELM steps 
   EDIFF  = 0.1E-04   stopping-criterion for ELM
   LREAL  =      T    real-space projection
   NLSPLINE    = F    spline interpolate recip. space projectors
   LCOMPAT=      F    compatible to vasp.4.4
   GGA_COMPAT  = T    GGA compatible to vasp.4.4-vasp.4.6
   LMAXPAW     = -100 max onsite density
   LMAXMIX     =    2 max onsite mixed and CHGCAR
   VOSKOWN=      0    Vosko Wilk Nusair interpolation
   ROPT   =   -0.00050  -0.00050  -0.00050  -0.00050
   ROPT   =   -0.00050
 Ionic relaxation
   EDIFFG = -.1E-01   stopping-criterion for IOM
   NSW    =      0    number of steps for IOM
   NBLOCK =      1;   KBLOCK =      1    inner block; outer block 
   IBRION =     -1    ionic relax: 0-MD 1-quasi-New 2-CG
   NFREE  =      1    steps in history (QN), initial steepest desc. (CG)
   ISIF   =      2    stress and relaxation
   IWAVPR =     10    prediction:  0-non 1-charg 2-wave 3-comb
   ISYM   =      2    0-nonsym 1-usesym 2-fastsym
   LCORR  =      T    Harris-Foulkes like correction to forces

   POTIM  = 0.5000    time-step for ionic-motion
   TEIN   =    0.0    initial temperature
   TEBEG  =    0.0;   TEEND  =   0.0 temperature during run
   SMASS  =  -3.00    Nose mass-parameter (am)
   estimated Nose-frequenzy (Omega)   =  0.10E-29 period in steps = 0.13E+47 mass=  -0.178E-26a.u.
   SCALEE = 1.0000    scale energy and forces
   NPACO  =    256;   APACO  = 16.0  distance and # of slots for P.C.
   PSTRESS=    0.0 pullay stress

  Mass of Ions in am
   POMASS = 196.97 91.22 12.01 16.00  1.00
  Ionic Valenz
   ZVAL   =  11.00 12.00  4.00  6.00  1.00
  Atomic Wigner-Seitz radii
   RWIGS  =  -1.00 -1.00 -1.00 -1.00 -1.00
  virtual crystal weights 
   VCA    =   1.00  1.00  1.00  1.00  1.00
   NELECT =     408.0000    total number of electrons
   NUPDOWN=      -1.0000    fix difference up-down

 DOS related values:
   EMIN   =  10.00;   EMAX   =-10.00  energy-range for DOS
   EFERMI =   0.00
   ISMEAR =    -5;   SIGMA  =   0.10  broadening in eV -4-tet -1-fermi 0-gaus

 Electronic relaxation 2 (details)
   IALGO  =     68    algorithm
   LDIAG  =      T    sub-space diagonalisation (order eigenvalues)
   LSUBROT=      F    optimize rotation matrix (better conditioning)
   TURBO    =      0    0=normal 1=particle mesh
   IRESTART =      0    0=no restart 2=restart with 2 vectors
   NREBOOT  =      0    no. of reboots
   NMIN     =      0    reboot dimension
   EREF     =   0.00    reference energy to select bands
   IMIX   =      4    mixing-type and parameters
     AMIX     =   0.40;   BMIX     =  1.00
     AMIX_MAG =   1.60;   BMIX_MAG =  1.00
     AMIN     =   0.10
     WC   =   100.;   INIMIX=   1;  MIXPRE=   1;  MAXMIX= -45

 Intra band minimization:
   WEIMIN = 0.0000     energy-eigenvalue tresh-hold
   EBREAK =  0.99E-08  absolut break condition
   DEPER  =   0.30     relativ break condition  

   TIME   =   0.40     timestep for ELM

  volume/ion in A,a.u.               =      46.15       311.43
  Fermi-wavevector in a.u.,A,eV,Ry     =   0.998199  1.886322 13.556857  0.996401
  Thomas-Fermi vector in A             =   2.130406
 
 Write flags
   LWAVE        =      F    write WAVECAR
   LDOWNSAMPLE  =      F    k-point downsampling of WAVECAR
   LCHARG       =      F    write CHGCAR
   LVTOT        =      F    write LOCPOT, total local potential
   LVHAR        =      F    write LOCPOT, Hartree potential only
   LELF         =      F    write electronic localiz. function (ELF)
   LORBIT       =     10    0 simple, 1 ext, 2 COOP (PROOUT), +10 PAW based schemes


 Dipole corrections
   LMONO  =      F    monopole corrections only (constant potential shift)
   LDIPOL =      F    correct potential (dipole corrections)
   IDIPOL =      0    1-x, 2-y, 3-z, 4-all directions 
   EPSILON=  1.0000000 bulk dielectric constant

 Exchange correlation treatment:
   GGA     =    --    GGA type
   LEXCH   =     8    internal setting for exchange type
   VOSKOWN=      0    Vosko Wilk Nusair interpolation
   LHFCALC =     F    Hartree Fock is set to
   LHFONE  =     F    Hartree Fock one center treatment
   AEXX    =    0.0000 exact exchange contribution

 Linear response parameters
   LEPSILON=     F    determine dielectric tensor
   LRPA    =     F    only Hartree local field effects (RPA)
   LNABLA  =     F    use nabla operator in PAW spheres
   LVEL    =     F    velocity operator in full k-point grid
   LINTERFAST=   F  fast interpolation
   KINTER  =     0    interpolate to denser k-point grid
   CSHIFT  =0.1000    complex shift for real part using Kramers Kronig
   OMEGAMAX=  -1.0    maximum frequency
   DEG_THRESHOLD= 0.2000000E-02 threshold for treating states as degnerate
   RTIME   =   -0.100 relaxation time in fs
  (WPLASMAI=    0.000 imaginary part of plasma frequency in eV, 0.658/RTIME)
   DFIELD  = 0.0000000 0.0000000 0.0000000 field for delta impulse in time
 
 Orbital magnetization related:
   ORBITALMAG=     F  switch on orbital magnetization
   LCHIMAG   =     F  perturbation theory with respect to B field
   DQ        =  0.001000  dq finite difference perturbation B field
   LLRAUG    =     F  two centre corrections for induced B field



--------------------------------------------------------------------------------------------------------


 Static calculation
 charge density and potential remain constant during run
 non-spin polarized calculation
 RMM-DIIS sequential band-by-band and
  variant of blocked Davidson during initial phase
 perform sub-space diagonalisation
    before iterative eigenvector-optimisation
 no mixing
 using additional bands           48
 real space projection scheme for non local part
 use partial core corrections
 calculate Harris-corrections to forces 
   (improved forces if not selfconsistent)
 use gradient corrections 
 WARNING: stress and forces are not correct
  (second derivative of E(xc) not defined)
 use of overlap-Matrix (Vanderbilt PP)
 Fermi weights with tetrahedron method with Bloechl corrections


--------------------------------------------------------------------------------------------------------


  energy-cutoff  :      500.00
  volume of cell :     1799.84
      direct lattice vectors                 reciprocal lattice vectors
     8.813512802  0.000000000  0.000000000     0.113462137 -0.065507406  0.000000000
     4.406756909  7.632725690  0.000000000     0.000000000  0.131014796  0.000000000
     0.000000000  0.000000000 26.754991198     0.000000000  0.000000000  0.037376204

  length of vectors
     8.813512802  8.813512802 26.754991198     0.131014796  0.131014796  0.037376204


 
 k-points in units of 2pi/SCALE and weight: Automatic mesh                          
   0.00000000  0.00000000  0.00000000       0.016
   0.01418277 -0.00818843  0.00000000       0.094
   0.02836553 -0.01637685  0.00000000       0.094
   0.04254830 -0.02456528  0.00000000       0.094
   0.05673107 -0.03275370  0.00000000       0.047
   0.02836553 -0.00000000  0.00000000       0.094
   0.04254830 -0.00818843  0.00000000       0.188
   0.05673107 -0.01637685  0.00000000       0.188
   0.05673107 -0.00000000  0.00000000       0.094
  -0.04254830  0.05731898  0.00000000       0.094
 
 k-points in reciprocal lattice and weights: Automatic mesh                          
   0.00000000  0.00000000  0.00000000       0.016
   0.12500000  0.00000000  0.00000000       0.094
   0.25000000  0.00000000  0.00000000       0.094
   0.37500000  0.00000000  0.00000000       0.094
   0.50000000  0.00000000  0.00000000       0.047
   0.25000000  0.12500000  0.00000000       0.094
   0.37500000  0.12500000  0.00000000       0.188
   0.50000000  0.12500000  0.00000000       0.188
   0.50000000  0.25000000  0.00000000       0.094
  -0.37500000  0.25000000  0.00000000       0.094
 
 position of ions in fractional coordinates (direct lattice) 
   0.00000000  0.00000000  0.19736056
   0.33333334  0.00000000  0.19736056
   0.66666669  0.00000000  0.19736056
   0.00000000  0.33333334  0.19736056
   0.33333331  0.33333334  0.19736056
   0.66666669  0.33333334  0.19736056
   0.00000000  0.66666669  0.19736056
   0.33333334  0.66666669  0.19736056
   0.66666663  0.66666669  0.19736056
   0.11111112  0.11111111  0.28701613
   0.44444442  0.11111111  0.28701613
   0.77777779  0.11111111  0.28701613
   0.11111113  0.44444445  0.28701613
   0.44444448  0.44444445  0.28701613
   0.77777773  0.44444445  0.28701613
   0.11111109  0.77777779  0.28701613
   0.44444445  0.77777779  0.28701613
   0.77777785  0.77777779  0.28701613
   0.88891841  0.22216320  0.37647099
   0.22278483  0.22278482  0.37613172
   0.55443039  0.22278482  0.37613172
   0.88787093  0.55606456  0.37643883
   0.22278479  0.55443039  0.37613172
   0.55606456  0.55606456  0.37643883
   0.88891841  0.88891841  0.37647099
   0.22216323  0.88891841  0.37647099
   0.55606450  0.88787093  0.37643883
   0.00000000  0.00000000  0.46714937
   0.33350409  0.00594142  0.46944283
   0.66055452  0.00594142  0.46944283
   0.00594142  0.33350409  0.46944283
   0.66055452  0.33350409  0.46944283
   0.00594142  0.66055452  0.46944283
   0.33350409  0.66055452  0.46944283
   0.66666663  0.66666669  0.46745045
   0.33333331  0.33333334  0.46249944
   0.33333331  0.33333334  0.54058950
   0.33333331  0.33333334  0.58755816
   0.33333331  0.33333334  0.62340250
 
 position of ions in cartesian coordinates  (Angst):
   0.00000000  0.00000000  5.28037993
   2.93783769  0.00000000  5.28037993
   5.87567538  0.00000000  5.28037993
   1.46891901  2.54424197  5.28037993
   4.40675643  2.54424197  5.28037993
   7.34459439  2.54424197  5.28037993
   2.93783803  5.08848395  5.28037993
   5.87567571  5.08848395  5.28037993
   8.81351288  5.08848395  5.28037993
   1.46891893  0.84808064  7.67911405
   4.40675623  0.84808064  7.67911405
   7.34459418  0.84808064  7.67911405
   2.93783798  3.39232256  7.67911405
   5.87567574  3.39232256  7.67911405
   8.81351263  3.39232256  7.67911405
   4.40675667  5.93656453  7.67911405
   7.34459449  5.93656453  7.67911405
  10.28243270  5.93656453  7.67911405
   8.81351299  1.69571075 10.07247789
   2.94527554  1.70045542 10.06340086
   5.86823789  1.70045542 10.06340086
  10.27570320  4.24428828 10.07161751
   4.40675655  4.23181509 10.06340086
   7.35132350  4.24428828 10.07161751
  11.75174111  6.78487037 10.07247789
   5.87528580  6.78487037 10.07247789
   8.81351299  6.77687529 10.07161751
   0.00000000  0.00000000 12.49857717
   2.96552496  0.04534926 12.55993889
   5.84798811  0.04534926 12.55993889
   1.52203626  2.54554522 12.55993889
   7.29147715  2.54554522 12.55993889
   2.96326800  5.04183144 12.55993889
   5.85024574  5.04183144 12.55993889
   8.81351288  5.08848395 12.50663260
   4.40675643  2.54424197 12.37416845
   4.40675643  2.54424197 14.46346734
   4.40675643  2.54424197 15.72011330
   4.40675643  2.54424197 16.67912852
 


--------------------------------------------------------------------------------------------------------


 k-point   1 :   0.0000 0.0000 0.0000  plane waves:   45655
 k-point   2 :   0.1250 0.0000 0.0000  plane waves:   45660
 k-point   3 :   0.2500 0.0000 0.0000  plane waves:   45682
 k-point   4 :   0.3750 0.0000 0.0000  plane waves:   45716
 k-point   5 :   0.5000 0.0000 0.0000  plane waves:   45700
 k-point   6 :   0.2500 0.1250 0.0000  plane waves:   45658
 k-point   7 :   0.3750 0.1250 0.0000  plane waves:   45702
 k-point   8 :   0.5000 0.1250 0.0000  plane waves:   45722
 k-point   9 :   0.5000 0.2500 0.0000  plane waves:   45712
 k-point  10 :  -0.3750 0.2500 0.0000  plane waves:   45690

 maximum and minimum number of plane-waves per node :     45722    45655

 maximum number of plane-waves:     45722
 maximum index in each direction: 
   IXMAX=   16   IYMAX=   16   IZMAX=   48
   IXMIN=  -16   IYMIN=  -16   IZMIN=  -48


 serial   3D FFT for wavefunctions
 parallel 3D FFT for charge:
    minimum data exchange during FFTs selected (reduces bandwidth)


 total amount of memory used by VASP MPI-rank0   139576. kBytes
=======================================================================

   base      :      30000. kBytes
   nonlr-proj:      13884. kBytes
   fftplans  :       5150. kBytes
   grid      :      23126. kBytes
   one-center:        606. kBytes
   wavefun   :      66810. kBytes
 
     INWAV:  cpu time    0.0000: real time    0.0000
 initial charge density was supplied:
 number of electron     407.9999956 magnetization 
 keeping initial charge density in first step


--------------------------------------------------------------------------------------------------------


 Maximum index for non-local projection operator         2494
 Maximum index for augmentation-charges          844 (set IRDMAX)


--------------------------------------------------------------------------------------------------------


 First call to EWALD:  gamma=   0.146
 Maximum number of real-space cells 4x 4x 2
 Maximum number of reciprocal cells 2x 2x 5

    FEWALD:  cpu time    0.0013: real time    0.0013


--------------------------------------- Iteration      1(   1)  ---------------------------------------


    POTLOK:  cpu time    0.0670: real time    0.0674
    SETDIJ:  cpu time    0.0048: real time    0.0049
     EDDAV:  cpu time    8.3792: real time    8.3807
 BZINTS: Fermi energy:   10.855567;  408.000000 electrons
         Band energy: 0.124103E+04;  BLOECHL correction:   -0.011408
       DOS:  cpu time    0.0101: real time    0.0102
    --------------------------------------------
      LOOP:  cpu time    8.4611: real time    8.4632

 eigenvalue-minimisations  :  5040
 total energy-change (2. order) : 0.2792593E+04  (-0.1790041E+05)
 number of electron     407.9999956 magnetization 
 augmentation part      407.9999956 magnetization 

 Free energy of the ion-electron system (eV)
  ---------------------------------------------------
  alpha Z        PSCENC =       875.69722848
  Ewald energy   TEWEN  =    164603.44842362
  -Hartree energ DENC   =   -199570.79516213
  -exchange      EXHF   =         0.00000000
  -V(xc)+E(xc)   XCENC  =       610.85917397
  PAW double counting   =     37655.94805280   -36912.68497869
  entropy T*S    EENTRO =         0.00000000
  eigenvalues    EBANDS =      1241.02578674
  atomic energy  EATOM  =     34289.09453332
  Solvation  Ediel_sol  =         0.00000000
  ---------------------------------------------------
  free energy    TOTEN  =      2792.59305811 eV

  energy without entropy =     2792.59305811  energy(sigma->0) =     2792.59305811


--------------------------------------------------------------------------------------------------------




--------------------------------------- Iteration      1(   2)  ---------------------------------------


     EDDAV:  cpu time    9.2782: real time    9.2785
 BZINTS: Fermi energy:    1.359776;  408.000000 electrons
         Band energy:-0.150811E+04;  BLOECHL correction:   -0.067057
       DOS:  cpu time    0.0099: real time    0.0099
    --------------------------------------------
      LOOP:  cpu time    9.2882: real time    9.2884

 eigenvalue-minimisations  :  5712
 total energy-change (2. order) :-0.2749140E+04  (-0.2560892E+04)
 number of electron     407.9999956 magnetization 
 augmentation part      407.9999956 magnetization 

 Free energy of the ion-electron system (eV)
  ---------------------------------------------------
  alpha Z        PSCENC =       875.69722848
  Ewald energy   TEWEN  =    164603.44842362
  -Hartree energ DENC   =   -199570.79516213
  -exchange      EXHF   =         0.00000000
  -V(xc)+E(xc)   XCENC  =       610.85917397
  PAW double counting   =     37655.94805280   -36912.68497869
  entropy T*S    EENTRO =         0.00000000
  eigenvalues    EBANDS =     -1508.11392696
  atomic energy  EATOM  =     34289.09453332
  Solvation  Ediel_sol  =         0.00000000
  ---------------------------------------------------
  free energy    TOTEN  =        43.45334441 eV

  energy without entropy =       43.45334441  energy(sigma->0) =       43.45334441


--------------------------------------------------------------------------------------------------------




--------------------------------------- Iteration      1(   3)  ---------------------------------------


     EDDAV:  cpu time   10.5297: real time   10.5298
 BZINTS: Fermi energy:    0.413941;  408.000000 electrons
         Band energy:-0.167987E+04;  BLOECHL correction:   -0.037855
       DOS:  cpu time    0.0092: real time    0.0092
    --------------------------------------------
      LOOP:  cpu time   10.5389: real time   10.5390

 eigenvalue-minimisations  :  6636
 total energy-change (2. order) :-0.1717604E+03  (-0.1669942E+03)
 number of electron     407.9999956 magnetization 
 augmentation part      407.9999956 magnetization 

 Free energy of the ion-electron system (eV)
  ---------------------------------------------------
  alpha Z        PSCENC =       875.69722848
  Ewald energy   TEWEN  =    164603.44842362
  -Hartree energ DENC   =   -199570.79516213
  -exchange      EXHF   =         0.00000000
  -V(xc)+E(xc)   XCENC  =       610.85917397
  PAW double counting   =     37655.94805280   -36912.68497869
  entropy T*S    EENTRO =         0.00000000
  eigenvalues    EBANDS =     -1679.87434062
  atomic energy  EATOM  =     34289.09453332
  Solvation  Ediel_sol  =         0.00000000
  ---------------------------------------------------
  free energy    TOTEN  =      -128.30706925 eV

  energy without entropy =     -128.30706925  energy(sigma->0) =     -128.30706925


--------------------------------------------------------------------------------------------------------




--------------------------------------- Iteration      1(   4)  ---------------------------------------


     EDDAV:  cpu time   11.3800: real time   11.3802
 BZINTS: Fermi energy:    0.374783;  408.000000 electrons
         Band energy:-0.168487E+04;  BLOECHL correction:   -0.039559
       DOS:  cpu time    0.0103: real time    0.0103
    --------------------------------------------
      LOOP:  cpu time   11.3903: real time   11.3905

 eigenvalue-minimisations  :  7308
 total energy-change (2. order) :-0.4991876E+01  (-0.4957800E+01)
 number of electron     407.9999956 magnetization 
 augmentation part      407.9999956 magnetization 

 Free energy of the ion-electron system (eV)
  ---------------------------------------------------
  alpha Z        PSCENC =       875.69722848
  Ewald energy   TEWEN  =    164603.44842362
  -Hartree energ DENC   =   -199570.79516213
  -exchange      EXHF   =         0.00000000
  -V(xc)+E(xc)   XCENC  =       610.85917397
  PAW double counting   =     37655.94805280   -36912.68497869
  entropy T*S    EENTRO =         0.00000000
  eigenvalues    EBANDS =     -1684.86621636
  atomic energy  EATOM  =     34289.09453332
  Solvation  Ediel_sol  =         0.00000000
  ---------------------------------------------------
  free energy    TOTEN  =      -133.29894499 eV

  energy without entropy =     -133.29894499  energy(sigma->0) =     -133.29894499


--------------------------------------------------------------------------------------------------------




--------------------------------------- Iteration      1(   5)  ---------------------------------------


     EDDAV:  cpu time   10.3794: real time   10.3795
 BZINTS: Fermi energy:    0.374345;  408.000000 electrons
         Band energy:-0.168500E+04;  BLOECHL correction:   -0.039553
       DOS:  cpu time    0.0096: real time    0.0096
    --------------------------------------------
      LOOP:  cpu time   10.3890: real time   10.3891

 eigenvalue-minimisations  :  6552
 total energy-change (2. order) :-0.1354929E+00  (-0.1354704E+00)
 number of electron     407.9999956 magnetization 
 augmentation part      407.9999956 magnetization 

 Free energy of the ion-electron system (eV)
  ---------------------------------------------------
  alpha Z        PSCENC =       875.69722848
  Ewald energy   TEWEN  =    164603.44842362
  -Hartree energ DENC   =   -199570.79516213
  -exchange      EXHF   =         0.00000000
  -V(xc)+E(xc)   XCENC  =       610.85917397
  PAW double counting   =     37655.94805280   -36912.68497869
  entropy T*S    EENTRO =         0.00000000
  eigenvalues    EBANDS =     -1685.00170930
  atomic energy  EATOM  =     34289.09453332
  Solvation  Ediel_sol  =         0.00000000
  ---------------------------------------------------
  free energy    TOTEN  =      -133.43443793 eV

  energy without entropy =     -133.43443793  energy(sigma->0) =     -133.43443793


--------------------------------------------------------------------------------------------------------




--------------------------------------- Iteration      1(   6)  ---------------------------------------


    EDDIAG:  cpu time    1.6632: real time    1.6665
  RMM-DIIS:  cpu time    6.3899: real time    6.3899
    ORTHCH:  cpu time    0.3058: real time    0.3058
 BZINTS: Fermi energy:    0.374341;  408.000000 electrons
         Band energy:-0.168500E+04;  BLOECHL correction:   -0.039552
       DOS:  cpu time    0.0096: real time    0.0096
    --------------------------------------------
      LOOP:  cpu time    8.3685: real time    8.3718

 eigenvalue-minimisations  :  6795
 total energy-change (2. order) :-0.2140767E-02  (-0.2141031E-02)
 number of electron     407.9999956 magnetization 
 augmentation part      407.9999956 magnetization 

 Free energy of the ion-electron system (eV)
  ---------------------------------------------------
  alpha Z        PSCENC =       875.69722848
  Ewald energy   TEWEN  =    164603.44842362
  -Hartree energ DENC   =   -199570.79516213
  -exchange      EXHF   =         0.00000000
  -V(xc)+E(xc)   XCENC  =       610.85917397
  PAW double counting   =     37655.94805280   -36912.68497869
  entropy T*S    EENTRO =         0.00000000
  eigenvalues    EBANDS =     -1685.00385007
  atomic energy  EATOM  =     34289.09453332
  Solvation  Ediel_sol  =         0.00000000
  ---------------------------------------------------
  free energy    TOTEN  =      -133.43657870 eV

  energy without entropy =     -133.43657870  energy(sigma->0) =     -133.43657870


--------------------------------------------------------------------------------------------------------




--------------------------------------- Iteration      1(   7)  ---------------------------------------


    EDDIAG:  cpu time    1.6611: real time    1.6612
  RMM-DIIS:  cpu time    9.2866: real time    9.2867
    ORTHCH:  cpu time    0.3053: real time    0.3053
 BZINTS: Fermi energy:    0.374340;  408.000000 electrons
         Band energy:-0.168501E+04;  BLOECHL correction:   -0.039552
       DOS:  cpu time    0.0098: real time    0.0098
    --------------------------------------------
      LOOP:  cpu time   11.2628: real time   11.2629

 eigenvalue-minimisations  :  9693
 total energy-change (2. order) :-0.1767696E-02  (-0.1728293E-02)
 number of electron     407.9999956 magnetization 
 augmentation part      407.9999956 magnetization 

 Free energy of the ion-electron system (eV)
  ---------------------------------------------------
  alpha Z        PSCENC =       875.69722848
  Ewald energy   TEWEN  =    164603.44842362
  -Hartree energ DENC   =   -199570.79516213
  -exchange      EXHF   =         0.00000000
  -V(xc)+E(xc)   XCENC  =       610.85917397
  PAW double counting   =     37655.94805280   -36912.68497869
  entropy T*S    EENTRO =         0.00000000
  eigenvalues    EBANDS =     -1685.00561776
  atomic energy  EATOM  =     34289.09453332
  Solvation  Ediel_sol  =         0.00000000
  ---------------------------------------------------
  free energy    TOTEN  =      -133.43834639 eV

  energy without entropy =     -133.43834639  energy(sigma->0) =     -133.43834639


--------------------------------------------------------------------------------------------------------




--------------------------------------- Iteration      1(   8)  ---------------------------------------


    EDDIAG:  cpu time    1.6664: real time    1.6666
  RMM-DIIS:  cpu time    8.1267: real time    8.1267
    ORTHCH:  cpu time    0.3055: real time    0.3055
 BZINTS: Fermi energy:    0.374339;  408.000000 electrons
         Band energy:-0.168501E+04;  BLOECHL correction:   -0.039552
       DOS:  cpu time    0.0098: real time    0.0098
    --------------------------------------------
      LOOP:  cpu time   10.1083: real time   10.1086

 eigenvalue-minimisations  :  8200
 total energy-change (2. order) :-0.2426875E-03  (-0.2210998E-03)
 number of electron     407.9999956 magnetization 
 augmentation part      407.9999956 magnetization 

 Free energy of the ion-electron system (eV)
  ---------------------------------------------------
  alpha Z        PSCENC =       875.69722848
  Ewald energy   TEWEN  =    164603.44842362
  -Hartree energ DENC   =   -199570.79516213
  -exchange      EXHF   =         0.00000000
  -V(xc)+E(xc)   XCENC  =       610.85917397
  PAW double counting   =     37655.94805280   -36912.68497869
  entropy T*S    EENTRO =         0.00000000
  eigenvalues    EBANDS =     -1685.00586045
  atomic energy  EATOM  =     34289.09453332
  Solvation  Ediel_sol  =         0.00000000
  ---------------------------------------------------
  free energy    TOTEN  =      -133.43858908 eV

  energy without entropy =     -133.43858908  energy(sigma->0) =     -133.43858908


--------------------------------------------------------------------------------------------------------




--------------------------------------- Iteration      1(   9)  ---------------------------------------


    EDDIAG:  cpu time    1.6812: real time    1.6814
  RMM-DIIS:  cpu time    7.0165: real time    7.0165
    ORTHCH:  cpu time    0.3054: real time    0.3054
 BZINTS: Fermi energy:    0.374339;  408.000000 electrons
         Band energy:-0.168501E+04;  BLOECHL correction:   -0.039552
       DOS:  cpu time    0.0098: real time    0.0098
    --------------------------------------------
      LOOP:  cpu time    9.0128: real time    9.0131

 eigenvalue-minimisations  :  6832
 total energy-change (2. order) :-0.7335510E-04  (-0.6577102E-04)
 number of electron     407.9999956 magnetization 
 augmentation part      407.9999956 magnetization 

 Free energy of the ion-electron system (eV)
  ---------------------------------------------------
  alpha Z        PSCENC =       875.69722848
  Ewald energy   TEWEN  =    164603.44842362
  -Hartree energ DENC   =   -199570.79516213
  -exchange      EXHF   =         0.00000000
  -V(xc)+E(xc)   XCENC  =       610.85917397
  PAW double counting   =     37655.94805280   -36912.68497869
  entropy T*S    EENTRO =         0.00000000
  eigenvalues    EBANDS =     -1685.00593381
  atomic energy  EATOM  =     34289.09453332
  Solvation  Ediel_sol  =         0.00000000
  ---------------------------------------------------
  free energy    TOTEN  =      -133.43866244 eV

  energy without entropy =     -133.43866244  energy(sigma->0) =     -133.43866244


--------------------------------------------------------------------------------------------------------




--------------------------------------- Iteration      1(  10)  ---------------------------------------


    EDDIAG:  cpu time    1.6645: real time    1.6647
  RMM-DIIS:  cpu time    6.4446: real time    6.4447
    ORTHCH:  cpu time    0.3056: real time    0.3056
 BZINTS: Fermi energy:    0.374339;  408.000000 electrons
         Band energy:-0.168501E+04;  BLOECHL correction:   -0.039552
       DOS:  cpu time    0.0098: real time    0.0098
    --------------------------------------------
      LOOP:  cpu time    8.4245: real time    8.4247

 eigenvalue-minimisations  :  6276
 total energy-change (2. order) :-0.2879463E-04  (-0.2560891E-04)
 number of electron     407.9999956 magnetization 
 augmentation part      407.9999956 magnetization 

 Free energy of the ion-electron system (eV)
  ---------------------------------------------------
  alpha Z        PSCENC =       875.69722848
  Ewald energy   TEWEN  =    164603.44842362
  -Hartree energ DENC   =   -199570.79516213
  -exchange      EXHF   =         0.00000000
  -V(xc)+E(xc)   XCENC  =       610.85917397
  PAW double counting   =     37655.94805280   -36912.68497869
  entropy T*S    EENTRO =         0.00000000
  eigenvalues    EBANDS =     -1685.00596260
  atomic energy  EATOM  =     34289.09453332
  Solvation  Ediel_sol  =         0.00000000
  ---------------------------------------------------
  free energy    TOTEN  =      -133.43869123 eV

  energy without entropy =     -133.43869123  energy(sigma->0) =     -133.43869123


--------------------------------------------------------------------------------------------------------




--------------------------------------- Iteration      1(  11)  ---------------------------------------


    EDDIAG:  cpu time    1.6673: real time    1.6674
  RMM-DIIS:  cpu time    5.5456: real time    5.5457
    ORTHCH:  cpu time    0.3053: real time    0.3053
 BZINTS: Fermi energy:    0.374339;  408.000000 electrons
         Band energy:-0.168501E+04;  BLOECHL correction:   -0.039552
       DOS:  cpu time    0.0102: real time    0.0102
    --------------------------------------------
      LOOP:  cpu time    7.5285: real time    7.5286

 eigenvalue-minimisations  :  5300
 total energy-change (2. order) :-0.1205303E-04  (-0.1150008E-04)
 number of electron     407.9999956 magnetization 
 augmentation part      407.9999956 magnetization 

 Free energy of the ion-electron system (eV)
  ---------------------------------------------------
  alpha Z        PSCENC =       875.69722848
  Ewald energy   TEWEN  =    164603.44842362
  -Hartree energ DENC   =   -199570.79516213
  -exchange      EXHF   =         0.00000000
  -V(xc)+E(xc)   XCENC  =       610.85917397
  PAW double counting   =     37655.94805280   -36912.68497869
  entropy T*S    EENTRO =         0.00000000
  eigenvalues    EBANDS =     -1685.00597465
  atomic energy  EATOM  =     34289.09453332
  Solvation  Ediel_sol  =         0.00000000
  ---------------------------------------------------
  free energy    TOTEN  =      -133.43870328 eV

  energy without entropy =     -133.43870328  energy(sigma->0) =     -133.43870328


--------------------------------------------------------------------------------------------------------




--------------------------------------- Iteration      1(  12)  ---------------------------------------


    EDDIAG:  cpu time    1.6689: real time    1.6691
  RMM-DIIS:  cpu time    5.1733: real time    5.1733
    ORTHCH:  cpu time    0.3085: real time    0.3086
 BZINTS: Fermi energy:    0.374339;  408.000000 electrons
         Band energy:-0.168501E+04;  BLOECHL correction:   -0.039552
       DOS:  cpu time    0.0102: real time    0.0102
    --------------------------------------------
      LOOP:  cpu time    7.1610: real time    7.1613

 eigenvalue-minimisations  :  4814
 total energy-change (2. order) :-0.5528505E-05  (-0.5813769E-05)
 number of electron     407.9999956 magnetization 
 augmentation part      407.9999956 magnetization 

 Free energy of the ion-electron system (eV)
  ---------------------------------------------------
  alpha Z        PSCENC =       875.69722848
  Ewald energy   TEWEN  =    164603.44842362
  -Hartree energ DENC   =   -199570.79516213
  -exchange      EXHF   =         0.00000000
  -V(xc)+E(xc)   XCENC  =       610.85917397
  PAW double counting   =     37655.94805280   -36912.68497869
  entropy T*S    EENTRO =         0.00000000
  eigenvalues    EBANDS =     -1685.00598018
  atomic energy  EATOM  =     34289.09453332
  Solvation  Ediel_sol  =         0.00000000
  ---------------------------------------------------
  free energy    TOTEN  =      -133.43870881 eV

  energy without entropy =     -133.43870881  energy(sigma->0) =     -133.43870881


--------------------------------------------------------------------------------------------------------




 average (electrostatic) potential at core
  the test charge radii are     1.2098  1.0638  0.6991  0.7215  0.5201
  (the norm of the test charge is              1.0000)
       1 -72.6518       2 -72.6501       3 -72.6501       4 -72.6501       5 -72.6412
       6 -72.6498       7 -72.6501       8 -72.6498       9 -72.6456      10 -72.9996
      11 -72.9591      12 -72.9995      13 -72.9591      14 -72.9587      15 -72.9744
      16 -72.9995      17 -72.9744      18 -72.9746      19 -72.9579      20 -73.2305
[...]
  0.000   0.000   0.000   0.000   0.000   0.000   0.000   0.000   0.000   0.000   1.000   0.000   0.000   0.000   0.000   0.000
  0.000   0.000   0.000   0.000   0.000   0.000   0.000   0.000   0.000   0.000   0.000   0.000   0.000   0.000   0.000   0.000
  0.000   0.000   0.000   0.000   0.000   0.000   0.000   0.000   0.000   0.000   0.000   0.000   0.000   0.000   0.000   0.000
  0.000   0.000   0.000   0.000   0.000   0.000   0.000   0.000   0.000   0.000   0.000   0.000   0.000   0.000   0.000   0.000
  0.000   0.000   0.000   0.000   0.000   0.000   0.000   0.000   0.000   0.000   0.000   0.000   0.000   0.000   0.000   0.000
  0.000   0.000   0.000   0.000   0.000   0.000   0.000   0.000   0.000   0.000   0.000   0.000   0.000   0.000   0.000   0.000
  0.000   0.000   0.000   0.000   0.000   0.000   0.000   0.000   0.000   0.000   0.000   0.000   0.000   0.000   0.000   0.000
  0.000   0.000   0.000   0.000   0.000   0.000   0.000   0.000   0.000   0.000   0.000   0.000   0.000   0.000   0.000   0.000


------------------------ aborting loop because EDIFF is reached ----------------------------------------





 total charge

# of ion       s       p       d       tot
------------------------------------------
    1        0.546   0.237   8.770   9.553
    2        0.542   0.241   8.765   9.548
    3        0.542   0.241   8.765   9.548
    4        0.542   0.241   8.765   9.548
    5        0.550   0.241   8.758   9.549
    6        0.542   0.241   8.765   9.548
    7        0.542   0.241   8.765   9.548
    8        0.542   0.241   8.765   9.548
    9        0.542   0.239   8.770   9.552
   10        0.524   0.307   8.771   9.601
   11        0.525   0.304   8.778   9.607
   12        0.524   0.307   8.771   9.601
   13        0.525   0.304   8.778   9.607
   14        0.525   0.304   8.778   9.607
   15        0.517   0.308   8.774   9.599
   16        0.524   0.307   8.771   9.601
   17        0.517   0.308   8.774   9.599
   18        0.517   0.308   8.774   9.599
   19        0.520   0.298   8.768   9.586
   20        0.567   0.325   8.744   9.636
   21        0.567   0.325   8.744   9.636
   22        0.509   0.304   8.776   9.589
   23        0.567   0.325   8.744   9.636
   24        0.509   0.304   8.776   9.589
   25        0.520   0.298   8.768   9.586
   26        0.520   0.298   8.768   9.586
   27        0.509   0.304   8.776   9.589
   28        0.542   0.233   8.759   9.534
   29        0.585   0.244   8.742   9.572
   30        0.585   0.244   8.742   9.572
   31        0.585   0.244   8.742   9.572
   32        0.585   0.244   8.742   9.572
   33        0.585   0.244   8.742   9.572
   34        0.585   0.244   8.742   9.572
   35        0.544   0.233   8.759   9.536
   36        2.185   6.003   1.597   9.786
   37        0.952   1.370   0.000   2.322
   38        1.528   3.751   0.000   5.279
   39        0.561   0.135   0.000   0.697
--------------------------------------------------
tot         24.194  20.898 308.289 353.381
 
    CHARGE:  cpu time    0.4430: real time    0.4431
    FORLOC:  cpu time    0.0141: real time    0.0141
    FORNL :  cpu time    1.7117: real time    1.7119
    STRESS:  cpu time    5.1375: real time    5.1377
    FORCOR:  cpu time    0.0540: real time    0.0540
    FORHAR:  cpu time    0.0224: real time    0.0224
    OFIELD:  cpu time    0.0003: real time    0.0003

  FORCE on cell =-STRESS in cart. coord.  units (eV):
  Direction    XX          YY          ZZ          XY          YZ          ZX
  --------------------------------------------------------------------------------------
  Alpha Z   875.69723   875.69723   875.69723
  Ewald  187389.56870187389.56917************    -0.00032    -0.00008    -0.00012
  Hartree196137.85860196137.85861************     0.00001    -0.00002    -0.00004
  E(xc)   -1826.66961 -1826.66968 -1832.05730     0.00006     0.00000     0.00000
  Local  ************************395693.98724     0.00215    -0.00001    -0.00003
  n-local  -103.66432   -59.99200   -57.84003    21.96735    -1.36792     1.30024
  augment  2373.18874  2373.19034  2391.36730    -0.00139     0.00000     0.00002
  Kinetic  5778.00180  5783.47832  5792.37105     4.64396     0.20783     0.31526
  Fock        0.00000     0.00000     0.00000     0.00000     0.00000     0.00000
  -------------------------------------------------------------------------------------
  Total     -19.49294   -19.49294     2.77346    -0.00000     0.00000    -0.00000
  in kB     -17.35220   -17.35220     2.46887    -0.00000     0.00000    -0.00000
  external pressure =      -10.75 kB  Pullay stress =        0.00 kB


 VOLUME and BASIS-vectors are now :
 -----------------------------------------------------------------------------
  energy-cutoff  :      500.00
  volume of cell :     1799.84
      direct lattice vectors                 reciprocal lattice vectors
     8.813512802  0.000000000  0.000000000     0.113462137 -0.065507406  0.000000000
     4.406756909  7.632725690  0.000000000     0.000000000  0.131014796  0.000000000
     0.000000000  0.000000000 26.754991198     0.000000000  0.000000000  0.037376204

  length of vectors
     8.813512802  8.813512802 26.754991198     0.131014796  0.131014796  0.037376204


 FORCES acting on ions
    electron-ion (+dipol)            ewald-force                    non-local-force                 convergence-correction
 -----------------------------------------------------------------------------------------------
   -.202E-04 -.165E-04 0.285E+04   0.519E-04 0.434E-04 -.285E+04   -.332E-17 0.333E-17 -.687E+00   -.146E-03 -.978E-04 -.324E+00
   0.368E+00 0.406E+00 0.285E+04   -.432E+00 -.584E+00 -.285E+04   0.593E-01 0.155E+00 -.279E+00   0.913E-02 0.176E-01 -.321E+00
   -.368E+00 0.406E+00 0.285E+04   0.432E+00 -.584E+00 -.285E+04   -.593E-01 0.155E+00 -.279E+00   -.890E-02 0.196E-01 -.321E+00
   0.536E+00 0.115E+00 0.285E+04   -.722E+00 -.821E-01 -.285E+04   0.164E+00 -.262E-01 -.279E+00   0.199E-01 -.959E-03 -.322E+00
   0.102E-04 -.226E-04 0.285E+04   0.951E-04 0.171E-05 -.285E+04   0.162E-18 0.183E-17 0.247E+00   0.427E-02 0.260E-02 -.206E+00
   -.536E+00 0.115E+00 0.285E+04   0.722E+00 -.822E-01 -.285E+04   -.164E+00 -.262E-01 -.279E+00   -.214E-01 0.555E-04 -.321E+00
   0.168E+00 -.522E+00 0.285E+04   -.290E+00 0.667E+00 -.285E+04   0.105E+00 -.129E+00 -.279E+00   0.126E-01 -.175E-01 -.321E+00
   -.168E+00 -.522E+00 0.285E+04   0.290E+00 0.667E+00 -.285E+04   -.105E+00 -.129E+00 -.279E+00   -.106E-01 -.185E-01 -.321E+00
   0.197E-04 -.414E-04 0.285E+04   0.166E-03 -.201E-04 -.285E+04   -.433E-17 0.726E-19 -.496E+00   -.466E-02 -.242E-02 -.324E+00
   0.397E+01 0.229E+01 0.101E+04   -.381E+01 -.220E+01 -.101E+04   -.258E+00 -.149E+00 -.526E+00   0.590E-01 0.340E-01 -.659E-01
   0.162E-04 0.658E+01 0.102E+04   0.147E-03 -.663E+01 -.102E+04   0.162E-08 0.243E-01 -.678E-01   0.345E-02 0.407E-02 -.530E-01
   -.397E+01 0.229E+01 0.101E+04   0.381E+01 -.220E+01 -.101E+04   0.258E+00 -.149E+00 -.526E+00   -.600E-01 0.354E-01 -.671E-01
   0.570E+01 -.329E+01 0.102E+04   -.574E+01 0.332E+01 -.102E+04   0.211E-01 -.122E-01 -.678E-01   0.554E-02 0.122E-02 -.530E-01
   -.570E+01 -.329E+01 0.102E+04   0.574E+01 0.332E+01 -.102E+04   -.211E-01 -.122E-01 -.678E-01   0.214E-02 0.109E-02 -.533E-01
   0.310E-04 0.480E+00 0.101E+04   0.236E-03 -.480E+00 -.101E+04   0.111E-08 0.167E-01 -.537E+00   -.221E-02 -.514E-01 -.134E+00
   -.207E-04 -.459E+01 0.101E+04   0.163E-03 0.440E+01 -.101E+04   0.198E-07 0.298E+00 -.526E+00   0.403E-03 -.697E-01 -.671E-01
   0.416E+00 -.240E+00 0.101E+04   -.415E+00 0.240E+00 -.101E+04   0.145E-01 -.836E-02 -.537E+00   -.454E-01 0.242E-01 -.134E+00
   -.416E+00 -.240E+00 0.101E+04   0.415E+00 0.240E+00 -.101E+04   -.145E-01 -.836E-02 -.537E+00   0.451E-01 0.258E-01 -.135E+00
   -.437E-04 -.731E+00 -.859E+03   0.520E-04 0.838E+00 0.858E+03   0.247E-08 0.371E-01 0.719E+00   0.348E-02 -.887E-01 0.284E+00
   0.408E+02 0.236E+02 -.801E+03   -.399E+02 -.230E+02 0.801E+03   -.111E+01 -.641E+00 -.126E+01   0.394E-01 0.226E-01 0.325E+00
   -.408E+02 0.236E+02 -.801E+03   0.399E+02 -.230E+02 0.801E+03   0.111E+01 -.641E+00 -.126E+01   -.399E-01 0.254E-01 0.324E+00
   0.117E+02 -.676E+01 -.848E+03   -.121E+02 0.698E+01 0.847E+03   0.230E+00 -.133E+00 0.539E+00   0.129E+00 -.807E-01 0.222E+00
   -.810E-05 -.472E+02 -.801E+03   0.144E-03 0.461E+02 0.801E+03   0.853E-07 0.128E+01 -.126E+01   0.173E-02 -.473E-01 0.324E+00
   -.117E+02 -.676E+01 -.848E+03   0.121E+02 0.698E+01 0.847E+03   -.230E+00 -.133E+00 0.539E+00   -.136E+00 -.787E-01 0.222E+00
   0.633E+00 0.365E+00 -.859E+03   -.726E+00 -.419E+00 0.858E+03   -.321E-01 -.185E-01 0.719E+00   0.834E-01 0.481E-01 0.284E+00
   -.633E+00 0.365E+00 -.859E+03   0.726E+00 -.419E+00 0.858E+03   0.321E-01 -.185E-01 0.719E+00   -.748E-01 0.474E-01 0.284E+00
   0.113E-04 0.135E+02 -.848E+03   0.194E-03 -.140E+02 0.847E+03   0.176E-07 0.265E+00 0.539E+00   -.577E-02 0.152E+00 0.222E+00
   -.171E-04 -.146E-04 -.268E+04   0.306E-04 0.368E-04 0.268E+04   -.413E-17 -.143E-18 0.336E+00   0.377E-03 0.198E-03 0.357E+00
   0.533E+02 0.888E+02 -.269E+04   -.525E+02 -.875E+02 0.269E+04   -.965E+00 -.160E+01 -.201E+00   0.682E-01 0.194E+00 0.344E+00
   -.533E+02 0.888E+02 -.269E+04   0.525E+02 -.875E+02 0.269E+04   0.965E+00 -.160E+01 -.201E+00   -.684E-01 0.197E+00 0.346E+00
   0.104E+03 0.181E+01 -.269E+04   -.102E+03 -.173E+01 0.269E+04   -.187E+01 -.343E-01 -.201E+00   0.202E+00 -.381E-01 0.344E+00
   -.104E+03 0.181E+01 -.269E+04   0.102E+03 -.173E+01 0.269E+04   0.187E+01 -.343E-01 -.201E+00   -.204E+00 -.367E-01 0.345E+00
   0.502E+02 -.906E+02 -.269E+04   -.495E+02 0.893E+02 0.269E+04   -.905E+00 0.164E+01 -.201E+00   0.136E+00 -.158E+00 0.346E+00
   -.502E+02 -.906E+02 -.269E+04   0.495E+02 0.893E+02 0.269E+04   0.905E+00 0.164E+01 -.201E+00   -.134E+00 -.158E+00 0.345E+00
   0.306E-04 -.248E-04 -.269E+04   0.142E-03 -.521E-04 0.269E+04   -.697E-17 0.559E-17 0.380E+00   -.496E-02 -.257E-02 0.430E+00
   0.239E-03 -.133E-03 -.266E+04   0.120E-03 0.103E-04 0.267E+04   -.534E-18 0.774E-18 -.198E+01   0.561E-02 0.343E-02 0.699E+00
   -.505E-06 -.826E-04 -.105E+04   0.103E-04 0.703E-06 0.103E+04   0.126E-17 0.127E-17 0.234E+02   0.119E-02 0.724E-03 -.280E-01
   0.246E-03 -.917E-04 -.170E+04   0.325E-05 0.370E-06 0.170E+04   -.114E-17 -.121E-18 -.438E+01   0.385E-02 0.236E-02 -.200E+00
   0.673E-05 -.144E-04 -.322E+03   0.147E-06 0.278E-07 0.331E+03   0.382E-19 -.250E-19 -.867E+01   0.202E-03 0.124E-03 -.327E-01
 -----------------------------------------------------------------------------------------------
   -.243E-03 -.105E-02 -.350E+01   0.343E-13 0.150E-12 0.210E-11   0.215E-15 -.215E-15 0.193E+01   0.152E-01 0.966E-02 0.224E+01
 
 
 POSITION                                       TOTAL-FORCE (eV/Angst)
 -----------------------------------------------------------------------------------
      0.00000      0.00000      5.28038         0.000000     -0.000000     -0.155281
      2.93784      0.00000      5.28038         0.004237     -0.004397     -0.062629
      5.87568      0.00000      5.28038        -0.004237     -0.004397     -0.062629
      1.46892      2.54424      5.28038        -0.001689      0.005868     -0.062629
      4.40676      2.54424      5.28038         0.000000     -0.000000     -0.096585
      7.34459      2.54424      5.28038         0.001689      0.005868     -0.062629
      2.93784      5.08848      5.28038        -0.005926     -0.001471     -0.062629
      5.87568      5.08848      5.28038         0.005926     -0.001471     -0.062629
      8.81351      5.08848      5.28038         0.000000     -0.000000     -0.074699
      1.46892      0.84808      7.67911        -0.037984     -0.021930      0.073881
      4.40676      0.84808      7.67911        -0.000000     -0.023763      0.038724
      7.34459      0.84808      7.67911         0.037984     -0.021930      0.073881
      2.93784      3.39232      7.67911        -0.020579      0.011881      0.038724
      5.87568      3.39232      7.67911         0.020579      0.011881      0.038724
      8.81351      3.39232      7.67911        -0.000000     -0.034123      0.126950
      4.40676      5.93656      7.67911         0.000000      0.043860      0.073881
      7.34459      5.93656      7.67911        -0.029551      0.017061      0.126950
     10.28243      5.93656      7.67911         0.029551      0.017061      0.126950
      8.81351      1.69571     10.07248         0.000000      0.053235      0.084738
      2.94528      1.70046     10.06340        -0.144624     -0.083499     -0.198246
      5.86824      1.70046     10.06340         0.144624     -0.083499     -0.198246
     10.27570      4.24429     10.07162        -0.020010      0.011553      0.040594
      4.40676      4.23182     10.06340         0.000000      0.166998     -0.198246
      7.35132      4.24429     10.07162         0.020010      0.011553      0.040594
     11.75174      6.78487     10.07248        -0.046103     -0.026617      0.084738
      5.87529      6.78487     10.07248         0.046103     -0.026617      0.084738
      8.81351      6.77688     10.07162        -0.000000     -0.023106      0.040594
      0.00000      0.00000     12.49858         0.000000     -0.000000     -0.102400
      2.96552      0.04535     12.55994        -0.095133     -0.166301     -0.003148
      5.84799      0.04535     12.55994         0.095133     -0.166301     -0.003148
      1.52204      2.54555     12.55994        -0.191588      0.000763     -0.003148
      7.29148      2.54555     12.55994         0.191588      0.000763     -0.003148
      2.96327      5.04183     12.55994        -0.096455      0.165538     -0.003148
      5.85025      5.04183     12.55994         0.096455      0.165538     -0.003148
      8.81351      5.08848     12.50663         0.000000     -0.000000     -0.056907
      4.40676      2.54424     12.37417         0.000000     -0.000000      0.357906
      4.40676      2.54424     14.46347         0.000000     -0.000000      0.039127
      4.40676      2.54424     15.72011         0.000000     -0.000000     -0.021672
      4.40676      2.54424     16.67913         0.000000     -0.000000      0.005255
 -----------------------------------------------------------------------------------
    total drift:                                0.014972      0.008610      0.676075


--------------------------------------------------------------------------------------------------------



  FREE ENERGIE OF THE ION-ELECTRON SYSTEM (eV)
  ---------------------------------------------------
  free  energy   TOTEN  =      -133.43870881 eV

  energy  without entropy=     -133.43870881  energy(sigma->0) =     -133.43870881
 


--------------------------------------------------------------------------------------------------------


    POTLOK:  cpu time    0.0530: real time    0.0530


--------------------------------------------------------------------------------------------------------


 stress matrix after NEB project (eV)
    -19.49294     -0.00000     -0.00000
     -0.00000    -19.49294     -0.00000
      0.00000      0.00000      2.77346
  FORCES: max atom, RMS     0.039127    0.007211
  FORCE total and by dimension    0.045036    0.039127
  Stress total and by dimension   27.706346   19.492942
     LOOP+:  cpu time  119.4177: real time  119.4301
 -----------------------------------------------------------------------------
|                                                                             |
|           W    W    AA    RRRRR   N    N  II  N    N   GGGG   !!!           |
|           W    W   A  A   R    R  NN   N  II  NN   N  G    G  !!!           |
|           W    W  A    A  R    R  N N  N  II  N N  N  G       !!!           |
|           W WW W  AAAAAA  RRRRR   N  N N  II  N  N N  G  GGG   !            |
|           WW  WW  A    A  R   R   N   NN  II  N   NN  G    G                |
|           W    W  A    A  R    R  N    N  II  N    N   GGGG   !!!           |
|                                                                             |
|     Tetrahedron method does not include variations of the Fermi             |
|     occupations, so forces and stress will be inaccurate. We suggest        |
|     using a different smearing scheme ISMEAR = 1 or 2 for metals in         |
|     relaxations.                                                            |
|                                                                             |
 -----------------------------------------------------------------------------

    4ORBIT:  cpu time    0.0000: real time    0.0000



 total charge

# of ion       s       p       d       tot
------------------------------------------
    1        0.546   0.237   8.770   9.553
    2        0.542   0.241   8.765   9.548
    3        0.542   0.241   8.765   9.548
    4        0.542   0.241   8.765   9.548
    5        0.550   0.241   8.758   9.549
    6        0.542   0.241   8.765   9.548
    7        0.542   0.241   8.765   9.548
    8        0.542   0.241   8.765   9.548
    9        0.542   0.239   8.770   9.552
   10        0.524   0.307   8.771   9.601
   11        0.525   0.304   8.778   9.607
   12        0.524   0.307   8.771   9.601
   13        0.525   0.304   8.778   9.607
   14        0.525   0.304   8.778   9.607
   15        0.517   0.308   8.774   9.599
   16        0.524   0.307   8.771   9.601
   17        0.517   0.308   8.774   9.599
   18        0.517   0.308   8.774   9.599
   19        0.520   0.298   8.768   9.586
   20        0.567   0.325   8.744   9.636
   21        0.567   0.325   8.744   9.636
   22        0.509   0.304   8.776   9.589
   23        0.567   0.325   8.744   9.636
   24        0.509   0.304   8.776   9.589
   25        0.520   0.298   8.768   9.586
   26        0.520   0.298   8.768   9.586
   27        0.509   0.304   8.776   9.589
   28        0.542   0.233   8.759   9.534
   29        0.585   0.244   8.742   9.572
   30        0.585   0.244   8.742   9.572
   31        0.585   0.244   8.742   9.572
   32        0.585   0.244   8.742   9.572
   33        0.585   0.244   8.742   9.572
   34        0.585   0.244   8.742   9.572
   35        0.544   0.233   8.759   9.536
   36        2.185   6.003   1.597   9.786
   37        0.952   1.370   0.000   2.322
   38        1.528   3.751   0.000   5.279
   39        0.561   0.135   0.000   0.697
--------------------------------------------------
tot         24.194  20.898 308.289 353.381
 
 BZINTS: Fermi energy:    0.374339;  408.000000 electrons
         Band energy:-0.168501E+04;  BLOECHL correction:   -0.039552

 total amount of memory used by VASP MPI-rank0   139576. kBytes
=======================================================================

   base      :      30000. kBytes
   nonlr-proj:      13884. kBytes
   fftplans  :       5150. kBytes
   grid      :      23126. kBytes
   one-center:        606. kBytes
   wavefun   :      66810. kBytes
 
  
  
 General timing and accounting informations for this job:
 ========================================================
  
                  Total CPU time used (sec):      127.914
                            User time (sec):      123.940
                          System time (sec):        3.974
                         Elapsed time (sec):      128.366
  
                   Maximum memory used (kb):      415188.
                   Average memory used (kb):          N/A
  
                          Minor page faults:       100044
                          Major page faults:            0
                 Voluntary context switches:         5640
