PROCAR new format
# of k-points:   10         # of bands:  252         # of ions:   39

 k-point     1 :    0.00000000 0.00000000 0.00000000     weight = 0.01562500

band     1 # energy  -48.57478257 # occ.  2.00000000
 
ion      s      p      d    tot
    1  0.000  0.000  0.000  0.000
    2  0.000  0.000  0.000  0.000
    3  0.000  0.000  0.000  0.000
    4  0.000  0.000  0.000  0.000
    5  0.000  0.000  0.000  0.000
    6  0.000  0.000  0.000  0.000
    7  0.000  0.000  0.000  0.000
    8  0.000  0.000  0.000  0.000
    9  0.000  0.000  0.000  0.000
   10  0.000  0.000  0.000  0.000
   11  0.000  0.000  0.000  0.000
   12  0.000  0.000  0.000  0.000
   13  0.000  0.000  0.000  0.000
   14  0.000  0.000  0.000  0.000
   15  0.000  0.000  0.000  0.000
   16  0.000  0.000  0.000  0.000
   17  0.000  0.000  0.000  0.000
   18  0.000  0.000  0.000  0.000
   19  0.000  0.000  0.000  0.000
   20  0.000  0.000  0.000  0.000
   21  0.000  0.000  0.000  0.000
   22  0.000  0.000  0.000  0.000
   23  0.000  0.000  0.000  0.000
   24  0.000  0.000  0.000  0.000
   25  0.000  0.000  0.000  0.000
   26  0.000  0.000  0.000  0.000
   27  0.000  0.000  0.000  0.000
   28  0.000  0.000  0.000  0.000
   29  0.000  0.000  0.000  0.000
   30  0.000  0.000  0.000  0.000
   31  0.000  0.000  0.000  0.000
   32  0.000  0.000  0.000  0.000
   33  0.000  0.000  0.000  0.000
   34  0.000  0.000  0.000  0.000
   35  0.000  0.000  0.000  0.000
   36  0.992  0.000  0.000  0.992
   37  0.000  0.000  0.000  0.000
   38  0.000  0.000  0.000  0.000
   39  0.000  0.000  0.000  0.000
tot    0.993  0.000  0.000  0.993
 
band     2 # energy  -26.69899168 # occ.  2.00000000
 
ion      s      p      d    tot
    1  0.000  0.000  0.000  0.000
    2  0.000  0.000  0.000  0.000
    3  0.000  0.000  0.000  0.000
    4  0.000  0.000  0.000  0.000
    5  0.000  0.000  0.000  0.000
    6  0.000  0.000  0.000  0.000
    7  0.000  0.000  0.000  0.000
    8  0.000  0.000  0.000  0.000
    9  0.000  0.000  0.000  0.000
   10  0.000  0.000  0.000  0.000
   11  0.000  0.000  0.000  0.000
   12  0.000  0.000  0.000  0.000
   13  0.000  0.000  0.000  0.000
   14  0.000  0.000  0.000  0.000
   15  0.000  0.000  0.000  0.000
   16  0.000  0.000  0.000  0.000
   17  0.000  0.000  0.000  0.000
   18  0.000  0.000  0.000  0.000
   19  0.000  0.000  0.000  0.000
   20  0.000  0.000  0.000  0.000
   21  0.000  0.000  0.000  0.000
   22  0.000  0.000  0.000  0.000
   23  0.000  0.000  0.000  0.000
   24  0.000  0.000  0.000  0.000
   25  0.000  0.000  0.000  0.000
   26  0.000  0.000  0.000  0.000
   27  0.000  0.000  0.000  0.000
   28  0.000  0.000  0.000  0.000
   29  0.000  0.000  0.000  0.000
   30  0.000  0.000  0.000  0.001
   31  0.000  0.000  0.000  0.000
   32  0.000  0.000  0.000  0.000
   33  0.000  0.000  0.000  0.001
   34  0.000  0.000  0.000  0.000
   35  0.000  0.000  0.000  0.000
   36  0.000  0.969  0.000  0.969
   37  0.000  0.000  0.000  0.000
   38  0.000  0.000  0.000  0.000
   39  0.000  0.000  0.000  0.000
tot    0.001  0.970  0.001  0.972
 
band     3 # energy  -26.69897938 # occ.  2.00000000
 
ion      s      p      d    tot
    1  0.000  0.000  0.000  0.000
    2  0.000  0.000  0.000  0.000
    3  0.000  0.000  0.000  0.000
    4  0.000  0.000  0.000  0.000
    5  0.000  0.000  0.000  0.000
    6  0.000  0.000  0.000  0.000
    7  0.000  0.000  0.000  0.000
    8  0.000  0.000  0.000  0.000
    9  0.000  0.000  0.000  0.000
   10  0.000  0.000  0.000  0.000
   11  0.000  0.000  0.000  0.000
   12  0.000  0.000  0.000  0.000
   13  0.000  0.000  0.000  0.000
   14  0.000  0.000  0.000  0.000
   15  0.000  0.000  0.000  0.000
   16  0.000  0.000  0.000  0.000
   17  0.000  0.000  0.000  0.000
   18  0.000  0.000  0.000  0.000
   19  0.000  0.000  0.000  0.000
   20  0.000  0.000  0.000  0.000
   21  0.000  0.000  0.000  0.000
   22  0.000  0.000  0.000  0.000
   23  0.000  0.000  0.000  0.000
   24  0.000  0.000  0.000  0.000
   25  0.000  0.000  0.000  0.000
   26  0.000  0.000  0.000  0.000
   27  0.000  0.000  0.000  0.000
   28  0.000  0.000  0.000  0.000
   29  0.000  0.000  0.000  0.001
   30  0.000  0.000  0.000  0.000
   31  0.000  0.000  0.000  0.001
   32  0.000  0.000  0.000  0.001
   33  0.000  0.000  0.000  0.000
   34  0.000  0.000  0.000  0.001
   35  0.000  0.000  0.000  0.000
   36  0.000  0.969  0.000  0.969
   37  0.000  0.000  0.000  0.000
   38  0.000  0.000  0.000  0.000
   39  0.000  0.000  0.000  0.000
tot    0.001  0.970  0.001  0.972
 
band     4 # energy  -26.62507042 # occ.  2.00000000
 
ion      s      p      d    tot
    1  0.000  0.000  0.000  0.000
    2  0.000  0.000  0.000  0.000
    3  0.000  0.000  0.000  0.000
    4  0.000  0.000  0.000  0.000
    5  0.000  0.000  0.000  0.000
    6  0.000  0.000  0.000  0.000
    7  0.000  0.000  0.000  0.000
    8  0.000  0.000  0.000  0.000
    9  0.000  0.000  0.000  0.000
   10  0.000  0.000  0.000  0.000
   11  0.000  0.000  0.000  0.000
   12  0.000  0.000  0.000  0.000
   13  0.000  0.000  0.000  0.000
   14  0.000  0.000  0.000  0.000
   15  0.000  0.000  0.000  0.000
   16  0.000  0.000  0.000  0.000
   17  0.000  0.000  0.000  0.000
   18  0.000  0.000  0.000  0.000
   19  0.000  0.000  0.000  0.000
   20  0.000  0.000  0.000  0.001
   21  0.000  0.000  0.000  0.001
   22  0.000  0.000  0.000  0.000
   23  0.000  0.000  0.000  0.001
   24  0.000  0.000  0.000  0.000
   25  0.000  0.000  0.000  0.000
   26  0.000  0.000  0.000  0.000
   27  0.000  0.000  0.000  0.000
   28  0.000  0.000  0.000  0.000
   29  0.000  0.000  0.000  0.000
   30  0.000  0.000  0.000  0.000
   31  0.000  0.000  0.000  0.000
   32  0.000  0.000  0.000  0.000
   33  0.000  0.000  0.000  0.000
   34  0.000  0.000  0.000  0.000
   35  0.000  0.000  0.000  0.000
   36  0.000  0.959  0.000  0.959
   37  0.004  0.002  0.000  0.006
   38  0.000  0.000  0.000  0.000
   39  0.000  0.000  0.000  0.000
tot    0.005  0.962  0.001  0.968
 
band     5 # energy  -24.07782118 # occ.  2.00000000
 
ion      s      p      d    tot
    1  0.000  0.000  0.000  0.000
    2  0.000  0.000  0.000  0.000
    3  0.000  0.000  0.000  0.000
    4  0.000  0.000  0.000  0.000
    5  0.000  0.000  0.000  0.000
    6  0.000  0.000  0.000  0.000
    7  0.000  0.000  0.000  0.000
    8  0.000  0.000  0.000  0.000
    9  0.000  0.000  0.000  0.000
   10  0.000  0.000  0.000  0.000
   11  0.000  0.000  0.000  0.000
   12  0.000  0.000  0.000  0.000
   13  0.000  0.000  0.000  0.000
   14  0.000  0.000  0.000  0.000
   15  0.000  0.000  0.000  0.000
   16  0.000  0.000  0.000  0.000
   17  0.000  0.000  0.000  0.000
   18  0.000  0.000  0.000  0.000
   19  0.000  0.000  0.000  0.000
   20  0.000  0.000  0.000  0.000
   21  0.000  0.000  0.000  0.000
   22  0.000  0.000  0.000  0.000
   23  0.000  0.000  0.000  0.000
   24  0.000  0.000  0.000  0.000
   25  0.000  0.000  0.000  0.000
   26  0.000  0.000  0.000  0.000
   27  0.000  0.000  0.000  0.000
   28  0.000  0.000  0.000  0.000
   29  0.000  0.000  0.000  0.000
   30  0.000  0.000  0.000  0.000
   31  0.000  0.000  0.000  0.000
   32  0.000  0.000  0.000  0.000
   33  0.000  0.000  0.000  0.000
   34  0.000  0.000  0.000  0.000
   35  0.000  0.000  0.000  0.000
   36  0.000  0.001  0.000  0.001
   37  0.076  0.059  0.000  0.135
   38  0.728  0.007  0.000  0.735
   39  0.062  0.013  0.000  0.075
tot    0.866  0.080  0.000  0.945
 
band     6 # energy  -14.71324655 # occ.  2.00000000
 
ion      s      p      d    tot
    1  0.000  0.000  0.000  0.000
    2  0.000  0.000  0.000  0.000
    3  0.000  0.000  0.000  0.000
    4  0.000  0.000  0.000  0.000
    5  0.000  0.000  0.000  0.000
    6  0.000  0.000  0.000  0.000
    7  0.000  0.000  0.000  0.000
    8  0.000  0.000  0.000  0.000
    9  0.000  0.000  0.000  0.000
   10  0.000  0.000  0.000  0.000
   11  0.000  0.000  0.000  0.000
   12  0.000  0.000  0.000  0.000
   13  0.000  0.000  0.000  0.000
   14  0.000  0.000  0.000  0.000
   15  0.000  0.000  0.000  0.000
   16  0.000  0.000  0.000  0.000
   17  0.000  0.000  0.000  0.000
   18  0.000  0.000  0.000  0.000
   19  0.000  0.000  0.000  0.000
   20  0.000  0.000  0.000  0.000
   21  0.000  0.000  0.000  0.000
   22  0.000  0.000  0.000  0.000
   23  0.000  0.000  0.000  0.000
   24  0.000  0.000  0.000  0.000
   25  0.000  0.000  0.000  0.000
   26  0.000  0.000  0.000  0.000
   27  0.000  0.000  0.000  0.000
   28  0.000  0.000  0.000  0.000
   29  0.000  0.000  0.000  0.000
   30  0.000  0.000  0.000  0.000
   31  0.000  0.000  0.000  0.000
   32  0.000  0.000  0.000  0.000
   33  0.000  0.000  0.000  0.000
   34  0.000  0.000  0.000  0.000
   35  0.000  0.000  0.000  0.000
   36  0.000  0.001  0.001  0.002
   37  0.150  0.057  0.000  0.206
   38  0.016  0.535  0.000  0.551
   39  0.203  0.033  0.000  0.236
tot    0.369  0.626  0.001  0.995
 
band     7 # energy   -8.43265153 # occ.  2.00000000
 
ion      s      p      d    tot
    1  0.007  0.001  0.000  0.007
    2  0.007  0.001  0.000  0.007
    3  0.007  0.001  0.000  0.007
    4  0.007  0.001  0.000  0.007
    5  0.007  0.001  0.000  0.007
    6  0.007  0.001  0.000  0.007
    7  0.007  0.001  0.000  0.007
    8  0.007  0.001  0.000  0.007
    9  0.007  0.001  0.000  0.007
   10  0.027  0.000  0.000  0.027
   11  0.027  0.000  0.000  0.027
   12  0.027  0.000  0.000  0.027
   13  0.027  0.000  0.000  0.027
   14  0.027  0.000  0.000  0.027
   15  0.026  0.000  0.000  0.026
   16  0.027  0.000  0.000  0.027
   17  0.026  0.000  0.000  0.026
   18  0.026  0.000  0.000  0.026
   19  0.023  0.000  0.000  0.024
   20  0.026  0.000  0.000  0.027
   21  0.026  0.000  0.000  0.027
   22  0.024  0.000  0.000  0.024
   23  0.026  0.000  0.000  0.027
   24  0.024  0.000  0.000  0.024
   25  0.023  0.000  0.000  0.024
   26  0.023  0.000  0.000  0.024
   27  0.024  0.000  0.000  0.024
   28  0.005  0.000  0.000  0.005
   29  0.005  0.000  0.000  0.005
   30  0.005  0.000  0.000  0.005
   31  0.005  0.000  0.000  0.005
   32  0.005  0.000  0.000  0.005
   33  0.005  0.000  0.000  0.005
   34  0.005  0.000  0.000  0.005
   35  0.005  0.000  0.000  0.005
   36  0.003  0.000  0.000  0.004
   37  0.001  0.001  0.000  0.002
   38  0.000  0.000  0.000  0.000
   39  0.000  0.000  0.000  0.000
tot    0.561  0.012  0.004  0.577
 
band     8 # energy   -7.29148386 # occ.  2.00000000
 
ion      s      p      d    tot
    1  0.016  0.000  0.001  0.017
    2  0.016  0.000  0.001  0.017
    3  0.016  0.000  0.001  0.017
    4  0.016  0.000  0.001  0.017
    5  0.015  0.000  0.001  0.017
    6  0.016  0.000  0.001  0.017
    7  0.016  0.000  0.001  0.017
    8  0.016  0.000  0.001  0.017
    9  0.016  0.000  0.001  0.017
   10  0.010  0.001  0.002  0.014
   11  0.010  0.001  0.002  0.014
   12  0.010  0.001  0.002  0.014
   13  0.010  0.001  0.002  0.014
   14  0.010  0.001  0.002  0.014
   15  0.011  0.001  0.002  0.014
   16  0.010  0.001  0.002  0.014
   17  0.011  0.001  0.002  0.014
   18  0.011  0.001  0.002  0.014
   19  0.012  0.001  0.003  0.016
   20  0.014  0.001  0.004  0.019
   21  0.014  0.001  0.004  0.019
   22  0.012  0.001  0.003  0.016
   23  0.014  0.001  0.004  0.019
   24  0.012  0.001  0.003  0.016
   25  0.012  0.001  0.003  0.016
   26  0.012  0.001  0.003  0.016
   27  0.012  0.001  0.003  0.016
   28  0.015  0.000  0.001  0.016
   29  0.015  0.000  0.001  0.016
   30  0.015  0.000  0.001  0.016
   31  0.015  0.000  0.001  0.016
   32  0.015  0.000  0.001  0.016
   33  0.015  0.000  0.001  0.016
   34  0.015  0.000  0.001  0.016
   35  0.015  0.000  0.001  0.016
   36  0.011  0.000  0.001  0.012
   37  0.007  0.006  0.000  0.013
   38  0.001  0.002  0.000  0.003
   39  0.001  0.000  0.000  0.001
tot    0.486  0.037  0.065  0.589
 
band     9 # energy   -6.72903340 # occ.  2.00000000
 
ion      s      p      d    tot
    1  0.000  0.000  0.000  0.000
    2  0.000  0.000  0.000  0.000
    3  0.000  0.000  0.000  0.000
    4  0.000  0.000  0.000  0.000
    5  0.000  0.000  0.000  0.000
    6  0.000  0.000  0.000  0.000
    7  0.000  0.000  0.000  0.000
    8  0.000  0.000  0.000  0.000
    9  0.000  0.000  0.000  0.000
   10  0.000  0.000  0.000  0.000
   11  0.000  0.000  0.000  0.000
   12  0.000  0.000  0.000  0.000
   13  0.000  0.000  0.000  0.000
   14  0.000  0.000  0.000  0.000
   15  0.000  0.000  0.000  0.000
   16  0.000  0.000  0.000  0.000
   17  0.000  0.000  0.000  0.000
   18  0.000  0.000  0.000  0.000
   19  0.000  0.000  0.000  0.000
   20  0.000  0.000  0.000  0.000
   21  0.000  0.000  0.000  0.000
   22  0.000  0.000  0.000  0.000
   23  0.000  0.000  0.000  0.000
   24  0.000  0.000  0.000  0.000
   25  0.000  0.000  0.000  0.000
   26  0.000  0.000  0.000  0.000
   27  0.000  0.000  0.000  0.000
   28  0.000  0.000  0.000  0.000
   29  0.000  0.000  0.000  0.001
   30  0.000  0.000  0.000  0.000
   31  0.000  0.000  0.000  0.001
   32  0.000  0.000  0.000  0.001
   33  0.000  0.000  0.000  0.000
   34  0.000  0.000  0.000  0.001
   35  0.000  0.000  0.000  0.000
   36  0.000  0.000  0.003  0.003
   37  0.000  0.102  0.000  0.102
   38  0.000  0.566  0.000  0.566
   39  0.000  0.008  0.000  0.008
tot    0.001  0.677  0.006  0.684
 
band    10 # energy   -6.72892751 # occ.  2.00000000
 
ion      s      p      d    tot
    1  0.000  0.000  0.000  0.000
    2  0.000  0.000  0.000  0.000
    3  0.000  0.000  0.000  0.000
    4  0.000  0.000  0.000  0.000
    5  0.000  0.000  0.000  0.000
    6  0.000  0.000  0.000  0.000
    7  0.000  0.000  0.000  0.000
    8  0.000  0.000  0.000  0.000
    9  0.000  0.000  0.000  0.000
   10  0.000  0.000  0.000  0.000
   11  0.000  0.000  0.000  0.000
   12  0.000  0.000  0.000  0.000
   13  0.000  0.000  0.000  0.000
   14  0.000  0.000  0.000  0.000
   15  0.000  0.000  0.000  0.000
   16  0.000  0.000  0.000  0.000
   17  0.000  0.000  0.000  0.000
   18  0.000  0.000  0.000  0.000
   19  0.000  0.000  0.000  0.000
   20  0.000  0.000  0.000  0.000
   21  0.000  0.000  0.000  0.000
   22  0.000  0.000  0.000  0.000
   23  0.000  0.000  0.000  0.000
   24  0.000  0.000  0.000  0.000
   25  0.000  0.000  0.000  0.000
   26  0.000  0.000  0.000  0.000
   27  0.000  0.000  0.000  0.000
   28  0.000  0.000  0.000  0.000
   29  0.000  0.000  0.000  0.000
   30  0.000  0.000  0.001  0.001
   31  0.000  0.000  0.000  0.000
   32  0.000  0.000  0.000  0.000
   33  0.000  0.000  0.001  0.001
   34  0.000  0.000  0.000  0.000
   35  0.000  0.000  0.000  0.000
   36  0.000  0.000  0.003  0.003
   37  0.000  0.102  0.000  0.102
   38  0.000  0.566  0.000  0.566
   39  0.000  0.008  0.000  0.008
tot    0.001  0.677  0.006  0.684
 
band    11 # energy   -6.42557481 # occ.  2.00000000
 
ion      s      p      d    tot
    1  0.013  0.000  0.000  0.014
    2  0.004  0.000  0.003  0.007
    3  0.004  0.000  0.003  0.007
    4  0.004  0.000  0.003  0.007
    5  0.004  0.000  0.003  0.007
    6  0.004  0.000  0.003  0.007
    7  0.004  0.000  0.003  0.007
    8  0.004  0.000  0.003  0.007
    9  0.000  0.000  0.004  0.004
   10  0.002  0.000  0.010  0.012
   11  0.000  0.001  0.005  0.006
   12  0.002  0.000  0.010  0.012
   13  0.000  0.001  0.005  0.006
   14  0.000  0.001  0.005  0.006
   15  0.011  0.002  0.001  0.013
   16  0.002  0.000  0.010  0.012
   17  0.011  0.002  0.001  0.013
   18  0.011  0.002  0.001  0.013
   19  0.003  0.000  0.011  0.014
   20  0.004  0.001  0.026  0.031
   21  0.004  0.001  0.026  0.031
   22  0.021  0.001  0.001  0.023
   23  0.004  0.001  0.026  0.031
   24  0.021  0.001  0.001  0.023
   25  0.003  0.000  0.011  0.014
   26  0.003  0.000  0.011  0.014
   27  0.021  0.001  0.001  0.023
   28  0.000  0.000  0.003  0.003
   29  0.002  0.001  0.003  0.005
   30  0.002  0.001  0.003  0.005
   31  0.002  0.001  0.003  0.005
   32  0.002  0.001  0.003  0.005
   33  0.002  0.001  0.003  0.005
   34  0.002  0.001  0.003  0.005
   35  0.001  0.001  0.003  0.005
   36  0.032  0.005  0.037  0.074
   37  0.090  0.070  0.000  0.160
   38  0.007  0.021  0.000  0.028
   39  0.006  0.000  0.000  0.007
tot    0.305  0.117  0.249  0.671
 
band    12 # energy   -6.33692259 # occ.  2.00000000
 
ion      s      p      d    tot
    1  0.005  0.000  0.013  0.018
    2  0.011  0.000  0.010  0.021
    3  0.011  0.000  0.010  0.021
    4  0.011  0.000  0.010  0.021
    5  0.008  0.000  0.008  0.016
    6  0.011  0.000  0.010  0.021
    7  0.011  0.000  0.010  0.021
    8  0.011  0.000  0.010  0.021
    9  0.026  0.000  0.006  0.033
   10  0.008  0.001  0.009  0.018
   11  0.008  0.002  0.006  0.016
   12  0.008  0.001  0.009  0.018
   13  0.008  0.002  0.006  0.016
   14  0.008  0.002  0.006  0.016
   15  0.001  0.001  0.009  0.011
   16  0.008  0.001  0.009  0.018
   17  0.001  0.001  0.009  0.011
   18  0.001  0.001  0.009  0.011
   19  0.001  0.001  0.011  0.013
   20  0.016  0.002  0.009  0.026
   21  0.016  0.002  0.009  0.026
   22  0.001  0.001  0.005  0.007
   23  0.016  0.002  0.009  0.026
   24  0.001  0.001  0.005  0.007
   25  0.001  0.001  0.011  0.013
   26  0.001  0.001  0.011  0.013
   27  0.001  0.001  0.005  0.007
   28  0.017  0.000  0.006  0.023
   29  0.014  0.000  0.010  0.024
   30  0.014  0.000  0.010  0.024
   31  0.014  0.000  0.010  0.024
   32  0.014  0.000  0.010  0.024
   33  0.014  0.000  0.010  0.024
   34  0.014  0.000  0.010  0.024
   35  0.025  0.000  0.008  0.033
   36  0.001  0.001  0.006  0.007
   37  0.000  0.000  0.000  0.000
   38  0.000  0.000  0.000  0.000
   39  0.000  0.000  0.000  0.000
tot    0.340  0.024  0.315  0.679
 
band    13 # energy   -6.29308000 # occ.  2.00000000
 
ion      s      p      d    tot
    1  0.000  0.001  0.009  0.010
    2  0.003  0.001  0.004  0.008
    3  0.007  0.001  0.003  0.011
    4  0.003  0.001  0.004  0.008
    5  0.000  0.001  0.006  0.007
    6  0.001  0.000  0.003  0.004
    7  0.007  0.001  0.003  0.011
    8  0.001  0.000  0.003  0.004
    9  0.000  0.000  0.001  0.001
   10  0.000  0.000  0.039  0.039
   11  0.036  0.001  0.015  0.052
   12  0.032  0.002  0.013  0.046
   13  0.036  0.001  0.015  0.052
   14  0.000  0.004  0.020  0.024
   15  0.000  0.001  0.011  0.012
   16  0.032  0.002  0.013  0.046
   17  0.000  0.001  0.011  0.012
   18  0.000  0.003  0.007  0.010
   19  0.011  0.001  0.011  0.023
   20  0.000  0.002  0.040  0.042
   21  0.045  0.002  0.016  0.063
   22  0.009  0.001  0.010  0.021
   23  0.045  0.002  0.016  0.063
   24  0.000  0.001  0.023  0.024
   25  0.000  0.004  0.004  0.009
   26  0.011  0.001  0.011  0.023
   27  0.009  0.001  0.010  0.021
   28  0.000  0.000  0.001  0.002
   29  0.000  0.000  0.002  0.003
   30  0.003  0.001  0.003  0.007
   31  0.000  0.000  0.002  0.003
   32  0.005  0.001  0.003  0.009
   33  0.003  0.001  0.003  0.007
   34  0.005  0.001  0.003  0.009
   35  0.000  0.000  0.004  0.004
   36  0.000  0.001  0.003  0.004
   37  0.000  0.000  0.000  0.000
   38  0.000  0.000  0.000  0.000
   39  0.000  0.000  0.000  0.000
tot    0.303  0.042  0.344  0.690
 
band    14 # energy   -6.29304702 # occ.  2.00000000
 
ion      s      p      d    tot
    1  0.000  0.001  0.009  0.010
    2  0.004  0.001  0.003  0.008
    3  0.000  0.000  0.003  0.004
    4  0.004  0.001  0.003  0.008
    5  0.000  0.001  0.006  0.007
    6  0.006  0.001  0.004  0.011
    7  0.000  0.000  0.003  0.004
    8  0.007  0.001  0.004  0.011
    9  0.000  0.000  0.001  0.001
   10  0.042  0.002  0.004  0.048
   11  0.012  0.003  0.018  0.033
   12  0.011  0.001  0.030  0.041
   13  0.012  0.003  0.018  0.033
   14  0.048  0.001  0.013  0.061
   15  0.000  0.002  0.008  0.011
   16  0.011  0.001  0.030  0.041
   17  0.000  0.002  0.008  0.011
   18  0.000  0.000  0.012  0.012
   19  0.004  0.003  0.007  0.013
   20  0.060  0.002  0.008  0.070
   21  0.015  0.002  0.032  0.048
   22  0.003  0.001  0.019  0.023
   23  0.015  0.002  0.032  0.049
   24  0.012  0.002  0.006  0.020
   25  0.014  0.000  0.013  0.028
   26  0.003  0.003  0.007  0.013
   27  0.003  0.001  0.019  0.023
   28  0.000  0.000  0.001  0.002
   29  0.005  0.001  0.003  0.010
   30  0.002  0.001  0.003  0.005
   31  0.005  0.001  0.003  0.010
   32  0.001  0.000  0.002  0.003
   33  0.002  0.001  0.003  0.005
   34  0.001  0.000  0.002  0.003
   35  0.000  0.000  0.004  0.004
   36  0.000  0.001  0.003  0.004
   37  0.000  0.000  0.000  0.000
   38  0.000  0.000  0.000  0.000
   39  0.000  0.000  0.000  0.000
tot    0.303  0.042  0.344  0.690
 
band    15 # energy   -6.28200950 # occ.  2.00000000
 
ion      s      p      d    tot
    1  0.006  0.000  0.010  0.016
    2  0.008  0.000  0.010  0.017
    3  0.008  0.000  0.010  0.017
    4  0.008  0.000  0.010  0.017
    5  0.013  0.000  0.008  0.021
    6  0.008  0.000  0.010  0.017
    7  0.008  0.000  0.010  0.017
    8  0.008  0.000  0.010  0.017
    9  0.005  0.000  0.011  0.016
   10  0.009  0.000  0.022  0.031
   11  0.001  0.000  0.025  0.026
   12  0.009  0.000  0.022  0.031
   13  0.001  0.000  0.025  0.026
   14  0.001  0.000  0.025  0.026
   15  0.009  0.000  0.020  0.028
   16  0.009  0.000  0.022  0.031
   17  0.009  0.000  0.020  0.028
   18  0.009  0.000  0.020  0.028
   19  0.001  0.000  0.021  0.022
   20  0.010  0.000  0.021  0.032
   21  0.010  0.000  0.021  0.032
   22  0.004  0.000  0.018  0.022
   23  0.010  0.000  0.021  0.032
   24  0.004  0.000  0.018  0.022
   25  0.001  0.000  0.021  0.022
   26  0.001  0.000  0.021  0.022
   27  0.004  0.000  0.018  0.022
   28  0.009  0.000  0.005  0.014
   29  0.006  0.000  0.007  0.013
   30  0.006  0.000  0.007  0.013
   31  0.006  0.000  0.007  0.013
   32  0.006  0.000  0.007  0.013
   33  0.006  0.000  0.007  0.013
   34  0.006  0.000  0.007  0.013
   35  0.005  0.000  0.008  0.013
   36  0.002  0.001  0.001  0.003
   37  0.002  0.002  0.000  0.004
   38  0.000  0.001  0.000  0.001
   39  0.000  0.000  0.000  0.000
tot    0.223  0.006  0.524  0.753
 
band    16 # energy   -6.26377298 # occ.  2.00000000
 
ion      s      p      d    tot
    1  0.010  0.001  0.000  0.011
    2  0.000  0.001  0.006  0.007
    3  0.000  0.001  0.006  0.007
    4  0.000  0.001  0.006  0.007
    5  0.012  0.002  0.003  0.016
    6  0.000  0.001  0.006  0.007
    7  0.000  0.001  0.006  0.007
    8  0.000  0.001  0.006  0.007
    9  0.001  0.000  0.000  0.002
   10  0.016  0.003  0.006  0.025
   11  0.029  0.001  0.015  0.045
   12  0.016  0.003  0.006  0.025
   13  0.029  0.001  0.015  0.045
   14  0.029  0.001  0.015  0.045
   15  0.000  0.001  0.026  0.027
   16  0.016  0.003  0.006  0.025
   17  0.000  0.001  0.026  0.027
   18  0.000  0.001  0.026  0.027
   19  0.032  0.002  0.004  0.038
   20  0.003  0.002  0.018  0.024
   21  0.004  0.002  0.018  0.024
   22  0.003  0.000  0.027  0.031
   23  0.004  0.002  0.018  0.024
   24  0.003  0.000  0.027  0.031
   25  0.032  0.002  0.004  0.038
   26  0.032  0.002  0.004  0.038
   27  0.003  0.000  0.027  0.031
   28  0.007  0.001  0.003  0.011
   29  0.001  0.000  0.004  0.005
   30  0.001  0.000  0.004  0.005
   31  0.001  0.000  0.004  0.005
   32  0.001  0.000  0.004  0.005
   33  0.001  0.000  0.004  0.005
   34  0.001  0.000  0.004  0.005
   35  0.008  0.000  0.000  0.009
   36  0.002  0.000  0.000  0.002
   37  0.001  0.001  0.000  0.002
   38  0.000  0.000  0.000  0.000
   39  0.000  0.000  0.000  0.000
tot    0.297  0.040  0.358  0.695
 
band    17 # energy   -6.23860953 # occ.  2.00000000
 
ion      s      p      d    tot
    1  0.000  0.001  0.003  0.003
    2  0.004  0.001  0.004  0.008
    3  0.008  0.001  0.004  0.013
    4  0.004  0.001  0.004  0.009
    5  0.000  0.000  0.005  0.006
    6  0.001  0.000  0.003  0.005
    7  0.008  0.001  0.004  0.013
    8  0.001  0.000  0.003  0.005
    9  0.000  0.001  0.011  0.012
   10  0.020  0.000  0.017  0.037
   11  0.003  0.001  0.023  0.028
   12  0.005  0.004  0.006  0.015
   13  0.003  0.001  0.024  0.028
   14  0.013  0.001  0.006  0.021
   15  0.016  0.001  0.031  0.049
   16  0.005  0.004  0.006  0.015
   17  0.015  0.001  0.032  0.048
   18  0.063  0.002  0.006  0.071
   19  0.009  0.001  0.027  0.038
   20  0.000  0.001  0.014  0.015
   21  0.000  0.002  0.010  0.012
   22  0.010  0.003  0.016  0.028
   23  0.000  0.002  0.010  0.012
   24  0.039  0.001  0.010  0.050
   25  0.037  0.002  0.003  0.042
   26  0.009  0.001  0.028  0.037
   27  0.010  0.003  0.016  0.029
   28  0.000  0.000  0.006  0.007
   29  0.000  0.000  0.002  0.003
   30  0.002  0.000  0.002  0.005
   31  0.000  0.000  0.002  0.003
   32  0.004  0.001  0.003  0.008
   33  0.002  0.000  0.002  0.005
   34  0.004  0.001  0.003  0.008
   35  0.000  0.001  0.005  0.005
   36  0.000  0.000  0.000  0.000
   37  0.000  0.000  0.000  0.000
   38  0.000  0.001  0.000  0.001
   39  0.000  0.000  0.000  0.000
tot    0.298  0.042  0.352  0.692
 
band    18 # energy   -6.23857437 # occ.  2.00000000
 
ion      s      p      d    tot
    1  0.000  0.001  0.003  0.003
    2  0.005  0.001  0.003  0.009
    3  0.000  0.000  0.004  0.004
    4  0.005  0.001  0.003  0.009
    5  0.000  0.000  0.005  0.006
    6  0.008  0.001  0.004  0.013
    7  0.000  0.000  0.004  0.004
    8  0.008  0.001  0.004  0.013
    9  0.000  0.001  0.011  0.012
   10  0.000  0.005  0.003  0.007
   11  0.010  0.001  0.012  0.023
   12  0.015  0.001  0.014  0.030
   13  0.010  0.001  0.012  0.023
   14  0.000  0.001  0.029  0.030
   15  0.047  0.001  0.015  0.063
   16  0.015  0.001  0.014  0.030
   17  0.048  0.001  0.014  0.064
   18  0.000  0.001  0.040  0.041
   19  0.027  0.002  0.012  0.041
   20  0.000  0.003  0.009  0.011
   21  0.000  0.001  0.013  0.014
   22  0.030  0.001  0.012  0.043
   23  0.000  0.001  0.013  0.014
   24  0.000  0.003  0.018  0.021
   25  0.000  0.000  0.036  0.036
   26  0.028  0.002  0.011  0.041
   27  0.029  0.001  0.012  0.043
   28  0.000  0.000  0.006  0.007
   29  0.004  0.001  0.002  0.007
   30  0.002  0.000  0.003  0.005
   31  0.004  0.001  0.002  0.007
   32  0.000  0.000  0.002  0.002
   33  0.002  0.000  0.003  0.005
   34  0.000  0.000  0.002  0.002
   35  0.000  0.001  0.004  0.005
   36  0.000  0.000  0.000  0.000
   37  0.000  0.000  0.000  0.000
   38  0.000  0.001  0.000  0.001
   39  0.000  0.000  0.000  0.000
tot    0.298  0.042  0.352  0.692
 
band    19 # energy   -6.07054916 # occ.  2.00000000
 
ion      s      p      d    tot
    1  0.004  0.000  0.000  0.005
    2  0.000  0.001  0.005  0.006
    3  0.000  0.001  0.005  0.006
    4  0.000  0.001  0.005  0.006
    5  0.005  0.000  0.001  0.006
    6  0.000  0.001  0.005  0.006
    7  0.000  0.001  0.005  0.006
    8  0.000  0.001  0.005  0.006
    9  0.009  0.002  0.002  0.013
   10  0.004  0.000  0.024  0.027
   11  0.003  0.002  0.007  0.012
   12  0.004  0.000  0.024  0.027
   13  0.003  0.002  0.007  0.012
   14  0.003  0.002  0.007  0.012
   15  0.024  0.002  0.006  0.032
   16  0.004  0.000  0.024  0.027
   17  0.024  0.002  0.006  0.032
   18  0.024  0.002  0.006  0.032
   19  0.001  0.001  0.003  0.006
   20  0.001  0.001  0.015  0.017
   21  0.001  0.001  0.015  0.017
   22  0.006  0.002  0.007  0.015
   23  0.001  0.001  0.015  0.017
   24  0.006  0.002  0.007  0.015
   25  0.001  0.001  0.003  0.006
   26  0.001  0.001  0.003  0.006
   27  0.006  0.002  0.007  0.015
   28  0.011  0.000  0.004  0.016
   29  0.004  0.000  0.006  0.011
   30  0.004  0.000  0.006  0.011
   31  0.004  0.000  0.006  0.011
   32  0.004  0.000  0.006  0.011
   33  0.004  0.000  0.006  0.011
   34  0.004  0.000  0.006  0.011
   35  0.004  0.000  0.005  0.009
   36  0.007  0.007  0.044  0.058
   37  0.076  0.056  0.000  0.132
   38  0.006  0.016  0.000  0.021
   39  0.005  0.000  0.000  0.005
tot    0.273  0.109  0.308  0.690
 
band    20 # energy   -5.81306701 # occ.  2.00000000
 
ion      s      p      d    tot
    1  0.013  0.002  0.002  0.017
    2  0.000  0.001  0.007  0.008
    3  0.000  0.001  0.007  0.008
    4  0.000  0.001  0.007  0.008
    5  0.000  0.000  0.002  0.002
    6  0.000  0.001  0.007  0.008
    7  0.000  0.001  0.007  0.008
    8  0.000  0.001  0.007  0.008
    9  0.015  0.001  0.000  0.016
   10  0.009  0.001  0.012  0.023
   11  0.003  0.000  0.042  0.045
   12  0.010  0.001  0.012  0.023
   13  0.003  0.000  0.042  0.045
   14  0.002  0.000  0.043  0.045
   15  0.003  0.001  0.021  0.024
   16  0.010  0.001  0.012  0.023
   17  0.003  0.001  0.021  0.024
   18  0.003  0.001  0.023  0.026
   19  0.004  0.001  0.013  0.018
   20  0.001  0.000  0.055  0.056
   21  0.002  0.000  0.054  0.056
   22  0.012  0.001  0.017  0.030
   23  0.002  0.000  0.054  0.056
   24  0.011  0.001  0.016  0.029
   25  0.004  0.001  0.015  0.020
   26  0.004  0.001  0.013  0.018
   27  0.012  0.001  0.017  0.030
   28  0.015  0.001  0.000  0.016
   29  0.000  0.001  0.007  0.007
   30  0.000  0.001  0.007  0.008
   31  0.000  0.001  0.007  0.007
   32  0.000  0.001  0.007  0.008
   33  0.000  0.001  0.007  0.008
   34  0.000  0.001  0.007  0.008
   35  0.008  0.001  0.002  0.012
   36  0.000  0.000  0.000  0.001
   37  0.001  0.000  0.000  0.001
   38  0.000  0.000  0.000  0.000
   39  0.000  0.000  0.000  0.000