PROCAR new format
# of k-points:   10         # of bands:  252         # of ions:   37

 k-point     1 :    0.00000000 0.00000000 0.00000000     weight = 0.01562500

band     1 # energy  -47.62109755 # occ.  2.00000000
 
ion      s      p      d    tot
    1  0.000  0.000  0.000  0.000
    2  0.000  0.000  0.000  0.000
    3  0.000  0.000  0.000  0.000
    4  0.000  0.000  0.000  0.000
    5  0.000  0.000  0.000  0.000
    6  0.000  0.000  0.000  0.000
    7  0.000  0.000  0.000  0.000
    8  0.000  0.000  0.000  0.000
    9  0.000  0.000  0.000  0.000
   10  0.000  0.000  0.000  0.000
   11  0.000  0.000  0.000  0.000
   12  0.000  0.000  0.000  0.000
   13  0.000  0.000  0.000  0.000
   14  0.000  0.000  0.000  0.000
   15  0.000  0.000  0.000  0.000
   16  0.000  0.000  0.000  0.000
   17  0.000  0.000  0.000  0.000
   18  0.000  0.000  0.000  0.000
   19  0.000  0.000  0.000  0.000
   20  0.000  0.000  0.000  0.000
   21  0.000  0.000  0.000  0.000
   22  0.000  0.000  0.000  0.000
   23  0.000  0.000  0.000  0.000
   24  0.000  0.000  0.000  0.000
   25  0.000  0.000  0.000  0.000
   26  0.000  0.000  0.000  0.000
   27  0.000  0.000  0.000  0.000
   28  0.000  0.000  0.000  0.000
   29  0.000  0.000  0.000  0.000
   30  0.000  0.000  0.000  0.000
   31  0.000  0.000  0.000  0.000
   32  0.000  0.000  0.000  0.000
   33  0.000  0.000  0.000  0.000
   34  0.000  0.000  0.000  0.000
   35  0.000  0.000  0.000  0.000
   36  0.991  0.000  0.000  0.992
   37  0.001  0.002  0.000  0.003
tot    0.993  0.002  0.000  0.995
 
band     2 # energy  -26.05715427 # occ.  2.00000000
 
ion      s      p      d    tot
    1  0.000  0.000  0.000  0.000
    2  0.000  0.000  0.000  0.000
    3  0.000  0.000  0.000  0.000
    4  0.000  0.000  0.000  0.000
    5  0.000  0.000  0.000  0.000
    6  0.000  0.000  0.000  0.000
    7  0.000  0.000  0.000  0.000
    8  0.000  0.000  0.000  0.000
    9  0.000  0.000  0.000  0.000
   10  0.000  0.000  0.000  0.000
   11  0.000  0.000  0.000  0.000
   12  0.000  0.000  0.000  0.000
   13  0.000  0.000  0.000  0.000
   14  0.000  0.000  0.000  0.000
   15  0.000  0.000  0.000  0.000
   16  0.000  0.000  0.000  0.000
   17  0.000  0.000  0.000  0.000
   18  0.000  0.000  0.000  0.000
   19  0.000  0.000  0.000  0.000
   20  0.000  0.000  0.000  0.000
   21  0.000  0.000  0.000  0.000
   22  0.000  0.000  0.000  0.000
   23  0.000  0.000  0.000  0.000
   24  0.000  0.000  0.000  0.000
   25  0.000  0.000  0.000  0.000
   26  0.000  0.000  0.000  0.000
   27  0.000  0.000  0.000  0.000
   28  0.000  0.000  0.000  0.000
   29  0.000  0.000  0.000  0.000
   30  0.000  0.000  0.000  0.000
   31  0.000  0.000  0.000  0.000
   32  0.000  0.000  0.000  0.000
   33  0.000  0.000  0.000  0.000
   34  0.000  0.000  0.000  0.000
   35  0.000  0.000  0.000  0.000
   36  0.000  0.931  0.002  0.933
   37  0.027  0.016  0.000  0.043
tot    0.027  0.948  0.002  0.978
 
band     3 # energy  -25.93095562 # occ.  2.00000000
 
ion      s      p      d    tot
    1  0.000  0.000  0.000  0.000
    2  0.000  0.000  0.000  0.000
    3  0.000  0.000  0.000  0.000
    4  0.000  0.000  0.000  0.000
    5  0.000  0.000  0.000  0.000
    6  0.000  0.000  0.000  0.000
    7  0.000  0.000  0.000  0.000
    8  0.000  0.000  0.000  0.000
    9  0.000  0.000  0.000  0.000
   10  0.000  0.000  0.000  0.000
   11  0.000  0.000  0.000  0.000
   12  0.000  0.000  0.000  0.000
   13  0.000  0.000  0.000  0.000
   14  0.000  0.000  0.000  0.000
   15  0.000  0.000  0.000  0.000
   16  0.000  0.000  0.000  0.000
   17  0.000  0.000  0.000  0.000
   18  0.000  0.000  0.000  0.000
   19  0.000  0.000  0.000  0.000
   20  0.000  0.000  0.000  0.000
   21  0.000  0.000  0.000  0.000
   22  0.000  0.000  0.000  0.000
   23  0.000  0.000  0.000  0.000
   24  0.000  0.000  0.000  0.000
   25  0.000  0.000  0.000  0.000
   26  0.000  0.000  0.000  0.000
   27  0.000  0.000  0.000  0.000
   28  0.000  0.000  0.000  0.000
   29  0.000  0.000  0.000  0.000
   30  0.000  0.001  0.000  0.001
   31  0.000  0.000  0.000  0.000
   32  0.000  0.000  0.000  0.000
   33  0.000  0.001  0.000  0.001
   34  0.000  0.000  0.000  0.000
   35  0.000  0.000  0.000  0.000
   36  0.000  0.966  0.000  0.966
   37  0.000  0.001  0.000  0.001
tot    0.001  0.968  0.001  0.971
 
band     4 # energy  -25.93094626 # occ.  2.00000000
 
ion      s      p      d    tot
    1  0.000  0.000  0.000  0.000
    2  0.000  0.000  0.000  0.000
    3  0.000  0.000  0.000  0.000
    4  0.000  0.000  0.000  0.000
    5  0.000  0.000  0.000  0.000
    6  0.000  0.000  0.000  0.000
    7  0.000  0.000  0.000  0.000
    8  0.000  0.000  0.000  0.000
    9  0.000  0.000  0.000  0.000
   10  0.000  0.000  0.000  0.000
   11  0.000  0.000  0.000  0.000
   12  0.000  0.000  0.000  0.000
   13  0.000  0.000  0.000  0.000
   14  0.000  0.000  0.000  0.000
   15  0.000  0.000  0.000  0.000
   16  0.000  0.000  0.000  0.000
   17  0.000  0.000  0.000  0.000
   18  0.000  0.000  0.000  0.000
   19  0.000  0.000  0.000  0.000
   20  0.000  0.000  0.000  0.000
   21  0.000  0.000  0.000  0.000
   22  0.000  0.000  0.000  0.000
   23  0.000  0.000  0.000  0.000
   24  0.000  0.000  0.000  0.000
   25  0.000  0.000  0.000  0.000
   26  0.000  0.000  0.000  0.000
   27  0.000  0.000  0.000  0.000
   28  0.000  0.000  0.000  0.000
   29  0.000  0.000  0.000  0.001
   30  0.000  0.000  0.000  0.000
   31  0.000  0.000  0.000  0.001
   32  0.000  0.000  0.000  0.001
   33  0.000  0.000  0.000  0.000
   34  0.000  0.000  0.000  0.001
   35  0.000  0.000  0.000  0.000
   36  0.000  0.966  0.000  0.966
   37  0.000  0.001  0.000  0.001
tot    0.001  0.968  0.001  0.971
 
band     5 # energy  -10.94349211 # occ.  2.00000000
 
ion      s      p      d    tot
    1  0.000  0.000  0.000  0.000
    2  0.000  0.000  0.000  0.000
    3  0.000  0.000  0.000  0.000
    4  0.000  0.000  0.000  0.000
    5  0.000  0.000  0.000  0.000
    6  0.000  0.000  0.000  0.000
    7  0.000  0.000  0.000  0.000
    8  0.000  0.000  0.000  0.000
    9  0.000  0.000  0.000  0.000
   10  0.000  0.000  0.000  0.000
   11  0.000  0.000  0.000  0.000
   12  0.000  0.000  0.000  0.000
   13  0.000  0.000  0.000  0.000
   14  0.000  0.000  0.000  0.000
   15  0.000  0.000  0.000  0.000
   16  0.000  0.000  0.000  0.000
   17  0.000  0.000  0.000  0.000
   18  0.000  0.000  0.000  0.000
   19  0.000  0.000  0.000  0.000
   20  0.001  0.000  0.000  0.001
   21  0.001  0.000  0.000  0.001
   22  0.000  0.000  0.000  0.000
   23  0.001  0.000  0.000  0.001
   24  0.000  0.000  0.000  0.000
   25  0.000  0.000  0.000  0.000
   26  0.000  0.000  0.000  0.000
   27  0.000  0.000  0.000  0.000
   28  0.000  0.000  0.000  0.000
   29  0.000  0.000  0.000  0.000
   30  0.000  0.000  0.000  0.000
   31  0.000  0.000  0.000  0.000
   32  0.000  0.000  0.000  0.000
   33  0.000  0.000  0.000  0.000
   34  0.000  0.000  0.000  0.000
   35  0.000  0.000  0.000  0.000
   36  0.026  0.044  0.076  0.145
   37  0.623  0.003  0.000  0.626
tot    0.652  0.048  0.076  0.776
 
band     6 # energy   -8.89941677 # occ.  2.00000000
 
ion      s      p      d    tot
    1  0.007  0.001  0.000  0.008
    2  0.007  0.001  0.000  0.008
    3  0.007  0.001  0.000  0.008
    4  0.007  0.001  0.000  0.008
    5  0.007  0.001  0.000  0.008
    6  0.007  0.001  0.000  0.008
    7  0.007  0.001  0.000  0.008
    8  0.007  0.001  0.000  0.008
    9  0.007  0.001  0.000  0.008
   10  0.025  0.000  0.000  0.026
   11  0.024  0.000  0.000  0.025
   12  0.025  0.000  0.000  0.026
   13  0.024  0.000  0.000  0.025
   14  0.024  0.000  0.000  0.025
   15  0.025  0.000  0.000  0.026
   16  0.025  0.000  0.000  0.026
   17  0.025  0.000  0.000  0.026
   18  0.025  0.000  0.000  0.026
   19  0.026  0.000  0.000  0.026
   20  0.022  0.000  0.000  0.022
   21  0.022  0.000  0.000  0.022
   22  0.025  0.000  0.000  0.025
   23  0.022  0.000  0.000  0.022
   24  0.025  0.000  0.000  0.025
   25  0.026  0.000  0.000  0.026
   26  0.026  0.000  0.000  0.026
   27  0.025  0.000  0.000  0.025
   28  0.007  0.001  0.000  0.008
   29  0.006  0.001  0.000  0.007
   30  0.006  0.001  0.000  0.007
   31  0.006  0.001  0.000  0.007
   32  0.006  0.001  0.000  0.007
   33  0.006  0.001  0.000  0.007
   34  0.006  0.001  0.000  0.007
   35  0.007  0.001  0.000  0.008
   36  0.001  0.001  0.000  0.003
   37  0.003  0.000  0.000  0.003
tot    0.561  0.017  0.002  0.580
 
band     7 # energy   -7.60173572 # occ.  2.00000000
 
ion      s      p      d    tot
    1  0.018  0.001  0.001  0.019
    2  0.018  0.001  0.001  0.019
    3  0.018  0.001  0.001  0.019
    4  0.018  0.001  0.001  0.019
    5  0.018  0.001  0.001  0.019
    6  0.018  0.001  0.001  0.019
    7  0.018  0.001  0.001  0.019
    8  0.018  0.001  0.001  0.019
    9  0.018  0.001  0.001  0.019
   10  0.009  0.002  0.001  0.012
   11  0.010  0.002  0.000  0.013
   12  0.009  0.002  0.001  0.012
   13  0.010  0.002  0.000  0.013
   14  0.010  0.002  0.000  0.013
   15  0.009  0.002  0.001  0.012
   16  0.009  0.002  0.001  0.012
   17  0.009  0.002  0.001  0.012
   18  0.009  0.002  0.001  0.012
   19  0.012  0.002  0.000  0.015
   20  0.008  0.002  0.001  0.011
   21  0.008  0.002  0.001  0.011
   22  0.012  0.002  0.001  0.014
   23  0.008  0.002  0.001  0.011
   24  0.012  0.002  0.001  0.014
   25  0.012  0.002  0.000  0.015
   26  0.012  0.002  0.000  0.015
   27  0.012  0.002  0.001  0.014
   28  0.022  0.001  0.001  0.023
   29  0.019  0.001  0.001  0.020
   30  0.019  0.001  0.001  0.020
   31  0.019  0.001  0.001  0.020
   32  0.019  0.001  0.001  0.020
   33  0.019  0.001  0.001  0.020
   34  0.019  0.001  0.001  0.020
   35  0.022  0.001  0.001  0.023
   36  0.004  0.001  0.001  0.007
   37  0.002  0.000  0.000  0.002
tot    0.503  0.055  0.021  0.579
 
band     8 # energy   -6.02249186 # occ.  2.00000000
 
ion      s      p      d    tot
    1  0.017  0.000  0.006  0.022
    2  0.015  0.000  0.006  0.021
    3  0.015  0.000  0.006  0.021
    4  0.015  0.000  0.006  0.021
    5  0.008  0.000  0.007  0.014
    6  0.015  0.000  0.006  0.021
    7  0.015  0.000  0.006  0.021
    8  0.015  0.000  0.006  0.021
    9  0.023  0.000  0.004  0.027
   10  0.003  0.003  0.002  0.009
   11  0.010  0.005  0.001  0.016
   12  0.003  0.003  0.002  0.009
   13  0.010  0.005  0.001  0.016
   14  0.010  0.005  0.001  0.016
   15  0.000  0.003  0.003  0.006
   16  0.003  0.003  0.002  0.009
   17  0.000  0.003  0.003  0.006
   18  0.000  0.003  0.003  0.006
   19  0.001  0.003  0.005  0.010
   20  0.017  0.004  0.002  0.023
   21  0.017  0.004  0.002  0.023
   22  0.001  0.004  0.004  0.009
   23  0.017  0.004  0.002  0.023
   24  0.001  0.004  0.004  0.009
   25  0.001  0.003  0.005  0.010
   26  0.001  0.003  0.005  0.010
   27  0.001  0.004  0.004  0.009
   28  0.023  0.000  0.006  0.029
   29  0.016  0.001  0.008  0.025
   30  0.016  0.001  0.008  0.025
   31  0.016  0.001  0.008  0.025
   32  0.016  0.001  0.008  0.025
   33  0.016  0.001  0.008  0.025
   34  0.016  0.001  0.008  0.025
   35  0.028  0.000  0.007  0.034
   36  0.002  0.000  0.006  0.009
   37  0.000  0.000  0.000  0.000
tot    0.385  0.069  0.172  0.626
 
band     9 # energy   -5.95782461 # occ.  2.00000000
 
ion      s      p      d    tot
    1  0.000  0.002  0.003  0.005
    2  0.003  0.001  0.002  0.007
    3  0.009  0.002  0.002  0.013
    4  0.003  0.001  0.002  0.006
    5  0.000  0.000  0.002  0.002
    6  0.001  0.001  0.002  0.004
    7  0.008  0.002  0.002  0.013
    8  0.001  0.001  0.002  0.004
    9  0.000  0.002  0.005  0.007
   10  0.028  0.000  0.006  0.035
   11  0.001  0.005  0.006  0.012
   12  0.007  0.009  0.004  0.021
   13  0.001  0.005  0.006  0.012
   14  0.004  0.002  0.003  0.010
   15  0.012  0.002  0.012  0.026
   16  0.006  0.009  0.004  0.020
   17  0.014  0.002  0.011  0.028
   18  0.053  0.004  0.003  0.061
   19  0.015  0.003  0.013  0.031
   20  0.008  0.003  0.003  0.014
   21  0.002  0.005  0.008  0.015
   22  0.007  0.010  0.003  0.021
   23  0.002  0.005  0.009  0.015
   24  0.026  0.000  0.007  0.033
   25  0.065  0.004  0.004  0.073
   26  0.018  0.003  0.013  0.034
   27  0.006  0.011  0.003  0.020
   28  0.000  0.004  0.007  0.011
   29  0.004  0.002  0.003  0.008
   30  0.015  0.003  0.004  0.023
   31  0.003  0.002  0.003  0.007
   32  0.004  0.002  0.003  0.009
   33  0.015  0.003  0.004  0.023
   34  0.005  0.002  0.003  0.010
   35  0.000  0.003  0.004  0.008
   36  0.000  0.000  0.003  0.003
   37  0.000  0.000  0.000  0.000
tot    0.349  0.115  0.177  0.640
 
band    10 # energy   -5.95777816 # occ.  2.00000000
 
ion      s      p      d    tot
    1  0.000  0.002  0.003  0.005
    2  0.005  0.002  0.002  0.009
    3  0.000  0.001  0.002  0.003
    4  0.006  0.002  0.002  0.009
    5  0.000  0.000  0.002  0.002
    6  0.008  0.002  0.002  0.012
    7  0.000  0.001  0.002  0.003
    8  0.007  0.002  0.002  0.011
    9  0.000  0.002  0.005  0.007
   10  0.000  0.012  0.003  0.016
   11  0.003  0.003  0.004  0.010
   12  0.020  0.004  0.005  0.029
   13  0.003  0.003  0.004  0.011
   14  0.000  0.005  0.007  0.013
   15  0.041  0.004  0.006  0.051
   16  0.021  0.003  0.006  0.030
   17  0.039  0.004  0.006  0.048
   18  0.000  0.001  0.014  0.016
   19  0.051  0.004  0.007  0.061
   20  0.000  0.005  0.010  0.015
   21  0.006  0.004  0.005  0.014
   22  0.019  0.004  0.005  0.029
   23  0.006  0.003  0.005  0.014
   24  0.000  0.014  0.001  0.015
   25  0.000  0.002  0.016  0.018
   26  0.047  0.004  0.007  0.058
   27  0.020  0.003  0.006  0.029
   28  0.000  0.004  0.007  0.011
   29  0.012  0.003  0.004  0.018
   30  0.000  0.001  0.003  0.004
   31  0.013  0.003  0.004  0.019
   32  0.011  0.003  0.004  0.018
   33  0.000  0.001  0.003  0.004
   34  0.010  0.002  0.004  0.017
   35  0.000  0.003  0.004  0.008
   36  0.000  0.000  0.003  0.003
   37  0.000  0.000  0.000  0.000
tot    0.349  0.115  0.177  0.640
 
band    11 # energy   -5.94466918 # occ.  2.00000000
 
ion      s      p      d    tot
    1  0.018  0.003  0.001  0.022
    2  0.000  0.002  0.004  0.005
    3  0.000  0.002  0.004  0.005
    4  0.000  0.002  0.004  0.005
    5  0.001  0.000  0.000  0.002
    6  0.000  0.002  0.004  0.005
    7  0.000  0.002  0.004  0.005
    8  0.000  0.002  0.004  0.005
    9  0.009  0.001  0.000  0.010
   10  0.029  0.006  0.006  0.040
   11  0.005  0.000  0.011  0.016
   12  0.030  0.006  0.006  0.041
   13  0.005  0.000  0.011  0.016
   14  0.005  0.000  0.011  0.016
   15  0.011  0.008  0.004  0.022
   16  0.030  0.006  0.006  0.041
   17  0.011  0.008  0.004  0.022
   18  0.011  0.008  0.004  0.022
   19  0.024  0.010  0.002  0.035
   20  0.000  0.002  0.010  0.012
   21  0.000  0.002  0.010  0.012
   22  0.025  0.002  0.009  0.037
   23  0.000  0.002  0.010  0.012
   24  0.026  0.002  0.009  0.037
   25  0.024  0.010  0.002  0.036
   26  0.024  0.010  0.002  0.035
   27  0.025  0.002  0.009  0.037
   28  0.019  0.003  0.001  0.023
   29  0.000  0.002  0.005  0.007
   30  0.000  0.002  0.005  0.007
   31  0.000  0.002  0.005  0.007
   32  0.000  0.002  0.005  0.007
   33  0.000  0.002  0.005  0.007
   34  0.000  0.002  0.005  0.007
   35  0.016  0.002  0.001  0.019
   36  0.000  0.000  0.000  0.000
   37  0.000  0.000  0.000  0.000
tot    0.346  0.115  0.179  0.641
 
band    12 # energy   -5.89968798 # occ.  2.00000000
 
ion      s      p      d    tot
    1  0.000  0.001  0.004  0.005
    2  0.004  0.002  0.002  0.008
    3  0.010  0.003  0.003  0.015
    4  0.003  0.001  0.002  0.007
    5  0.000  0.003  0.005  0.009
    6  0.001  0.001  0.002  0.004
    7  0.010  0.002  0.002  0.015
    8  0.002  0.001  0.002  0.005
    9  0.000  0.001  0.002  0.003
   10  0.000  0.001  0.016  0.017
   11  0.045  0.004  0.006  0.055
   12  0.023  0.003  0.006  0.033
   13  0.040  0.004  0.007  0.051
   14  0.000  0.007  0.010  0.017
   15  0.003  0.003  0.005  0.011
   16  0.026  0.004  0.005  0.035
   17  0.002  0.004  0.005  0.011
   18  0.000  0.012  0.002  0.015
   19  0.001  0.003  0.005  0.010
   20  0.000  0.009  0.009  0.018
   21  0.038  0.004  0.007  0.049
   22  0.027  0.003  0.007  0.037
   23  0.043  0.004  0.006  0.053
   24  0.000  0.000  0.017  0.017
   25  0.000  0.012  0.003  0.015
   26  0.001  0.004  0.005  0.010
   27  0.030  0.004  0.005  0.040
   28  0.000  0.001  0.003  0.003
   29  0.003  0.001  0.003  0.006
   30  0.010  0.003  0.003  0.016
   31  0.002  0.001  0.002  0.005
   32  0.002  0.001  0.003  0.006
   33  0.010  0.003  0.003  0.016
   34  0.003  0.001  0.003  0.008
   35  0.000  0.001  0.005  0.006
   36  0.000  0.001  0.003  0.005
   37  0.000  0.000  0.000  0.000
tot    0.342  0.114  0.181  0.636
 
band    13 # energy   -5.89964906 # occ.  2.00000000
 
ion      s      p      d    tot
    1  0.000  0.001  0.004  0.005
    2  0.006  0.002  0.002  0.010
    3  0.000  0.001  0.002  0.003
    4  0.007  0.002  0.002  0.011
    5  0.000  0.003  0.005  0.009
    6  0.009  0.002  0.003  0.014
    7  0.000  0.001  0.002  0.003
    8  0.008  0.002  0.003  0.013
    9  0.000  0.001  0.002  0.003
   10  0.033  0.004  0.002  0.039
   11  0.012  0.006  0.009  0.027
   12  0.010  0.002  0.012  0.023
   13  0.017  0.006  0.008  0.031
   14  0.057  0.003  0.005  0.065
   15  0.001  0.010  0.003  0.014
   16  0.007  0.001  0.013  0.021
   17  0.001  0.009  0.003  0.013
   18  0.004  0.001  0.006  0.010
   19  0.000  0.010  0.004  0.013
   20  0.054  0.002  0.006  0.062
   21  0.016  0.007  0.008  0.030
   22  0.011  0.002  0.013  0.025
   23  0.011  0.007  0.008  0.027
   24  0.039  0.005  0.002  0.046
   25  0.002  0.001  0.006  0.008
   26  0.000  0.009  0.004  0.013
   27  0.008  0.001  0.014  0.023
   28  0.000  0.001  0.003  0.003
   29  0.007  0.002  0.003  0.013
   30  0.000  0.001  0.002  0.003
   31  0.008  0.002  0.003  0.014
   32  0.007  0.002  0.003  0.013
   33  0.000  0.001  0.002  0.003
   34  0.007  0.002  0.003  0.012
   35  0.000  0.001  0.005  0.006
   36  0.000  0.001  0.003  0.005
   37  0.000  0.000  0.000  0.000
tot    0.342  0.114  0.181  0.636
 
band    14 # energy   -5.80454396 # occ.  2.00000000
 
ion      s      p      d    tot
    1  0.000  0.000  0.001  0.001
    2  0.002  0.002  0.006  0.010
    3  0.002  0.002  0.006  0.010
    4  0.002  0.002  0.006  0.010
    5  0.040  0.003  0.000  0.043
    6  0.002  0.002  0.006  0.010
    7  0.002  0.002  0.006  0.010
    8  0.002  0.002  0.006  0.010
    9  0.005  0.002  0.004  0.011
   10  0.003  0.004  0.009  0.016
   11  0.022  0.010  0.004  0.035
   12  0.003  0.004  0.009  0.016
   13  0.022  0.010  0.004  0.035
   14  0.022  0.010  0.004  0.035
   15  0.029  0.002  0.012  0.043
   16  0.003  0.004  0.009  0.016
   17  0.029  0.002  0.012  0.043
   18  0.029  0.002  0.012  0.043
   19  0.007  0.002  0.010  0.018
   20  0.019  0.004  0.007  0.030
   21  0.019  0.004  0.007  0.030
   22  0.007  0.007  0.005  0.019
   23  0.019  0.004  0.007  0.030
   24  0.007  0.007  0.005  0.019
   25  0.007  0.002  0.010  0.018
   26  0.007  0.002  0.010  0.018
   27  0.007  0.007  0.005  0.019
   28  0.001  0.000  0.003  0.004
   29  0.002  0.000  0.003  0.006
   30  0.002  0.000  0.003  0.006
   31  0.002  0.000  0.003  0.006
   32  0.002  0.000  0.003  0.006
   33  0.002  0.000  0.003  0.006
   34  0.002  0.000  0.003  0.006
   35  0.000  0.001  0.002  0.002
   36  0.004  0.002  0.000  0.005
   37  0.001  0.000  0.000  0.001
tot    0.334  0.108  0.201  0.643
 
band    15 # energy   -5.21897274 # occ.  2.00000000
 
ion      s      p      d    tot
    1  0.000  0.004  0.010  0.014
    2  0.005  0.002  0.005  0.012
    3  0.021  0.004  0.005  0.030
    4  0.005  0.002  0.005  0.012
    5  0.000  0.000  0.011  0.011
    6  0.006  0.002  0.005  0.013
    7  0.021  0.004  0.005  0.030
    8  0.006  0.002  0.005  0.013
    9  0.000  0.005  0.009  0.013
   10  0.013  0.001  0.006  0.020
   11  0.001  0.003  0.013  0.016
   12  0.003  0.004  0.016  0.022
   13  0.001  0.003  0.012  0.016
   14  0.003  0.001  0.008  0.012
   15  0.007  0.001  0.018  0.026
   16  0.003  0.004  0.016  0.023
   17  0.007  0.001  0.018  0.026
   18  0.027  0.005  0.005  0.038
   19  0.003  0.002  0.014  0.019
   20  0.001  0.001  0.009  0.011
   21  0.000  0.002  0.012  0.014
   22  0.002  0.002  0.024  0.028
   23  0.000  0.002  0.012  0.014
   24  0.007  0.002  0.003  0.012
   25  0.013  0.007  0.009  0.029
   26  0.003  0.002  0.014  0.019
   27  0.002  0.002  0.024  0.028
   28  0.000  0.005  0.008  0.013
   29  0.007  0.002  0.007  0.016
   30  0.026  0.004  0.010  0.040
   31  0.007  0.002  0.007  0.016
   32  0.006  0.002  0.007  0.016
   33  0.026  0.004  0.010  0.040
   34  0.007  0.002  0.007  0.016
   35  0.000  0.005  0.012  0.017
   36  0.000  0.000  0.008  0.008
   37  0.000  0.000  0.000  0.000
tot    0.237  0.095  0.368  0.700
 
band    16 # energy   -5.21892241 # occ.  2.00000000
 
ion      s      p      d    tot
    1  0.000  0.004  0.010  0.014
    2  0.016  0.003  0.005  0.025
    3  0.000  0.002  0.005  0.006
    4  0.016  0.003  0.005  0.025
    5  0.000  0.000  0.011  0.011
    6  0.015  0.003  0.005  0.024
    7  0.000  0.002  0.005  0.006
    8  0.015  0.003  0.005  0.024
    9  0.000  0.005  0.009  0.013
   10  0.000  0.004  0.019  0.023
   11  0.002  0.002  0.009  0.013
   12  0.009  0.002  0.009  0.021
   13  0.002  0.002  0.009  0.013
   14  0.000  0.003  0.014  0.017
   15  0.021  0.004  0.009  0.034
   16  0.010  0.002  0.009  0.021
   17  0.020  0.004  0.009  0.034
   18  0.000  0.000  0.022  0.022
   19  0.010  0.005  0.011  0.026
   20  0.000  0.002  0.013  0.015
   21  0.001  0.001  0.010  0.012
   22  0.005  0.002  0.010  0.018
   23  0.001  0.001  0.010  0.012
   24  0.000  0.002  0.031  0.033
   25  0.000  0.000  0.015  0.015
   26  0.010  0.005  0.011  0.025
   27  0.005  0.002  0.010  0.018
   28  0.000  0.005  0.008  0.013
   29  0.020  0.003  0.009  0.031
   30  0.000  0.002  0.006  0.008
   31  0.020  0.003  0.009  0.032
   32  0.020  0.003  0.009  0.032
   33  0.000  0.002  0.006  0.008
   34  0.020  0.003  0.009  0.032
   35  0.000  0.005  0.012  0.017
   36  0.000  0.000  0.008  0.008
   37  0.000  0.000  0.000  0.000
tot    0.237  0.095  0.368  0.700
 
band    17 # energy   -5.18774380 # occ.  2.00000000
 
ion      s      p      d    tot
    1  0.000  0.002  0.009  0.011
    2  0.004  0.001  0.010  0.015
    3  0.004  0.001  0.010  0.015
    4  0.004  0.001  0.010  0.015
    5  0.000  0.001  0.007  0.008
    6  0.004  0.001  0.010  0.015
    7  0.004  0.001  0.010  0.015
    8  0.004  0.001  0.010  0.015
    9  0.029  0.000  0.005  0.034
   10  0.013  0.000  0.021  0.035
   11  0.007  0.000  0.019  0.026
   12  0.013  0.000  0.021  0.035
   13  0.007  0.000  0.019  0.026
   14  0.007  0.000  0.019  0.026
   15  0.000  0.001  0.022  0.024
   16  0.013  0.000  0.021  0.035
   17  0.000  0.001  0.022  0.024
   18  0.000  0.001  0.022  0.024
   19  0.007  0.001  0.019  0.027
   20  0.009  0.000  0.020  0.030
   21  0.009  0.000  0.020  0.030
   22  0.000  0.001  0.020  0.021
   23  0.009  0.000  0.020  0.030
   24  0.000  0.001  0.020  0.021
   25  0.007  0.001  0.019  0.027
   26  0.007  0.001  0.019  0.027
   27  0.000  0.001  0.020  0.021
   28  0.001  0.002  0.006  0.008
   29  0.003  0.001  0.010  0.014
   30  0.003  0.001  0.010  0.014
   31  0.003  0.001  0.010  0.014
   32  0.003  0.001  0.010  0.014
   33  0.003  0.001  0.010  0.014
   34  0.003  0.001  0.010  0.014
   35  0.027  0.000  0.005  0.032
   36  0.000  0.000  0.003  0.004
   37  0.000  0.000  0.000  0.001
tot    0.209  0.033  0.516  0.758
 
band    18 # energy   -5.18340110 # occ.  2.00000000
 
ion      s      p      d    tot
    1  0.038  0.002  0.001  0.041
    2  0.001  0.002  0.010  0.013
    3  0.001  0.002  0.010  0.013
    4  0.001  0.002  0.010  0.013
    5  0.001  0.000  0.003  0.004
    6  0.001  0.002  0.010  0.013
    7  0.001  0.002  0.010  0.013
    8  0.001  0.002  0.010  0.013
    9  0.012  0.003  0.004  0.019
   10  0.003  0.003  0.013  0.019
   11  0.005  0.000  0.017  0.022
   12  0.003  0.003  0.013  0.019
   13  0.005  0.000  0.017  0.022
   14  0.005  0.000  0.017  0.022
   15  0.011  0.003  0.016  0.029
   16  0.003  0.003  0.013  0.019
   17  0.011  0.003  0.016  0.029
   18  0.011  0.003  0.016  0.029
   19  0.001  0.002  0.023  0.026
   20  0.001  0.000  0.014  0.015
   21  0.001  0.000  0.014  0.015
   22  0.013  0.003  0.011  0.027
   23  0.001  0.000  0.014  0.015
   24  0.013  0.003  0.011  0.027
   25  0.001  0.002  0.023  0.026
   26  0.001  0.002  0.023  0.026
   27  0.013  0.003  0.011  0.027
   28  0.041  0.002  0.001  0.044
   29  0.001  0.003  0.013  0.016
   30  0.001  0.003  0.013  0.016
   31  0.001  0.003  0.013  0.016
   32  0.001  0.003  0.013  0.016
   33  0.001  0.003  0.013  0.016
   34  0.001  0.003  0.013  0.016
   35  0.014  0.003  0.003  0.020
   36  0.000  0.000  0.001  0.001
   37  0.000  0.000  0.000  0.000
tot    0.219  0.074  0.428  0.721
 
band    19 # energy   -5.14376640 # occ.  2.00000000
 
ion      s      p      d    tot
    1  0.000  0.002  0.010  0.011
    2  0.005  0.002  0.005  0.012
    3  0.021  0.004  0.005  0.030
    4  0.004  0.002  0.005  0.011
    5  0.000  0.006  0.009  0.015
    6  0.006  0.002  0.005  0.013
    7  0.021  0.004  0.005  0.030
    8  0.007  0.002  0.005  0.014
    9  0.000  0.001  0.012  0.013
   10  0.000  0.001  0.016  0.016
   11  0.016  0.004  0.009  0.029
   12  0.009  0.003  0.011  0.022
   13  0.014  0.004  0.011  0.029
   14  0.000  0.001  0.026  0.028
   15  0.001  0.001  0.010  0.012
   16  0.010  0.003  0.010  0.023
   17  0.001  0.001  0.011  0.013
   18  0.000  0.004  0.019  0.023
   19  0.001  0.001  0.011  0.013
   20  0.000  0.001  0.027  0.028
   21  0.014  0.004  0.012  0.030
   22  0.008  0.003  0.011  0.022
   23  0.016  0.004  0.010  0.030
   24  0.000  0.001  0.015  0.016
   25  0.000  0.004  0.023  0.026
   26  0.001  0.001  0.012  0.014
   27  0.008  0.003  0.011  0.022
   28  0.000  0.002  0.015  0.017
   29  0.006  0.002  0.007  0.014
   30  0.020  0.004  0.008  0.032
   31  0.004  0.002  0.006  0.013
   32  0.004  0.002  0.007  0.013
   33  0.020  0.004  0.008  0.032
   34  0.006  0.002  0.007  0.015
   35  0.000  0.001  0.012  0.013
   36  0.000  0.002  0.005  0.008
   37  0.000  0.000  0.000  0.000
tot    0.222  0.089  0.394  0.705
 
band    20 # energy   -5.14374589 # occ.  2.00000000
 
ion      s      p      d    tot
    1  0.000  0.002  0.010  0.011
    2  0.016  0.003  0.005  0.024
    3  0.000  0.002  0.005  0.007
    4  0.017  0.003  0.005  0.026
    5  0.000  0.006  0.009  0.015
    6  0.015  0.003  0.005  0.024
    7  0.000  0.002  0.005  0.007
    8  0.014  0.003  0.005  0.022
    9  0.000  0.001  0.012  0.013
   10  0.012  0.004  0.009  0.025
   11  0.004  0.002  0.022  0.028
   12  0.003  0.002  0.014  0.019
   13  0.006  0.002  0.020  0.028
   14  0.020  0.004  0.005  0.029
   15  0.000  0.003  0.017  0.020
   16  0.003  0.001  0.014  0.018
   17  0.000  0.003  0.016  0.019
   18  0.001  0.000  0.008  0.009
   19  0.000  0.003  0.019  0.023
   20  0.020  0.005  0.006  0.031
   21  0.006  0.002  0.021  0.029
   22  0.003  0.002  0.014  0.018
   23  0.004  0.002  0.022  0.029
   24  0.011  0.004  0.010  0.024
   25  0.002  0.000  0.008  0.010
   26  0.000  0.003  0.018  0.022
   27  0.002  0.001  0.014  0.018
   28  0.000  0.002  0.015  0.017
   29  0.014  0.003  0.008  0.025
   30  0.000  0.001  0.006  0.008
   31  0.016  0.003  0.008  0.027
   32  0.016  0.003  0.007  0.027
   33  0.000  0.001  0.006  0.008
   34  0.015  0.003  0.007  0.025
   35  0.000  0.001  0.012  0.013
   36  0.000  0.002  0.005  0.008
   37  0.000  0.000  0.000  0.000
tot    0.222  0.089  0.394  0.705
 
band    21 # energy   -4.94396816 # occ.  2.00000000
 
ion      s      p      d    tot
    1  0.020  0.002  0.000  0.022
    2  0.000  0.003  0.012  0.015
    3  0.000  0.003  0.012  0.015
    4  0.000  0.003  0.012  0.015
    5  0.044  0.003  0.000  0.047
    6  0.000  0.003  0.012  0.015
    7  0.000  0.003  0.012  0.015
    8  0.000  0.003  0.012  0.015
    9  0.002  0.001  0.001  0.003
   10  0.001  0.002  0.032  0.035
   11  0.003  0.004  0.022  0.030
   12  0.001  0.002  0.032  0.035
   13  0.003  0.004  0.022  0.030
   14  0.003  0.004  0.022  0.030
   15  0.002  0.001  0.009  0.012
   16  0.001  0.002  0.032  0.035
   17  0.002  0.001  0.009  0.012
   18  0.002  0.001  0.009  0.012
   19  0.011  0.001  0.028  0.040
   20  0.012  0.003  0.003  0.018
   21  0.012  0.003  0.003  0.018
   22  0.002  0.001  0.018  0.022
   23  0.012  0.003  0.003  0.018
   24  0.002  0.001  0.018  0.022
   25  0.011  0.001  0.028  0.040
   26  0.011  0.001  0.028  0.040
   27  0.002  0.001  0.018  0.022
   28  0.001  0.002  0.008  0.011
   29  0.001  0.001  0.009  0.012
   30  0.001  0.001  0.009  0.012
   31  0.001  0.001  0.009  0.012
   32  0.001  0.001  0.009  0.012
   33  0.001  0.001  0.009  0.012
   34  0.001  0.001  0.009  0.012
   35  0.001  0.001  0.002  0.004
   36  0.007  0.003  0.000  0.010