PROCAR new format
# of k-points:   10         # of bands:  252         # of ions:   39

 k-point     1 :    0.00000000 0.00000000 0.00000000     weight = 0.01562500

band     1 # energy  -24.68698690 # occ.  2.00000000
 
ion      s      p      d    tot
    1  0.000  0.000  0.000  0.000
    2  0.000  0.000  0.000  0.000
    3  0.000  0.000  0.000  0.000
    4  0.000  0.000  0.000  0.000
    5  0.000  0.000  0.000  0.000
    6  0.000  0.000  0.000  0.000
    7  0.000  0.000  0.000  0.000
    8  0.000  0.000  0.000  0.000
    9  0.000  0.000  0.000  0.000
   10  0.000  0.000  0.000  0.000
   11  0.000  0.000  0.000  0.000
   12  0.000  0.000  0.000  0.000
   13  0.000  0.000  0.000  0.000
   14  0.000  0.000  0.000  0.000
   15  0.000  0.000  0.000  0.000
   16  0.000  0.000  0.000  0.000
   17  0.000  0.000  0.000  0.000
   18  0.000  0.000  0.000  0.000
   19  0.000  0.000  0.000  0.000
   20  0.000  0.000  0.000  0.000
   21  0.000  0.000  0.000  0.000
   22  0.000  0.000  0.000  0.000
   23  0.000  0.000  0.000  0.000
   24  0.000  0.000  0.000  0.000
   25  0.000  0.000  0.000  0.000
   26  0.000  0.000  0.000  0.000
   27  0.000  0.000  0.000  0.000
   28  0.000  0.000  0.000  0.000
   29  0.000  0.000  0.000  0.000
   30  0.000  0.000  0.000  0.000
   31  0.000  0.000  0.000  0.000
   32  0.000  0.000  0.000  0.000
   33  0.000  0.000  0.000  0.000
   34  0.000  0.000  0.000  0.000
   35  0.000  0.000  0.000  0.000
   36  0.000  0.000  0.000  0.000
   37  0.085  0.063  0.000  0.147
   38  0.724  0.010  0.000  0.734
   39  0.056  0.012  0.000  0.068
tot    0.865  0.085  0.000  0.950
 
band     2 # energy  -15.26723831 # occ.  2.00000000
 
ion      s      p      d    tot
    1  0.000  0.000  0.000  0.000
    2  0.000  0.000  0.000  0.000
    3  0.000  0.000  0.000  0.000
    4  0.000  0.000  0.000  0.000
    5  0.000  0.000  0.000  0.000
    6  0.000  0.000  0.000  0.000
    7  0.000  0.000  0.000  0.000
    8  0.000  0.000  0.000  0.000
    9  0.000  0.000  0.000  0.000
   10  0.000  0.000  0.000  0.000
   11  0.000  0.000  0.000  0.000
   12  0.000  0.000  0.000  0.000
   13  0.000  0.000  0.000  0.000
   14  0.000  0.000  0.000  0.000
   15  0.000  0.000  0.000  0.000
   16  0.000  0.000  0.000  0.000
   17  0.000  0.000  0.000  0.000
   18  0.000  0.000  0.000  0.000
   19  0.000  0.000  0.000  0.000
   20  0.000  0.000  0.000  0.000
   21  0.000  0.000  0.000  0.000
   22  0.000  0.000  0.000  0.000
   23  0.000  0.000  0.000  0.000
   24  0.000  0.000  0.000  0.000
   25  0.000  0.000  0.000  0.000
   26  0.000  0.000  0.000  0.000
   27  0.000  0.000  0.000  0.000
   28  0.000  0.000  0.000  0.000
   29  0.000  0.000  0.000  0.000
   30  0.000  0.000  0.000  0.000
   31  0.000  0.000  0.000  0.000
   32  0.000  0.000  0.000  0.000
   33  0.000  0.000  0.000  0.000
   34  0.000  0.000  0.000  0.000
   35  0.000  0.000  0.000  0.000
   36  0.003  0.002  0.002  0.007
   37  0.157  0.050  0.000  0.207
   38  0.022  0.528  0.000  0.550
   39  0.202  0.033  0.000  0.235
tot    0.383  0.613  0.002  0.999
 
band     3 # energy   -8.58325068 # occ.  2.00000000
 
ion      s      p      d    tot
    1  0.004  0.000  0.000  0.005
    2  0.004  0.000  0.000  0.004
    3  0.004  0.000  0.000  0.004
    4  0.004  0.000  0.000  0.004
    5  0.004  0.000  0.000  0.004
    6  0.004  0.000  0.000  0.004
    7  0.004  0.000  0.000  0.004
    8  0.004  0.000  0.000  0.004
    9  0.004  0.000  0.000  0.004
   10  0.018  0.000  0.000  0.019
   11  0.019  0.000  0.000  0.019
   12  0.018  0.000  0.000  0.019
   13  0.019  0.000  0.000  0.019
   14  0.019  0.000  0.000  0.019
   15  0.018  0.000  0.000  0.018
   16  0.018  0.000  0.000  0.019
   17  0.018  0.000  0.000  0.018
   18  0.018  0.000  0.000  0.018
   19  0.020  0.000  0.000  0.020
   20  0.026  0.000  0.000  0.027
   21  0.026  0.000  0.000  0.027
   22  0.020  0.000  0.000  0.020
   23  0.026  0.000  0.000  0.027
   24  0.020  0.000  0.000  0.020
   25  0.020  0.000  0.000  0.020
   26  0.020  0.000  0.000  0.020
   27  0.020  0.000  0.000  0.020
   28  0.005  0.000  0.000  0.005
   29  0.008  0.000  0.000  0.009
   30  0.008  0.000  0.000  0.009
   31  0.008  0.000  0.000  0.009
   32  0.008  0.000  0.000  0.009
   33  0.008  0.000  0.000  0.009
   34  0.008  0.000  0.000  0.009
   35  0.005  0.000  0.000  0.005
   36  0.044  0.008  0.028  0.080
   37  0.033  0.034  0.000  0.067
   38  0.002  0.010  0.000  0.013
   39  0.003  0.000  0.000  0.003
tot    0.540  0.061  0.032  0.633
 
band     4 # energy   -8.11391420 # occ.  2.00000000
 
ion      s      p      d    tot
    1  0.004  0.000  0.000  0.004
    2  0.004  0.000  0.000  0.005
    3  0.004  0.000  0.000  0.005
    4  0.004  0.000  0.000  0.005
    5  0.004  0.000  0.000  0.004
    6  0.004  0.000  0.000  0.005
    7  0.004  0.000  0.000  0.005
    8  0.004  0.000  0.000  0.005
    9  0.004  0.000  0.000  0.005
   10  0.010  0.000  0.000  0.011
   11  0.011  0.000  0.000  0.011
   12  0.010  0.000  0.000  0.011
   13  0.011  0.000  0.000  0.011
   14  0.011  0.000  0.000  0.011
   15  0.012  0.000  0.000  0.012
   16  0.010  0.000  0.000  0.011
   17  0.012  0.000  0.000  0.012
   18  0.012  0.000  0.000  0.012
   19  0.003  0.000  0.000  0.003
   20  0.000  0.001  0.002  0.004
   21  0.000  0.001  0.002  0.004
   22  0.004  0.000  0.000  0.004
   23  0.000  0.001  0.002  0.004
   24  0.004  0.000  0.000  0.004
   25  0.003  0.000  0.000  0.003
   26  0.003  0.000  0.000  0.003
   27  0.004  0.000  0.000  0.004
   28  0.000  0.000  0.000  0.000
   29  0.002  0.001  0.002  0.005
   30  0.002  0.001  0.002  0.005
   31  0.002  0.001  0.002  0.005
   32  0.002  0.001  0.002  0.005
   33  0.002  0.001  0.002  0.005
   34  0.002  0.001  0.002  0.005
   35  0.000  0.000  0.000  0.000
   36  0.097  0.054  0.115  0.266
   37  0.136  0.130  0.000  0.266
   38  0.009  0.036  0.000  0.045
   39  0.010  0.001  0.000  0.011
tot    0.420  0.233  0.140  0.793
 
band     5 # energy   -7.40518252 # occ.  2.00000000
 
ion      s      p      d    tot
    1  0.000  0.000  0.000  0.000
    2  0.000  0.000  0.000  0.000
    3  0.000  0.000  0.000  0.000
    4  0.000  0.000  0.000  0.000
    5  0.000  0.000  0.000  0.000
    6  0.000  0.000  0.000  0.000
    7  0.000  0.000  0.000  0.000
    8  0.000  0.000  0.000  0.000
    9  0.000  0.000  0.000  0.000
   10  0.000  0.000  0.000  0.000
   11  0.000  0.000  0.000  0.000
   12  0.000  0.000  0.000  0.000
   13  0.000  0.000  0.000  0.000
   14  0.000  0.000  0.000  0.000
   15  0.000  0.000  0.000  0.000
   16  0.000  0.000  0.000  0.000
   17  0.000  0.000  0.000  0.000
   18  0.000  0.000  0.000  0.000
   19  0.000  0.000  0.000  0.000
   20  0.000  0.000  0.000  0.000
   21  0.000  0.000  0.000  0.000
   22  0.000  0.000  0.000  0.000
   23  0.000  0.000  0.000  0.000
   24  0.000  0.000  0.000  0.000
   25  0.000  0.000  0.000  0.000
   26  0.000  0.000  0.000  0.000
   27  0.000  0.000  0.000  0.000
   28  0.000  0.000  0.000  0.000
   29  0.001  0.000  0.001  0.002
   30  0.000  0.000  0.000  0.000
   31  0.001  0.000  0.001  0.002
   32  0.001  0.000  0.001  0.002
   33  0.000  0.000  0.000  0.000
   34  0.001  0.000  0.001  0.002
   35  0.000  0.000  0.000  0.000
   36  0.000  0.003  0.013  0.016
   37  0.000  0.119  0.000  0.119
   38  0.000  0.530  0.000  0.530
   39  0.000  0.007  0.000  0.007
tot    0.005  0.661  0.018  0.683
 
band     6 # energy   -7.40497472 # occ.  2.00000000
 
ion      s      p      d    tot
    1  0.000  0.000  0.000  0.000
    2  0.000  0.000  0.000  0.000
    3  0.000  0.000  0.000  0.000
    4  0.000  0.000  0.000  0.000
    5  0.000  0.000  0.000  0.000
    6  0.000  0.000  0.000  0.000
    7  0.000  0.000  0.000  0.000
    8  0.000  0.000  0.000  0.000
    9  0.000  0.000  0.000  0.000
   10  0.000  0.000  0.000  0.000
   11  0.000  0.000  0.000  0.000
   12  0.000  0.000  0.000  0.000
   13  0.000  0.000  0.000  0.000
   14  0.000  0.000  0.000  0.000
   15  0.000  0.000  0.000  0.000
   16  0.000  0.000  0.000  0.000
   17  0.000  0.000  0.000  0.000
   18  0.000  0.000  0.000  0.000
   19  0.000  0.000  0.000  0.000
   20  0.000  0.000  0.000  0.000
   21  0.000  0.000  0.000  0.000
   22  0.000  0.000  0.000  0.000
   23  0.000  0.000  0.000  0.000
   24  0.000  0.000  0.000  0.000
   25  0.000  0.000  0.000  0.000
   26  0.000  0.000  0.000  0.000
   27  0.000  0.000  0.000  0.000
   28  0.000  0.000  0.000  0.000
   29  0.000  0.000  0.001  0.001
   30  0.001  0.000  0.001  0.003
   31  0.000  0.000  0.001  0.001
   32  0.000  0.000  0.001  0.001
   33  0.001  0.000  0.001  0.003
   34  0.000  0.000  0.001  0.001
   35  0.000  0.000  0.000  0.000
   36  0.000  0.003  0.013  0.016
   37  0.000  0.119  0.000  0.119
   38  0.000  0.530  0.000  0.530
   39  0.000  0.007  0.000  0.007
tot    0.005  0.661  0.018  0.683
 
band     7 # energy   -7.20399380 # occ.  2.00000000
 
ion      s      p      d    tot
    1  0.017  0.000  0.001  0.019
    2  0.016  0.000  0.001  0.018
    3  0.016  0.000  0.001  0.018
    4  0.016  0.000  0.001  0.018
    5  0.016  0.000  0.001  0.017
    6  0.016  0.000  0.001  0.018
    7  0.016  0.000  0.001  0.018
    8  0.016  0.000  0.001  0.018
    9  0.015  0.000  0.001  0.017
   10  0.008  0.002  0.002  0.012
   11  0.007  0.002  0.002  0.011
   12  0.008  0.002  0.002  0.012
   13  0.007  0.002  0.002  0.011
   14  0.007  0.002  0.002  0.011
   15  0.006  0.002  0.003  0.011
   16  0.008  0.002  0.002  0.012
   17  0.006  0.002  0.003  0.011
   18  0.006  0.002  0.003  0.011
   19  0.018  0.001  0.005  0.024
   20  0.013  0.001  0.007  0.020
   21  0.013  0.001  0.007  0.020
   22  0.020  0.001  0.004  0.026
   23  0.013  0.001  0.007  0.020
   24  0.020  0.001  0.004  0.026
   25  0.018  0.001  0.005  0.024
   26  0.018  0.001  0.005  0.024
   27  0.020  0.001  0.004  0.026
   28  0.013  0.001  0.000  0.013
   29  0.008  0.001  0.001  0.010
   30  0.008  0.001  0.001  0.010
   31  0.008  0.001  0.001  0.010
   32  0.008  0.001  0.001  0.010
   33  0.008  0.001  0.001  0.010
   34  0.008  0.001  0.001  0.010
   35  0.013  0.001  0.000  0.013
   36  0.002  0.012  0.021  0.035
   37  0.019  0.016  0.000  0.035
   38  0.001  0.004  0.000  0.005
   39  0.001  0.000  0.000  0.001
tot    0.462  0.062  0.109  0.633
 
band     8 # energy   -6.36069659 # occ.  2.00000000
 
ion      s      p      d    tot
    1  0.006  0.000  0.019  0.026
    2  0.013  0.000  0.014  0.028
    3  0.013  0.000  0.014  0.028
    4  0.013  0.000  0.014  0.028
    5  0.006  0.000  0.013  0.019
    6  0.013  0.000  0.014  0.028
    7  0.013  0.000  0.014  0.028
    8  0.013  0.000  0.014  0.028
    9  0.036  0.000  0.008  0.044
   10  0.011  0.001  0.021  0.033
   11  0.019  0.002  0.013  0.034
   12  0.011  0.001  0.021  0.033
   13  0.019  0.002  0.013  0.034
   14  0.019  0.002  0.013  0.034
   15  0.001  0.001  0.024  0.026
   16  0.011  0.001  0.021  0.033
   17  0.001  0.001  0.024  0.026
   18  0.001  0.001  0.024  0.026
   19  0.001  0.001  0.010  0.011
   20  0.011  0.001  0.007  0.020
   21  0.011  0.001  0.007  0.020
   22  0.006  0.001  0.002  0.010
   23  0.011  0.001  0.007  0.020
   24  0.006  0.001  0.002  0.009
   25  0.001  0.001  0.010  0.011
   26  0.001  0.001  0.010  0.011
   27  0.006  0.001  0.002  0.010
   28  0.005  0.000  0.000  0.005
   29  0.002  0.000  0.003  0.005
   30  0.002  0.000  0.003  0.005
   31  0.002  0.000  0.003  0.005
   32  0.002  0.000  0.003  0.005
   33  0.002  0.000  0.003  0.005
   34  0.002  0.000  0.003  0.005
   35  0.007  0.000  0.000  0.008
   36  0.001  0.001  0.000  0.002
   37  0.000  0.000  0.000  0.000
   38  0.000  0.000  0.000  0.000
   39  0.000  0.000  0.000  0.000
tot    0.302  0.025  0.376  0.704
 
band     9 # energy   -6.33550673 # occ.  2.00000000
 
ion      s      p      d    tot
    1  0.000  0.000  0.006  0.006
    2  0.006  0.001  0.004  0.011
    3  0.005  0.001  0.003  0.008
    4  0.006  0.001  0.004  0.011
    5  0.000  0.001  0.009  0.010
    6  0.000  0.000  0.003  0.003
    7  0.005  0.001  0.003  0.008
    8  0.000  0.000  0.003  0.003
    9  0.000  0.001  0.002  0.002
   10  0.000  0.001  0.028  0.029
   11  0.045  0.002  0.014  0.061
   12  0.013  0.001  0.012  0.026
   13  0.045  0.002  0.014  0.060
   14  0.000  0.002  0.036  0.037
   15  0.010  0.001  0.012  0.023
   16  0.013  0.001  0.012  0.026
   17  0.010  0.001  0.012  0.023
   18  0.000  0.004  0.002  0.007
   19  0.001  0.001  0.011  0.012
   20  0.000  0.003  0.023  0.027
   21  0.038  0.002  0.014  0.054
   22  0.026  0.002  0.012  0.040
   23  0.038  0.002  0.014  0.054
   24  0.000  0.000  0.038  0.038
   25  0.000  0.003  0.005  0.008
   26  0.001  0.001  0.010  0.012
   27  0.026  0.002  0.012  0.040
   28  0.000  0.000  0.001  0.001
   29  0.001  0.000  0.002  0.003
   30  0.007  0.001  0.003  0.011
   31  0.000  0.000  0.002  0.003
   32  0.003  0.001  0.004  0.008
   33  0.007  0.001  0.003  0.011
   34  0.004  0.001  0.004  0.008
   35  0.000  0.000  0.006  0.007
   36  0.000  0.001  0.002  0.003
   37  0.000  0.000  0.000  0.000
   38  0.000  0.001  0.000  0.001
   39  0.000  0.000  0.000  0.000
tot    0.307  0.043  0.344  0.694
 
band    10 # energy   -6.33545053 # occ.  2.00000000
 
ion      s      p      d    tot
    1  0.000  0.000  0.006  0.006
    2  0.001  0.000  0.003  0.004
    3  0.003  0.001  0.004  0.007
    4  0.001  0.000  0.003  0.004
    5  0.000  0.001  0.009  0.010
    6  0.007  0.001  0.003  0.012
    7  0.003  0.001  0.004  0.007
    8  0.007  0.001  0.003  0.012
    9  0.000  0.001  0.002  0.002
   10  0.017  0.002  0.006  0.024
   11  0.015  0.002  0.028  0.045
   12  0.004  0.001  0.023  0.028
   13  0.015  0.002  0.028  0.045
   14  0.059  0.001  0.007  0.068
   15  0.003  0.003  0.006  0.012
   16  0.004  0.001  0.023  0.028
   17  0.003  0.003  0.006  0.012
   18  0.013  0.000  0.015  0.029
   19  0.000  0.003  0.006  0.009
   20  0.050  0.001  0.012  0.063
   21  0.013  0.003  0.020  0.036
   22  0.009  0.000  0.029  0.039
   23  0.013  0.003  0.020  0.036
   24  0.035  0.002  0.003  0.040
   25  0.001  0.000  0.013  0.014
   26  0.000  0.003  0.006  0.009
   27  0.009  0.000  0.029  0.039
   28  0.000  0.000  0.001  0.001
   29  0.007  0.001  0.003  0.011
   30  0.000  0.000  0.003  0.004
   31  0.007  0.001  0.003  0.011
   32  0.004  0.001  0.002  0.007
   33  0.000  0.000  0.003  0.004
   34  0.004  0.001  0.002  0.006
   35  0.000  0.000  0.006  0.007
   36  0.000  0.001  0.002  0.003
   37  0.000  0.000  0.000  0.000
   38  0.000  0.001  0.000  0.001
   39  0.000  0.000  0.000  0.000
tot    0.307  0.043  0.344  0.694
 
band    11 # energy   -6.33363892 # occ.  2.00000000
 
ion      s      p      d    tot
    1  0.021  0.000  0.003  0.024
    2  0.006  0.000  0.010  0.017
    3  0.006  0.000  0.010  0.017
    4  0.006  0.000  0.010  0.017
    5  0.011  0.000  0.008  0.019
    6  0.006  0.000  0.010  0.017
    7  0.006  0.000  0.010  0.017
    8  0.006  0.000  0.010  0.017
    9  0.000  0.001  0.012  0.013
   10  0.000  0.000  0.034  0.034
   11  0.000  0.001  0.021  0.023
   12  0.000  0.000  0.033  0.034
   13  0.000  0.001  0.021  0.023
   14  0.000  0.001  0.021  0.022
   15  0.035  0.002  0.009  0.046
   16  0.000  0.000  0.033  0.034
   17  0.035  0.002  0.009  0.046
   18  0.035  0.002  0.009  0.046
   19  0.002  0.001  0.018  0.020
   20  0.020  0.000  0.013  0.033
   21  0.019  0.000  0.013  0.033
   22  0.006  0.002  0.012  0.020
   23  0.019  0.000  0.013  0.033
   24  0.006  0.002  0.012  0.020
   25  0.002  0.001  0.018  0.020
   26  0.002  0.001  0.018  0.020
   27  0.006  0.002  0.012  0.020
   28  0.001  0.000  0.000  0.001
   29  0.000  0.000  0.004  0.004
   30  0.000  0.000  0.004  0.004
   31  0.000  0.000  0.004  0.004
   32  0.000  0.000  0.004  0.004
   33  0.000  0.000  0.004  0.004
   34  0.000  0.000  0.004  0.004
   35  0.006  0.000  0.000  0.006
   36  0.000  0.004  0.000  0.004
   37  0.001  0.001  0.000  0.002
   38  0.000  0.000  0.000  0.000
   39  0.000  0.000  0.000  0.000
tot    0.268  0.029  0.427  0.723
 
band    12 # energy   -6.32335589 # occ.  2.00000000
 
ion      s      p      d    tot
    1  0.006  0.001  0.001  0.009
    2  0.000  0.001  0.006  0.007
    3  0.000  0.001  0.006  0.007
    4  0.000  0.001  0.006  0.007
    5  0.017  0.002  0.001  0.019
    6  0.000  0.001  0.006  0.007
    7  0.000  0.001  0.006  0.007
    8  0.000  0.001  0.006  0.007
    9  0.000  0.000  0.002  0.002
   10  0.027  0.003  0.002  0.031
   11  0.019  0.001  0.023  0.042
   12  0.026  0.003  0.002  0.031
   13  0.019  0.001  0.023  0.042
   14  0.019  0.001  0.023  0.043
   15  0.000  0.001  0.023  0.025
   16  0.026  0.003  0.002  0.031
   17  0.000  0.001  0.023  0.025
   18  0.000  0.001  0.023  0.024
   19  0.026  0.002  0.006  0.034
   20  0.005  0.002  0.015  0.023
   21  0.005  0.002  0.015  0.023
   22  0.009  0.000  0.026  0.036
   23  0.005  0.002  0.015  0.023
   24  0.010  0.000  0.026  0.036
   25  0.026  0.002  0.006  0.034
   26  0.026  0.002  0.006  0.034
   27  0.009  0.000  0.026  0.036
   28  0.011  0.001  0.001  0.013
   29  0.000  0.000  0.004  0.005
   30  0.000  0.000  0.004  0.005
   31  0.000  0.000  0.004  0.005
   32  0.000  0.000  0.004  0.005
   33  0.000  0.000  0.004  0.005
   34  0.000  0.000  0.004  0.005
   35  0.005  0.001  0.002  0.007
   36  0.000  0.000  0.000  0.000
   37  0.000  0.000  0.000  0.000
   38  0.000  0.000  0.000  0.000
   39  0.000  0.000  0.000  0.000
tot    0.301  0.041  0.353  0.695
 
band    13 # energy   -6.30433921 # occ.  2.00000000
 
ion      s      p      d    tot
    1  0.000  0.001  0.006  0.008
    2  0.008  0.001  0.004  0.013
    3  0.007  0.001  0.003  0.011
    4  0.006  0.001  0.004  0.011
    5  0.000  0.000  0.002  0.002
    6  0.001  0.000  0.004  0.005
    7  0.004  0.001  0.003  0.008
    8  0.000  0.000  0.003  0.004
    9  0.000  0.001  0.010  0.011
   10  0.044  0.001  0.014  0.059
   11  0.000  0.003  0.011  0.013
   12  0.019  0.003  0.014  0.036
   13  0.000  0.002  0.011  0.013
   14  0.000  0.001  0.012  0.013
   15  0.006  0.000  0.041  0.047
   16  0.005  0.004  0.015  0.023
   17  0.021  0.001  0.028  0.050
   18  0.048  0.002  0.005  0.055
   19  0.006  0.001  0.032  0.039
   20  0.008  0.001  0.008  0.018
   21  0.004  0.001  0.016  0.021
   22  0.008  0.003  0.010  0.021
   23  0.001  0.001  0.020  0.022
   24  0.019  0.000  0.015  0.034
   25  0.049  0.002  0.006  0.057
   26  0.021  0.001  0.022  0.045
   27  0.002  0.004  0.008  0.014
   28  0.000  0.001  0.007  0.007
   29  0.001  0.000  0.002  0.003
   30  0.003  0.001  0.002  0.006
   31  0.000  0.000  0.002  0.002
   32  0.002  0.001  0.003  0.005
   33  0.004  0.001  0.002  0.007
   34  0.003  0.001  0.003  0.007
   35  0.000  0.000  0.002  0.002
   36  0.000  0.000  0.001  0.001
   37  0.000  0.000  0.000  0.000
   38  0.000  0.000  0.000  0.000
   39  0.000  0.000  0.000  0.000
tot    0.301  0.042  0.350  0.694
 
band    14 # energy   -6.30427425 # occ.  2.00000000
 
ion      s      p      d    tot
    1  0.000  0.001  0.006  0.008
    2  0.000  0.000  0.003  0.004
    3  0.002  0.001  0.004  0.006
    4  0.003  0.001  0.003  0.006
    5  0.000  0.000  0.002  0.002
    6  0.008  0.001  0.004  0.013
    7  0.004  0.001  0.004  0.009
    8  0.008  0.001  0.004  0.014
    9  0.000  0.001  0.010  0.011
   10  0.001  0.004  0.015  0.020
   11  0.000  0.001  0.012  0.013
   12  0.027  0.002  0.014  0.043
   13  0.000  0.002  0.012  0.013
   14  0.000  0.003  0.010  0.013
   15  0.044  0.002  0.008  0.054
   16  0.041  0.001  0.014  0.055
   17  0.029  0.001  0.021  0.051
   18  0.002  0.000  0.045  0.046
   19  0.045  0.002  0.008  0.055
   20  0.000  0.001  0.021  0.022
   21  0.005  0.001  0.014  0.020
   22  0.012  0.002  0.011  0.025
   23  0.008  0.001  0.009  0.018
   24  0.001  0.004  0.007  0.012
   25  0.002  0.001  0.034  0.037
   26  0.030  0.002  0.017  0.049
   27  0.018  0.001  0.014  0.032
   28  0.000  0.001  0.007  0.007
   29  0.004  0.001  0.003  0.008
   30  0.001  0.000  0.003  0.004
   31  0.004  0.001  0.002  0.008
   32  0.003  0.001  0.002  0.005
   33  0.000  0.000  0.002  0.003
   34  0.001  0.000  0.002  0.003
   35  0.000  0.000  0.002  0.002
   36  0.000  0.000  0.001  0.001
   37  0.000  0.000  0.000  0.000
   38  0.000  0.000  0.000  0.000
   39  0.000  0.000  0.000  0.000
tot    0.301  0.042  0.350  0.694
 
band    15 # energy   -6.12629489 # occ.  2.00000000
 
ion      s      p      d    tot
    1  0.001  0.000  0.000  0.001
    2  0.001  0.000  0.001  0.002
    3  0.001  0.000  0.001  0.002
    4  0.001  0.000  0.001  0.002
    5  0.004  0.000  0.000  0.004
    6  0.001  0.000  0.001  0.002
    7  0.001  0.000  0.001  0.002
    8  0.001  0.000  0.001  0.002
    9  0.001  0.000  0.001  0.003
   10  0.000  0.000  0.006  0.006
   11  0.002  0.001  0.001  0.004
   12  0.000  0.000  0.006  0.006
   13  0.002  0.001  0.001  0.004
   14  0.002  0.001  0.001  0.004
   15  0.006  0.001  0.005  0.011
   16  0.000  0.000  0.006  0.006
   17  0.006  0.001  0.005  0.011
   18  0.006  0.001  0.005  0.011
   19  0.002  0.001  0.015  0.018
   20  0.001  0.000  0.025  0.027
   21  0.001  0.000  0.025  0.027
   22  0.008  0.002  0.023  0.033
   23  0.001  0.000  0.025  0.027
   24  0.008  0.002  0.023  0.033
   25  0.002  0.001  0.015  0.018
   26  0.002  0.001  0.015  0.018
   27  0.008  0.002  0.023  0.033
   28  0.033  0.000  0.020  0.054
   29  0.023  0.000  0.021  0.044
   30  0.023  0.000  0.021  0.044
   31  0.023  0.000  0.021  0.044
   32  0.023  0.000  0.021  0.044
   33  0.023  0.000  0.021  0.044
   34  0.023  0.000  0.021  0.044
   35  0.030  0.000  0.021  0.051
   36  0.000  0.001  0.025  0.026
   37  0.006  0.005  0.000  0.011
   38  0.000  0.001  0.000  0.001
   39  0.000  0.000  0.000  0.000
tot    0.273  0.023  0.427  0.723
 
band    16 # energy   -5.85926532 # occ.  2.00000000
 
ion      s      p      d    tot
    1  0.016  0.002  0.002  0.020
    2  0.000  0.001  0.009  0.009
    3  0.000  0.001  0.009  0.009
    4  0.000  0.001  0.009  0.009
    5  0.000  0.000  0.002  0.002
    6  0.000  0.001  0.009  0.009
    7  0.000  0.001  0.009  0.009
    8  0.000  0.001  0.009  0.009
    9  0.017  0.001  0.000  0.019
   10  0.011  0.002  0.013  0.025
   11  0.003  0.000  0.042  0.045
   12  0.011  0.002  0.013  0.025
   13  0.003  0.000  0.042  0.045
   14  0.003  0.000  0.042  0.045
   15  0.003  0.001  0.025  0.029
   16  0.011  0.002  0.013  0.025
   17  0.003  0.001  0.025  0.029
   18  0.003  0.001  0.025  0.029
   19  0.005  0.001  0.013  0.019
   20  0.001  0.000  0.047  0.048
   21  0.001  0.000  0.047  0.048
   22  0.011  0.001  0.019  0.030
   23  0.001  0.000  0.047  0.048
   24  0.010  0.001  0.019  0.030
   25  0.005  0.001  0.013  0.019
   26  0.005  0.001  0.013  0.019
   27  0.011  0.001  0.019  0.030
   28  0.009  0.001  0.001  0.012
   29  0.000  0.001  0.006  0.006
   30  0.000  0.001  0.006  0.006
   31  0.000  0.001  0.006  0.006
   32  0.000  0.001  0.006  0.006
   33  0.000  0.001  0.006  0.006
   34  0.000  0.001  0.006  0.006
   35  0.010  0.001  0.002  0.013
   36  0.000  0.000  0.001  0.002
   37  0.000  0.000  0.000  0.000
   38  0.000  0.000  0.000  0.000
   39  0.000  0.000  0.000  0.000
tot    0.154  0.029  0.569  0.752
 
band    17 # energy   -5.84684474 # occ.  2.00000000
 
ion      s      p      d    tot
    1  0.000  0.001  0.004  0.005
    2  0.005  0.001  0.004  0.010
    3  0.006  0.001  0.004  0.011
    4  0.008  0.001  0.005  0.014
    5  0.000  0.001  0.011  0.012
    6  0.009  0.001  0.005  0.015
    7  0.001  0.001  0.005  0.006
    8  0.000  0.000  0.005  0.006
    9  0.000  0.000  0.008  0.008
   10  0.007  0.002  0.022  0.030
   11  0.000  0.000  0.048  0.049
   12  0.008  0.002  0.016  0.026
   13  0.017  0.001  0.019  0.036
   14  0.014  0.001  0.023  0.038
   15  0.000  0.001  0.010  0.012
   16  0.000  0.001  0.053  0.053
   17  0.001  0.000  0.021  0.023
   18  0.001  0.001  0.019  0.021
   19  0.000  0.001  0.016  0.017
   20  0.016  0.001  0.025  0.042
   21  0.018  0.001  0.018  0.037
   22  0.002  0.001  0.018  0.021
   23  0.000  0.000  0.068  0.068
   24  0.002  0.001  0.020  0.023
   25  0.007  0.000  0.019  0.026
   26  0.008  0.000  0.019  0.028
   27  0.000  0.001  0.031  0.032
   28  0.000  0.001  0.009  0.009
   29  0.003  0.001  0.004  0.008
   30  0.004  0.001  0.004  0.010
   31  0.010  0.001  0.004  0.015
   32  0.010  0.001  0.004  0.015
   33  0.002  0.001  0.004  0.006
   34  0.001  0.000  0.004  0.006
   35  0.000  0.000  0.003  0.004
   36  0.000  0.002  0.002  0.004
   37  0.000  0.000  0.000  0.000
   38  0.000  0.001  0.000  0.001
   39  0.000  0.000  0.000  0.000
tot    0.161  0.032  0.553  0.747
 
band    18 # energy   -5.84683691 # occ.  2.00000000
 
ion      s      p      d    tot
    1  0.000  0.001  0.004  0.005
    2  0.005  0.001  0.005  0.011
    3  0.003  0.001  0.005  0.009
    4  0.001  0.000  0.004  0.006
    5  0.000  0.001  0.011  0.012
    6  0.001  0.000  0.004  0.006
    7  0.009  0.001  0.004  0.014
    8  0.009  0.001  0.004  0.015
    9  0.000  0.000  0.008  0.008
   10  0.003  0.001  0.039  0.043
   11  0.021  0.001  0.012  0.034
   12  0.002  0.001  0.044  0.047
   13  0.004  0.000  0.041  0.046
   14  0.006  0.000  0.037  0.044
   15  0.002  0.000  0.023  0.025
   16  0.010  0.002  0.008  0.020
   17  0.000  0.001  0.013  0.014
   18  0.001  0.001  0.014  0.016
   19  0.010  0.000  0.020  0.031
   20  0.007  0.001  0.049  0.056
   21  0.004  0.000  0.056  0.061
   22  0.000  0.001  0.028  0.030
   23  0.022  0.002  0.006  0.030
   24  0.001  0.001  0.026  0.028
   25  0.003  0.001  0.017  0.021
   26  0.002  0.001  0.016  0.019
   27  0.002  0.001  0.015  0.018
   28  0.000  0.001  0.009  0.009
   29  0.007  0.001  0.004  0.012
   30  0.006  0.001  0.004  0.010
   31  0.000  0.001  0.004  0.005
   32  0.000  0.001  0.004  0.005
   33  0.008  0.001  0.004  0.014
   34  0.009  0.001  0.004  0.014
   35  0.000  0.000  0.003  0.004
   36  0.000  0.002  0.002  0.004
   37  0.000  0.000  0.000  0.000
   38  0.000  0.001  0.000  0.001
   39  0.000  0.000  0.000  0.000
tot    0.161  0.032  0.553  0.747
 
band    19 # energy   -5.81235637 # occ.  2.00000000
 
ion      s      p      d    tot
    1  0.000  0.001  0.015  0.015
    2  0.010  0.001  0.005  0.016
    3  0.003  0.000  0.005  0.008
    4  0.010  0.001  0.005  0.016
    5  0.000  0.000  0.005  0.005
    6  0.004  0.001  0.006  0.010
    7  0.002  0.000  0.005  0.007
    8  0.003  0.001  0.006  0.009
    9  0.000  0.001  0.008  0.009
   10  0.000  0.001  0.026  0.027
   11  0.001  0.001  0.019  0.022
   12  0.006  0.000  0.023  0.029
   13  0.001  0.001  0.020  0.022
   14  0.000  0.001  0.023  0.024
   15  0.013  0.002  0.018  0.033
   16  0.007  0.000  0.022  0.029
   17  0.012  0.002  0.024  0.037
   18  0.000  0.000  0.065  0.065
   19  0.012  0.001  0.016  0.030
   20  0.000  0.002  0.016  0.018
   21  0.001  0.001  0.021  0.022
   22  0.017  0.001  0.022  0.040
   23  0.001  0.000  0.021  0.022
   24  0.000  0.000  0.037  0.038
   25  0.000  0.000  0.063  0.063
   26  0.011  0.001  0.023  0.034
   27  0.019  0.001  0.020  0.040
   28  0.000  0.001  0.004  0.005
   29  0.006  0.001  0.004  0.011
   30  0.001  0.001  0.004  0.005
   31  0.006  0.001  0.004  0.011
   32  0.004  0.001  0.002  0.007
   33  0.000  0.000  0.004  0.005
   34  0.003  0.001  0.002  0.006
   35  0.000  0.001  0.008  0.009
   36  0.000  0.000  0.001  0.001
   37  0.000  0.000  0.000  0.000
   38  0.000  0.000  0.000  0.000
   39  0.000  0.000  0.000  0.000
tot    0.151  0.029  0.570  0.751
 
band    20 # energy   -5.81232725 # occ.  2.00000000
 
ion      s      p      d    tot
    1  0.000  0.001  0.015  0.015
    2  0.000  0.000  0.006  0.006
    3  0.008  0.001  0.005  0.014
    4  0.000  0.000  0.005  0.006
    5  0.000  0.000  0.005  0.005
    6  0.007  0.001  0.005  0.012
    7  0.009  0.001  0.005  0.015
    8  0.008  0.001  0.005  0.013
    9  0.000  0.001  0.008  0.009
   10  0.009  0.000  0.021  0.030
   11  0.000  0.001  0.022  0.023
   12  0.003  0.001  0.024  0.028
   13  0.000  0.001  0.022  0.023
   14  0.002  0.001  0.018  0.021
   15  0.003  0.000  0.053  0.057
   16  0.002  0.001  0.025  0.027
   17  0.005  0.001  0.047  0.053
   18  0.017  0.002  0.006  0.025
   19  0.003  0.001  0.051  0.055
   20  0.001  0.000  0.022  0.023
   21  0.000  0.001  0.018  0.020
   22  0.007  0.001  0.031  0.039
   23  0.000  0.001  0.017  0.019
   24  0.024  0.001  0.015  0.040
   25  0.016  0.001  0.005  0.022
   26  0.005  0.001  0.045  0.051
   27  0.005  0.000  0.033  0.038
   28  0.000  0.001  0.004  0.005
   29  0.001  0.000  0.003  0.004
   30  0.006  0.001  0.003  0.009
   31  0.000  0.000  0.003  0.004
   32  0.003  0.001  0.005  0.008
   33  0.006  0.001  0.003  0.010
   34  0.003  0.001  0.005  0.009
   35  0.000  0.001  0.008  0.009
   36  0.000  0.000  0.001  0.001
   37  0.000  0.000  0.000  0.000
   38  0.000  0.000  0.000  0.000
   39  0.000  0.000  0.000  0.000