PROCAR new format
# of k-points:   10         # of bands:  252         # of ions:   39

 k-point     1 :    0.00000000 0.00000000 0.00000000     weight = 0.01562500

band     1 # energy  -54.88804451 # occ.  2.00000000
 
ion      s      p      d    tot
    1  0.000  0.000  0.000  0.000
    2  0.000  0.000  0.000  0.000
    3  0.000  0.000  0.000  0.000
    4  0.000  0.000  0.000  0.000
    5  0.000  0.000  0.000  0.000
    6  0.000  0.000  0.000  0.000
    7  0.000  0.000  0.000  0.000
    8  0.000  0.000  0.000  0.000
    9  0.000  0.000  0.000  0.000
   10  0.000  0.000  0.000  0.000
   11  0.000  0.000  0.000  0.000
   12  0.000  0.000  0.000  0.000
   13  0.000  0.000  0.000  0.000
   14  0.000  0.000  0.000  0.000
   15  0.000  0.000  0.000  0.000
   16  0.000  0.000  0.000  0.000
   17  0.000  0.000  0.000  0.000
   18  0.000  0.000  0.000  0.000
   19  0.000  0.000  0.000  0.000
   20  0.000  0.000  0.000  0.000
   21  0.000  0.000  0.000  0.000
   22  0.000  0.000  0.000  0.000
   23  0.000  0.000  0.000  0.000
   24  0.000  0.000  0.000  0.000
   25  0.000  0.000  0.000  0.000
   26  0.000  0.000  0.000  0.000
   27  0.000  0.000  0.000  0.000
   28  0.000  0.000  0.000  0.000
   29  0.000  0.000  0.000  0.000
   30  0.000  0.000  0.000  0.000
   31  0.000  0.000  0.000  0.000
   32  0.000  0.000  0.000  0.000
   33  0.000  0.000  0.000  0.000
   34  0.000  0.000  0.000  0.000
   35  0.000  0.000  0.000  0.000
   36  0.992  0.000  0.000  0.992
   37  0.000  0.000  0.000  0.000
   38  0.000  0.000  0.000  0.000
   39  0.000  0.000  0.000  0.000
tot    0.992  0.000  0.000  0.993
 
band     2 # energy  -31.04758586 # occ.  2.00000000
 
ion      s      p      d    tot
    1  0.000  0.000  0.000  0.000
    2  0.000  0.000  0.000  0.000
    3  0.000  0.000  0.000  0.000
    4  0.000  0.000  0.000  0.000
    5  0.000  0.000  0.000  0.000
    6  0.000  0.000  0.000  0.000
    7  0.000  0.000  0.000  0.000
    8  0.000  0.000  0.000  0.000
    9  0.000  0.000  0.000  0.000
   10  0.000  0.000  0.000  0.000
   11  0.000  0.000  0.000  0.000
   12  0.000  0.000  0.000  0.000
   13  0.000  0.000  0.000  0.000
   14  0.000  0.000  0.000  0.000
   15  0.000  0.000  0.000  0.000
   16  0.000  0.000  0.000  0.000
   17  0.000  0.000  0.000  0.000
   18  0.000  0.000  0.000  0.000
   19  0.000  0.000  0.000  0.000
   20  0.000  0.000  0.000  0.000
   21  0.000  0.000  0.000  0.000
   22  0.000  0.000  0.000  0.000
   23  0.000  0.000  0.000  0.000
   24  0.000  0.000  0.000  0.000
   25  0.000  0.000  0.000  0.000
   26  0.000  0.000  0.000  0.000
   27  0.000  0.000  0.000  0.000
   28  0.000  0.000  0.000  0.000
   29  0.000  0.000  0.000  0.000
   30  0.000  0.000  0.000  0.000
   31  0.000  0.000  0.000  0.000
   32  0.000  0.000  0.000  0.000
   33  0.000  0.000  0.000  0.000
   34  0.000  0.000  0.000  0.000
   35  0.000  0.000  0.000  0.000
   36  0.000  0.972  0.000  0.972
   37  0.000  0.000  0.000  0.000
   38  0.000  0.000  0.000  0.000
   39  0.000  0.000  0.000  0.000
tot    0.000  0.972  0.001  0.974
 
band     3 # energy  -31.04758396 # occ.  2.00000000
 
ion      s      p      d    tot
    1  0.000  0.000  0.000  0.000
    2  0.000  0.000  0.000  0.000
    3  0.000  0.000  0.000  0.000
    4  0.000  0.000  0.000  0.000
    5  0.000  0.000  0.000  0.000
    6  0.000  0.000  0.000  0.000
    7  0.000  0.000  0.000  0.000
    8  0.000  0.000  0.000  0.000
    9  0.000  0.000  0.000  0.000
   10  0.000  0.000  0.000  0.000
   11  0.000  0.000  0.000  0.000
   12  0.000  0.000  0.000  0.000
   13  0.000  0.000  0.000  0.000
   14  0.000  0.000  0.000  0.000
   15  0.000  0.000  0.000  0.000
   16  0.000  0.000  0.000  0.000
   17  0.000  0.000  0.000  0.000
   18  0.000  0.000  0.000  0.000
   19  0.000  0.000  0.000  0.000
   20  0.000  0.000  0.000  0.000
   21  0.000  0.000  0.000  0.000
   22  0.000  0.000  0.000  0.000
   23  0.000  0.000  0.000  0.000
   24  0.000  0.000  0.000  0.000
   25  0.000  0.000  0.000  0.000
   26  0.000  0.000  0.000  0.000
   27  0.000  0.000  0.000  0.000
   28  0.000  0.000  0.000  0.000
   29  0.000  0.000  0.000  0.000
   30  0.000  0.000  0.000  0.000
   31  0.000  0.000  0.000  0.000
   32  0.000  0.000  0.000  0.000
   33  0.000  0.000  0.000  0.000
   34  0.000  0.000  0.000  0.000
   35  0.000  0.000  0.000  0.000
   36  0.000  0.972  0.000  0.972
   37  0.000  0.000  0.000  0.000
   38  0.000  0.000  0.000  0.000
   39  0.000  0.000  0.000  0.000
tot    0.000  0.972  0.001  0.974
 
band     4 # energy  -30.91214558 # occ.  2.00000000
 
ion      s      p      d    tot
    1  0.000  0.000  0.000  0.000
    2  0.000  0.000  0.000  0.000
    3  0.000  0.000  0.000  0.000
    4  0.000  0.000  0.000  0.000
    5  0.000  0.000  0.000  0.000
    6  0.000  0.000  0.000  0.000
    7  0.000  0.000  0.000  0.000
    8  0.000  0.000  0.000  0.000
    9  0.000  0.000  0.000  0.000
   10  0.000  0.000  0.000  0.000
   11  0.000  0.000  0.000  0.000
   12  0.000  0.000  0.000  0.000
   13  0.000  0.000  0.000  0.000
   14  0.000  0.000  0.000  0.000
   15  0.000  0.000  0.000  0.000
   16  0.000  0.000  0.000  0.000
   17  0.000  0.000  0.000  0.000
   18  0.000  0.000  0.000  0.000
   19  0.000  0.000  0.000  0.000
   20  0.000  0.000  0.000  0.001
   21  0.000  0.000  0.000  0.001
   22  0.000  0.000  0.000  0.000
   23  0.000  0.000  0.000  0.001
   24  0.000  0.000  0.000  0.000
   25  0.000  0.000  0.000  0.000
   26  0.000  0.000  0.000  0.000
   27  0.000  0.000  0.000  0.000
   28  0.000  0.000  0.000  0.000
   29  0.000  0.000  0.000  0.000
   30  0.000  0.000  0.000  0.000
   31  0.000  0.000  0.000  0.000
   32  0.000  0.000  0.000  0.000
   33  0.000  0.000  0.000  0.000
   34  0.000  0.000  0.000  0.000
   35  0.000  0.000  0.000  0.000
   36  0.000  0.962  0.000  0.962
   37  0.004  0.004  0.000  0.008
   38  0.000  0.000  0.000  0.000
   39  0.000  0.000  0.000  0.000
tot    0.005  0.966  0.001  0.972
 
band     5 # energy  -23.76475355 # occ.  2.00000000
 
ion      s      p      d    tot
    1  0.000  0.000  0.000  0.000
    2  0.000  0.000  0.000  0.000
    3  0.000  0.000  0.000  0.000
    4  0.000  0.000  0.000  0.000
    5  0.000  0.000  0.000  0.000
    6  0.000  0.000  0.000  0.000
    7  0.000  0.000  0.000  0.000
    8  0.000  0.000  0.000  0.000
    9  0.000  0.000  0.000  0.000
   10  0.000  0.000  0.000  0.000
   11  0.000  0.000  0.000  0.000
   12  0.000  0.000  0.000  0.000
   13  0.000  0.000  0.000  0.000
   14  0.000  0.000  0.000  0.000
   15  0.000  0.000  0.000  0.000
   16  0.000  0.000  0.000  0.000
   17  0.000  0.000  0.000  0.000
   18  0.000  0.000  0.000  0.000
   19  0.000  0.000  0.000  0.000
   20  0.000  0.000  0.000  0.000
   21  0.000  0.000  0.000  0.000
   22  0.000  0.000  0.000  0.000
   23  0.000  0.000  0.000  0.000
   24  0.000  0.000  0.000  0.000
   25  0.000  0.000  0.000  0.000
   26  0.000  0.000  0.000  0.000
   27  0.000  0.000  0.000  0.000
   28  0.000  0.000  0.000  0.000
   29  0.000  0.000  0.000  0.000
   30  0.000  0.000  0.000  0.000
   31  0.000  0.000  0.000  0.000
   32  0.000  0.000  0.000  0.000
   33  0.000  0.000  0.000  0.000
   34  0.000  0.000  0.000  0.000
   35  0.000  0.000  0.000  0.000
   36  0.000  0.000  0.000  0.000
   37  0.077  0.058  0.000  0.135
   38  0.727  0.007  0.000  0.733
   39  0.062  0.013  0.000  0.076
tot    0.866  0.079  0.000  0.944
 
band     6 # energy  -14.44283604 # occ.  2.00000000
 
ion      s      p      d    tot
    1  0.000  0.000  0.000  0.000
    2  0.000  0.000  0.000  0.000
    3  0.000  0.000  0.000  0.000
    4  0.000  0.000  0.000  0.000
    5  0.000  0.000  0.000  0.000
    6  0.000  0.000  0.000  0.000
    7  0.000  0.000  0.000  0.000
    8  0.000  0.000  0.000  0.000
    9  0.000  0.000  0.000  0.000
   10  0.000  0.000  0.000  0.000
   11  0.000  0.000  0.000  0.000
   12  0.000  0.000  0.000  0.000
   13  0.000  0.000  0.000  0.000
   14  0.000  0.000  0.000  0.000
   15  0.000  0.000  0.000  0.000
   16  0.000  0.000  0.000  0.000
   17  0.000  0.000  0.000  0.000
   18  0.000  0.000  0.000  0.000
   19  0.000  0.000  0.000  0.000
   20  0.000  0.000  0.000  0.000
   21  0.000  0.000  0.000  0.000
   22  0.000  0.000  0.000  0.000
   23  0.000  0.000  0.000  0.000
   24  0.000  0.000  0.000  0.000
   25  0.000  0.000  0.000  0.000
   26  0.000  0.000  0.000  0.000
   27  0.000  0.000  0.000  0.000
   28  0.000  0.000  0.000  0.000
   29  0.000  0.000  0.000  0.000
   30  0.000  0.000  0.000  0.000
   31  0.000  0.000  0.000  0.000
   32  0.000  0.000  0.000  0.000
   33  0.000  0.000  0.000  0.000
   34  0.000  0.000  0.000  0.000
   35  0.000  0.000  0.000  0.000
   36  0.001  0.001  0.001  0.003
   37  0.153  0.054  0.000  0.207
   38  0.017  0.529  0.000  0.546
   39  0.203  0.033  0.000  0.236
tot    0.374  0.617  0.001  0.992
 
band     7 # energy   -8.49006002 # occ.  2.00000000
 
ion      s      p      d    tot
    1  0.006  0.001  0.000  0.007
    2  0.006  0.001  0.000  0.007
    3  0.006  0.001  0.000  0.007
    4  0.006  0.001  0.000  0.007
    5  0.006  0.001  0.000  0.007
    6  0.006  0.001  0.000  0.007
    7  0.006  0.001  0.000  0.007
    8  0.006  0.001  0.000  0.007
    9  0.006  0.000  0.000  0.007
   10  0.026  0.000  0.000  0.026
   11  0.026  0.000  0.000  0.027
   12  0.026  0.000  0.000  0.026
   13  0.026  0.000  0.000  0.027
   14  0.026  0.000  0.000  0.027
   15  0.025  0.000  0.000  0.025
   16  0.026  0.000  0.000  0.026
   17  0.025  0.000  0.000  0.025
   18  0.025  0.000  0.000  0.025
   19  0.023  0.000  0.000  0.023
   20  0.028  0.000  0.000  0.028
   21  0.028  0.000  0.000  0.028
   22  0.024  0.000  0.000  0.024
   23  0.028  0.000  0.000  0.028
   24  0.024  0.000  0.000  0.024
   25  0.023  0.000  0.000  0.023
   26  0.023  0.000  0.000  0.023
   27  0.024  0.000  0.000  0.024
   28  0.005  0.000  0.000  0.005
   29  0.005  0.000  0.000  0.005
   30  0.005  0.000  0.000  0.005
   31  0.005  0.000  0.000  0.005
   32  0.005  0.000  0.000  0.005
   33  0.005  0.000  0.000  0.005
   34  0.005  0.000  0.000  0.005
   35  0.005  0.000  0.000  0.005
   36  0.004  0.000  0.001  0.005
   37  0.002  0.002  0.000  0.004
   38  0.000  0.001  0.000  0.001
   39  0.000  0.000  0.000  0.000
tot    0.559  0.013  0.004  0.577
 
band     8 # energy   -7.38162100 # occ.  2.00000000
 
ion      s      p      d    tot
    1  0.015  0.000  0.001  0.016
    2  0.015  0.000  0.001  0.016
    3  0.015  0.000  0.001  0.016
    4  0.015  0.000  0.001  0.016
    5  0.014  0.000  0.001  0.016
    6  0.015  0.000  0.001  0.016
    7  0.015  0.000  0.001  0.016
    8  0.015  0.000  0.001  0.016
    9  0.015  0.000  0.001  0.017
   10  0.011  0.001  0.002  0.014
   11  0.010  0.001  0.002  0.014
   12  0.011  0.001  0.002  0.014
   13  0.010  0.001  0.002  0.014
   14  0.010  0.001  0.002  0.014
   15  0.012  0.001  0.002  0.015
   16  0.011  0.001  0.002  0.014
   17  0.012  0.001  0.002  0.015
   18  0.012  0.001  0.002  0.015
   19  0.009  0.001  0.003  0.012
   20  0.014  0.002  0.004  0.020
   21  0.014  0.002  0.004  0.020
   22  0.008  0.001  0.002  0.012
   23  0.014  0.002  0.004  0.020
   24  0.008  0.001  0.002  0.012
   25  0.009  0.001  0.003  0.012
   26  0.009  0.001  0.003  0.012
   27  0.008  0.001  0.002  0.012
   28  0.012  0.000  0.001  0.013
   29  0.014  0.000  0.001  0.015
   30  0.014  0.000  0.001  0.015
   31  0.014  0.000  0.001  0.015
   32  0.014  0.000  0.001  0.015
   33  0.014  0.000  0.001  0.015
   34  0.014  0.000  0.001  0.015
   35  0.012  0.000  0.001  0.013
   36  0.017  0.001  0.008  0.026
   37  0.018  0.017  0.000  0.035
   38  0.002  0.006  0.000  0.007
   39  0.002  0.000  0.000  0.002
tot    0.474  0.052  0.068  0.593
 
band     9 # energy   -6.70023525 # occ.  2.00000000
 
ion      s      p      d    tot
    1  0.008  0.000  0.000  0.009
    2  0.003  0.000  0.001  0.005
    3  0.003  0.000  0.001  0.005
    4  0.003  0.000  0.001  0.005
    5  0.003  0.000  0.001  0.005
    6  0.003  0.000  0.001  0.005
    7  0.003  0.000  0.001  0.005
    8  0.003  0.000  0.001  0.005
    9  0.001  0.000  0.002  0.002
   10  0.002  0.000  0.003  0.005
   11  0.000  0.001  0.002  0.003
   12  0.002  0.000  0.003  0.005
   13  0.000  0.001  0.002  0.003
   14  0.000  0.001  0.002  0.003
   15  0.002  0.001  0.001  0.004
   16  0.002  0.000  0.003  0.005
   17  0.002  0.001  0.001  0.004
   18  0.002  0.001  0.001  0.004
   19  0.006  0.000  0.007  0.014
   20  0.001  0.002  0.026  0.028
   21  0.001  0.002  0.026  0.028
   22  0.020  0.001  0.002  0.022
   23  0.001  0.002  0.026  0.028
   24  0.020  0.001  0.002  0.022
   25  0.006  0.000  0.007  0.014
   26  0.006  0.000  0.007  0.014
   27  0.020  0.001  0.002  0.022
   28  0.002  0.000  0.001  0.003
   29  0.000  0.001  0.003  0.004
   30  0.000  0.001  0.003  0.004
   31  0.000  0.001  0.003  0.004
   32  0.000  0.001  0.003  0.004
   33  0.000  0.001  0.003  0.004
   34  0.000  0.001  0.003  0.004
   35  0.004  0.001  0.001  0.006
   36  0.035  0.010  0.081  0.125
   37  0.116  0.098  0.000  0.214
   38  0.009  0.029  0.000  0.037
   39  0.008  0.001  0.000  0.009
tot    0.301  0.156  0.235  0.691
 
band    10 # energy   -6.51634492 # occ.  2.00000000
 
ion      s      p      d    tot
    1  0.000  0.000  0.000  0.000
    2  0.000  0.000  0.000  0.000
    3  0.000  0.000  0.000  0.000
    4  0.000  0.000  0.000  0.000
    5  0.000  0.000  0.000  0.000
    6  0.000  0.000  0.000  0.000
    7  0.000  0.000  0.000  0.000
    8  0.000  0.000  0.000  0.000
    9  0.000  0.000  0.000  0.000
   10  0.001  0.000  0.000  0.001
   11  0.000  0.000  0.000  0.000
   12  0.000  0.000  0.000  0.001
   13  0.000  0.000  0.000  0.000
   14  0.000  0.000  0.000  0.000
   15  0.000  0.000  0.000  0.000
   16  0.000  0.000  0.000  0.001
   17  0.000  0.000  0.000  0.000
   18  0.000  0.000  0.000  0.000
   19  0.000  0.000  0.001  0.001
   20  0.001  0.000  0.001  0.002
   21  0.000  0.000  0.001  0.001
   22  0.000  0.000  0.000  0.000
   23  0.000  0.000  0.001  0.001
   24  0.000  0.000  0.000  0.000
   25  0.001  0.000  0.000  0.001
   26  0.000  0.000  0.001  0.001
   27  0.000  0.000  0.000  0.000
   28  0.000  0.000  0.000  0.000
   29  0.001  0.000  0.001  0.002
   30  0.000  0.000  0.001  0.001
   31  0.001  0.000  0.001  0.002
   32  0.001  0.000  0.002  0.003
   33  0.000  0.000  0.001  0.001
   34  0.001  0.000  0.002  0.003
   35  0.000  0.000  0.000  0.000
   36  0.000  0.001  0.009  0.010
   37  0.000  0.108  0.000  0.108
   38  0.000  0.522  0.000  0.522
   39  0.000  0.007  0.000  0.007
tot    0.008  0.640  0.026  0.674
 
band    11 # energy   -6.51620582 # occ.  2.00000000
 
ion      s      p      d    tot
    1  0.000  0.000  0.000  0.000
    2  0.000  0.000  0.000  0.000
    3  0.000  0.000  0.000  0.000
    4  0.000  0.000  0.000  0.000
    5  0.000  0.000  0.000  0.000
    6  0.000  0.000  0.000  0.000
    7  0.000  0.000  0.000  0.000
    8  0.000  0.000  0.000  0.000
    9  0.000  0.000  0.000  0.000
   10  0.000  0.000  0.000  0.000
   11  0.000  0.000  0.000  0.000
   12  0.001  0.000  0.000  0.001
   13  0.000  0.000  0.000  0.000
   14  0.000  0.000  0.000  0.000
   15  0.000  0.000  0.000  0.000
   16  0.001  0.000  0.000  0.001
   17  0.000  0.000  0.000  0.000
   18  0.000  0.000  0.000  0.000
   19  0.001  0.000  0.000  0.001
   20  0.000  0.000  0.001  0.001
   21  0.001  0.000  0.001  0.002
   22  0.000  0.000  0.000  0.000
   23  0.001  0.000  0.001  0.002
   24  0.000  0.000  0.000  0.000
   25  0.000  0.000  0.001  0.001
   26  0.001  0.000  0.000  0.001
   27  0.000  0.000  0.000  0.000
   28  0.000  0.000  0.000  0.000
   29  0.000  0.000  0.001  0.002
   30  0.001  0.000  0.002  0.003
   31  0.000  0.000  0.001  0.002
   32  0.000  0.000  0.001  0.001
   33  0.001  0.000  0.002  0.003
   34  0.000  0.000  0.001  0.001
   35  0.000  0.000  0.000  0.000
   36  0.000  0.001  0.009  0.010
   37  0.000  0.108  0.000  0.108
   38  0.000  0.522  0.000  0.522
   39  0.000  0.007  0.000  0.007
tot    0.008  0.640  0.026  0.674
 
band    12 # energy   -6.37782153 # occ.  2.00000000
 
ion      s      p      d    tot
    1  0.006  0.000  0.015  0.021
    2  0.013  0.000  0.011  0.024
    3  0.013  0.000  0.011  0.024
    4  0.013  0.000  0.011  0.024
    5  0.009  0.000  0.009  0.018
    6  0.013  0.000  0.011  0.024
    7  0.013  0.000  0.011  0.024
    8  0.013  0.000  0.011  0.024
    9  0.028  0.000  0.007  0.035
   10  0.009  0.001  0.009  0.019
   11  0.009  0.002  0.007  0.018
   12  0.009  0.001  0.009  0.019
   13  0.009  0.002  0.007  0.018
   14  0.009  0.002  0.007  0.018
   15  0.001  0.001  0.010  0.012
   16  0.009  0.001  0.009  0.019
   17  0.001  0.001  0.010  0.012
   18  0.001  0.001  0.010  0.012
   19  0.001  0.001  0.009  0.011
   20  0.014  0.002  0.008  0.023
   21  0.014  0.002  0.008  0.023
   22  0.001  0.001  0.004  0.006
   23  0.014  0.002  0.008  0.023
   24  0.001  0.001  0.004  0.006
   25  0.001  0.001  0.009  0.011
   26  0.001  0.001  0.009  0.011
   27  0.001  0.001  0.004  0.006
   28  0.015  0.000  0.005  0.020
   29  0.013  0.000  0.010  0.023
   30  0.013  0.000  0.010  0.023
   31  0.013  0.000  0.010  0.023
   32  0.013  0.000  0.010  0.023
   33  0.013  0.000  0.010  0.023
   34  0.013  0.000  0.010  0.023
   35  0.022  0.000  0.007  0.029
   36  0.001  0.001  0.004  0.006
   37  0.000  0.000  0.000  0.000
   38  0.000  0.000  0.000  0.000
   39  0.000  0.000  0.000  0.000
tot    0.339  0.025  0.314  0.678
 
band    13 # energy   -6.35267333 # occ.  2.00000000
 
ion      s      p      d    tot
    1  0.000  0.001  0.008  0.009
    2  0.003  0.001  0.003  0.006
    3  0.000  0.000  0.003  0.004
    4  0.003  0.001  0.003  0.007
    5  0.000  0.001  0.006  0.007
    6  0.006  0.001  0.003  0.011
    7  0.000  0.000  0.003  0.004
    8  0.006  0.001  0.003  0.011
    9  0.000  0.000  0.001  0.001
   10  0.038  0.002  0.005  0.045
   11  0.012  0.003  0.020  0.035
   12  0.010  0.001  0.027  0.038
   13  0.012  0.003  0.020  0.035
   14  0.048  0.001  0.012  0.061
   15  0.000  0.002  0.007  0.009
   16  0.009  0.001  0.028  0.037
   17  0.000  0.002  0.007  0.009
   18  0.001  0.000  0.011  0.012
   19  0.003  0.003  0.006  0.012
   20  0.064  0.001  0.010  0.075
   21  0.016  0.002  0.030  0.048
   22  0.004  0.001  0.020  0.025
   23  0.016  0.002  0.031  0.048
   24  0.015  0.002  0.005  0.021
   25  0.011  0.000  0.013  0.025
   26  0.003  0.003  0.006  0.012
   27  0.004  0.001  0.021  0.025
   28  0.000  0.000  0.001  0.002
   29  0.006  0.001  0.004  0.011
   30  0.002  0.001  0.003  0.005
   31  0.006  0.001  0.004  0.011
   32  0.001  0.000  0.002  0.004
   33  0.002  0.001  0.003  0.005
   34  0.001  0.000  0.002  0.004
   35  0.000  0.000  0.004  0.004
   36  0.000  0.001  0.004  0.005
   37  0.000  0.001  0.000  0.001
   38  0.000  0.006  0.000  0.006
   39  0.000  0.000  0.000  0.000
tot    0.304  0.048  0.337  0.689
 
band    14 # energy   -6.35265084 # occ.  2.00000000
 
ion      s      p      d    tot
    1  0.000  0.001  0.008  0.009
    2  0.003  0.001  0.003  0.008
    3  0.006  0.001  0.003  0.010
    4  0.003  0.001  0.003  0.007
    5  0.000  0.001  0.006  0.007
    6  0.000  0.000  0.003  0.003
    7  0.006  0.001  0.003  0.010
    8  0.000  0.000  0.003  0.003
    9  0.000  0.000  0.001  0.001
   10  0.000  0.000  0.035  0.035
   11  0.037  0.001  0.014  0.052
   12  0.028  0.002  0.013  0.042
   13  0.036  0.001  0.014  0.052
   14  0.000  0.004  0.022  0.026
   15  0.001  0.001  0.010  0.011
   16  0.028  0.002  0.012  0.042
   17  0.001  0.001  0.010  0.011
   18  0.000  0.003  0.005  0.008
   19  0.009  0.001  0.011  0.020
   20  0.000  0.002  0.037  0.039
   21  0.047  0.002  0.017  0.066
   22  0.011  0.001  0.010  0.023
   23  0.048  0.002  0.017  0.066
   24  0.000  0.001  0.026  0.026
   25  0.000  0.004  0.003  0.007
   26  0.008  0.001  0.011  0.020
   27  0.011  0.001  0.010  0.023
   28  0.000  0.000  0.001  0.002
   29  0.000  0.000  0.002  0.002
   30  0.005  0.001  0.003  0.008
   31  0.000  0.000  0.002  0.002
   32  0.005  0.001  0.004  0.010
   33  0.005  0.001  0.003  0.008
   34  0.005  0.001  0.004  0.010
   35  0.000  0.000  0.004  0.004
   36  0.000  0.001  0.004  0.005
   37  0.000  0.001  0.000  0.001
   38  0.000  0.006  0.000  0.006
   39  0.000  0.000  0.000  0.000
tot    0.304  0.048  0.337  0.689
 
band    15 # energy   -6.32575083 # occ.  2.00000000
 
ion      s      p      d    tot
    1  0.011  0.000  0.008  0.020
    2  0.007  0.000  0.009  0.017
    3  0.007  0.000  0.009  0.017
    4  0.007  0.000  0.009  0.017
    5  0.007  0.000  0.010  0.016
    6  0.007  0.000  0.009  0.017
    7  0.007  0.000  0.009  0.017
    8  0.007  0.000  0.009  0.017
    9  0.004  0.000  0.010  0.014
   10  0.002  0.000  0.026  0.028
   11  0.005  0.000  0.021  0.026
   12  0.002  0.000  0.026  0.028
   13  0.005  0.000  0.021  0.026
   14  0.005  0.000  0.021  0.026
   15  0.010  0.000  0.018  0.028
   16  0.002  0.000  0.026  0.028
   17  0.010  0.000  0.018  0.028
   18  0.010  0.000  0.018  0.028
   19  0.006  0.000  0.018  0.025
   20  0.009  0.000  0.027  0.035
   21  0.008  0.000  0.027  0.035
   22  0.001  0.000  0.020  0.021
   23  0.008  0.000  0.027  0.035
   24  0.001  0.000  0.020  0.021
   25  0.006  0.000  0.018  0.025
   26  0.006  0.000  0.018  0.025
   27  0.001  0.000  0.020  0.021
   28  0.004  0.000  0.006  0.010
   29  0.007  0.000  0.007  0.014
   30  0.007  0.000  0.007  0.014
   31  0.007  0.000  0.007  0.014
   32  0.007  0.000  0.007  0.014
   33  0.007  0.000  0.007  0.014
   34  0.007  0.000  0.007  0.014
   35  0.010  0.000  0.006  0.016
   36  0.002  0.001  0.002  0.004
   37  0.001  0.001  0.000  0.002
   38  0.000  0.000  0.000  0.001
   39  0.000  0.000  0.000  0.000
tot    0.220  0.005  0.530  0.755
 
band    16 # energy   -6.29801313 # occ.  2.00000000
 
ion      s      p      d    tot
    1  0.006  0.001  0.001  0.008
    2  0.000  0.001  0.006  0.007
    3  0.000  0.001  0.006  0.007
    4  0.000  0.001  0.006  0.007
    5  0.019  0.002  0.001  0.022
    6  0.000  0.001  0.006  0.007
    7  0.000  0.001  0.006  0.007
    8  0.000  0.001  0.006  0.007
    9  0.000  0.000  0.002  0.003
   10  0.021  0.003  0.003  0.027
   11  0.024  0.001  0.019  0.044
   12  0.021  0.003  0.003  0.027
   13  0.024  0.001  0.019  0.044
   14  0.024  0.001  0.019  0.044
   15  0.001  0.001  0.026  0.028
   16  0.021  0.003  0.003  0.027
   17  0.001  0.001  0.026  0.028
   18  0.001  0.001  0.026  0.028
   19  0.026  0.002  0.006  0.035
   20  0.007  0.003  0.015  0.025
   21  0.007  0.003  0.015  0.025
   22  0.005  0.000  0.027  0.032
   23  0.007  0.003  0.015  0.025
   24  0.005  0.000  0.027  0.032
   25  0.026  0.002  0.006  0.034
   26  0.026  0.002  0.006  0.035
   27  0.005  0.000  0.027  0.032
   28  0.011  0.001  0.001  0.013
   29  0.000  0.000  0.004  0.004
   30  0.000  0.000  0.004  0.004
   31  0.000  0.000  0.004  0.004
   32  0.000  0.000  0.004  0.004
   33  0.000  0.000  0.004  0.004
   34  0.000  0.000  0.004  0.004
   35  0.004  0.001  0.002  0.006
   36  0.001  0.000  0.000  0.001
   37  0.000  0.000  0.000  0.000
   38  0.000  0.000  0.000  0.000
   39  0.000  0.000  0.000  0.000
tot    0.298  0.040  0.355  0.693
 
band    17 # energy   -6.27686373 # occ.  2.00000000
 
ion      s      p      d    tot
    1  0.000  0.001  0.003  0.004
    2  0.004  0.001  0.003  0.008
    3  0.000  0.000  0.004  0.004
    4  0.005  0.001  0.003  0.010
    5  0.000  0.000  0.005  0.005
    6  0.008  0.001  0.004  0.014
    7  0.001  0.000  0.004  0.005
    8  0.007  0.001  0.004  0.013
    9  0.000  0.001  0.011  0.012
   10  0.000  0.005  0.003  0.008
   11  0.008  0.001  0.010  0.020
   12  0.015  0.002  0.012  0.029
   13  0.007  0.001  0.013  0.022
   14  0.000  0.001  0.026  0.028
   15  0.052  0.001  0.012  0.065
   16  0.019  0.001  0.014  0.034
   17  0.042  0.001  0.017  0.061
   18  0.000  0.001  0.041  0.042
   19  0.031  0.002  0.009  0.042
   20  0.000  0.002  0.010  0.012
   21  0.000  0.001  0.013  0.014
   22  0.025  0.002  0.013  0.039
   23  0.000  0.001  0.013  0.015
   24  0.000  0.004  0.017  0.021
   25  0.000  0.000  0.035  0.036
   26  0.026  0.001  0.014  0.041
   27  0.030  0.001  0.012  0.043
   28  0.000  0.000  0.006  0.007
   29  0.004  0.001  0.002  0.007
   30  0.002  0.001  0.003  0.005
   31  0.004  0.001  0.002  0.006
   32  0.001  0.000  0.002  0.002
   33  0.002  0.000  0.002  0.004
   34  0.000  0.000  0.002  0.002
   35  0.000  0.001  0.004  0.005
   36  0.000  0.000  0.000  0.000
   37  0.000  0.001  0.000  0.001
   38  0.000  0.006  0.000  0.006
   39  0.000  0.000  0.000  0.000
tot    0.294  0.048  0.350  0.692
 
band    18 # energy   -6.27686032 # occ.  2.00000000
 
ion      s      p      d    tot
    1  0.000  0.001  0.003  0.004
    2  0.005  0.001  0.004  0.010
    3  0.008  0.001  0.004  0.014
    4  0.003  0.001  0.004  0.008
    5  0.000  0.000  0.005  0.005
    6  0.000  0.000  0.003  0.004
    7  0.008  0.001  0.004  0.013
    8  0.001  0.000  0.003  0.005
    9  0.000  0.001  0.011  0.012
   10  0.022  0.000  0.017  0.039
   11  0.002  0.001  0.023  0.026
   12  0.008  0.003  0.008  0.018
   13  0.003  0.001  0.020  0.025
   14  0.010  0.001  0.007  0.019
   15  0.011  0.001  0.035  0.047
   16  0.004  0.004  0.006  0.013
   17  0.021  0.001  0.029  0.051
   18  0.062  0.002  0.006  0.070
   19  0.007  0.001  0.030  0.037
   20  0.000  0.001  0.014  0.015
   21  0.000  0.002  0.011  0.013
   22  0.012  0.003  0.015  0.030
   23  0.000  0.002  0.011  0.013
   24  0.036  0.001  0.011  0.048
   25  0.038  0.002  0.003  0.043
   26  0.012  0.001  0.025  0.038
   27  0.007  0.003  0.016  0.026
   28  0.000  0.000  0.006  0.007
   29  0.000  0.000  0.002  0.002
   30  0.002  0.000  0.002  0.004
   31  0.000  0.000  0.002  0.003
   32  0.004  0.001  0.003  0.007
   33  0.003  0.001  0.002  0.005
   34  0.004  0.001  0.002  0.007
   35  0.000  0.001  0.004  0.005
   36  0.000  0.000  0.000  0.000
   37  0.000  0.001  0.000  0.001
   38  0.000  0.006  0.000  0.006
   39  0.000  0.000  0.000  0.000
tot    0.294  0.048  0.350  0.692
 
band    19 # energy   -6.17940191 # occ.  2.00000000
 
ion      s      p      d    tot
    1  0.009  0.001  0.000  0.010
    2  0.001  0.001  0.006  0.007
    3  0.001  0.001  0.006  0.007
    4  0.001  0.001  0.006  0.007
    5  0.004  0.000  0.001  0.006
    6  0.001  0.001  0.006  0.007
    7  0.001  0.001  0.006  0.007
    8  0.001  0.001  0.006  0.007
    9  0.008  0.002  0.003  0.013
   10  0.005  0.000  0.027  0.032
   11  0.003  0.002  0.011  0.015
   12  0.005  0.000  0.027  0.032
   13  0.003  0.002  0.011  0.015
   14  0.003  0.002  0.011  0.015
   15  0.030  0.002  0.005  0.037
   16  0.005  0.000  0.027  0.032
   17  0.030  0.002  0.005  0.037
   18  0.030  0.002  0.005  0.037
   19  0.000  0.001  0.007  0.009
   20  0.002  0.000  0.018  0.021
   21  0.002  0.000  0.018  0.021
   22  0.013  0.003  0.005  0.021
   23  0.002  0.000  0.018  0.021
   24  0.013  0.003  0.005  0.021
   25  0.000  0.001  0.007  0.009
   26  0.000  0.001  0.007  0.009
   27  0.013  0.003  0.005  0.021
   28  0.013  0.000  0.006  0.019
   29  0.007  0.000  0.008  0.015
   30  0.007  0.000  0.008  0.015
   31  0.007  0.000  0.008  0.015
   32  0.007  0.000  0.008  0.015
   33  0.007  0.000  0.008  0.015
   34  0.007  0.000  0.008  0.015
   35  0.003  0.000  0.007  0.011
   36  0.001  0.004  0.036  0.041
   37  0.034  0.027  0.000  0.061
   38  0.002  0.007  0.000  0.009
   39  0.002  0.000  0.000  0.002
tot    0.281  0.072  0.350  0.703
 
band    20 # energy   -5.86842209 # occ.  2.00000000
 
ion      s      p      d    tot
    1  0.000  0.001  0.004  0.005
    2  0.001  0.001  0.005  0.006
    3  0.009  0.001  0.004  0.014
    4  0.001  0.001  0.005  0.006
    5  0.000  0.001  0.010  0.011
    6  0.005  0.001  0.004  0.009
    7  0.009  0.001  0.004  0.014
    8  0.005  0.001  0.004  0.009
    9  0.000  0.000  0.008  0.008
   10  0.000  0.001  0.051  0.051
   11  0.016  0.001  0.020  0.037
   12  0.007  0.001  0.019  0.027
   13  0.016  0.001  0.020  0.037
   14  0.000  0.000  0.048  0.048
   15  0.001  0.000  0.019  0.021
   16  0.007  0.001  0.019  0.027
   17  0.001  0.000  0.019  0.021
   18  0.000  0.001  0.011  0.012
   19  0.004  0.000  0.019  0.024
   20  0.000  0.000  0.084  0.084
   21  0.016  0.001  0.026  0.043
   22  0.003  0.001  0.019  0.023
   23  0.016  0.001  0.026  0.043
   24  0.000  0.001  0.033  0.034
   25  0.000  0.001  0.011  0.012
   26  0.004  0.000  0.019  0.024
   27  0.003  0.001  0.019  0.023
   28  0.000  0.000  0.008  0.008
   29  0.003  0.001  0.005  0.009
   30  0.009  0.001  0.005  0.015
   31  0.003  0.001  0.005  0.009
   32  0.001  0.001  0.004  0.006
   33  0.009  0.001  0.005  0.015
   34  0.001  0.001  0.004  0.006
   35  0.000  0.000  0.003  0.003
   36  0.000  0.001  0.004  0.005
   37  0.000  0.000  0.000  0.000
   38  0.000  0.000  0.000  0.000
   39  0.000  0.000  0.000  0.000