 vasp.6.2.0 18Jan21 (build Jun 12 2021 23:27:24) complex                        
  
 executed on             LinuxIFC date 2022.05.30  18:32:58
 running on   28 total cores
 distrk:  each k-point on   28 cores,    1 groups
 distr:  one band on NCORE=   1 cores,   28 groups


--------------------------------------------------------------------------------------------------------


 INCAR:
   ISMEAR = -5
   SIGMA = 0.1
   ISPIN = 1
   EDIFF = 1.d-5
   EDIFFG = -0.01
   NSW = 0
   NELM = 150
   ENCUT = 500
   ISIF = 2
   IBRION = 2
   LREAL = Auto
   ALGO = Fast
   ICHARG = 11
   LORBIT = 10
   LCHARG = .F.
   LWAVE = .F.

 POTCAR:    PAW_PBE Cu 22Jun2005                  
 POTCAR:    PAW_PBE Ta 17Jan2003                  
 POTCAR:    PAW_PBE C 08Apr2002                   
 POTCAR:    PAW_PBE O 08Apr2002                   
 POTCAR:    PAW_PBE H 15Jun2001                   
 -----------------------------------------------------------------------------
|                                                                             |
|           W    W    AA    RRRRR   N    N  II  N    N   GGGG   !!!           |
|           W    W   A  A   R    R  NN   N  II  NN   N  G    G  !!!           |
|           W    W  A    A  R    R  N N  N  II  N N  N  G       !!!           |
|           W WW W  AAAAAA  RRRRR   N  N N  II  N  N N  G  GGG   !            |
|           WW  WW  A    A  R   R   N   NN  II  N   NN  G    G                |
|           W    W  A    A  R    R  N    N  II  N    N   GGGG   !!!           |
|                                                                             |
|     For optimal performance we recommend to set                             |
|       NCORE = 2 up to number-of-cores-per-socket                            |
|     NCORE specifies how many cores store one orbital (NPAR=cpu/NCORE).      |
|     This setting can greatly improve the performance of VASP for DFT.       |
|     The default, NCORE=1 might be grossly inefficient on modern             |
|     multi-core architectures or massively parallel machines. Do your        |
|     own testing! More info at https://www.vasp.at/wiki/index.php/NCORE      |
|     Unfortunately you need to use the default for GW and RPA                |
|     calculations (for HF NCORE is supported but not extensively tested      |
|     yet).                                                                   |
|                                                                             |
 -----------------------------------------------------------------------------

 POTCAR:    PAW_PBE Cu 22Jun2005                  
   VRHFIN =Cu: d10 p1                                                                               
   LEXCH  = PE                                                                                      
   EATOM  =  1390.9808 eV,  102.2342 Ry                                                             
                                                                                                    
   TITEL  = PAW_PBE Cu 22Jun2005                                                                    
   LULTRA =        F    use ultrasoft PP ?                                                          
   IUNSCR =        1    unscreen: 0-lin 1-nonlin 2-no                                               
   RPACOR =    2.000    partial core radius                                                         
   POMASS =   63.546; ZVAL   =   11.000    mass and valenz                                          
   RCORE  =    2.300    outmost cutoff radius                                                       
   RWIGS  =    2.200; RWIGS  =    1.164    wigner-seitz radius (au A)                               
   ENMAX  =  295.446; ENMIN  =  221.585 eV                                                          
   ICORE  =        3    local potential                                                             
   LCOR   =        T    correct aug charges                                                         
   LPAW   =        T    paw PP                                                                      
   EAUG   =  586.980                                                                                
   DEXC   =    0.000                                                                                
   RMAX   =    2.344    core radius for proj-oper                                                   
   RAUG   =    1.300    factor for augmentation sphere                                              
   RDEP   =    2.302    radius for radial grids                                                     
   RDEPT  =    1.771    core radius for aug-charge                                                  
                                                                                                    
   Atomic configuration                                                                             
    9 entries                                                                                       
     n  l   j            E        occ.                                                              
     1  0  0.50     -8850.2468   2.0000                                                             
     2  0  0.50     -1062.3498   2.0000                                                             
     2  1  1.50      -916.8226   6.0000                                                             
     3  0  0.50      -114.6929   2.0000                                                             
     3  1  1.50       -72.1325   6.0000                                                             
     3  2  2.50        -5.0394  10.0000                                                             
     4  0  0.50        -4.6097   1.0000                                                             
     4  1  0.50        -4.0817   0.0000                                                             
     4  3  2.50        -1.3606   0.0000                                                             
   Description                                                                                      
     l       E           TYP  RCUT    TYP  RCUT                                                     
     2     -5.0393973     23  2.200                                                                 
     2     10.8846608     23  2.200                                                                 
     0     -4.6097109     23  2.200                                                                 
     0      8.2520465     23  2.200                                                                 
     1     -2.7211652     23  2.200                                                                 
     1     21.7055443     23  2.200                                                                 
     3      2.7211652     23  2.300                                                                 
  local pseudopotential read in
  partial core-charges read in
  partial kinetic energy density read in
  atomic valenz-charges read in
  non local Contribution for L=           2  read in
    real space projection operators read in
  non local Contribution for L=           2  read in
    real space projection operators read in
  non local Contribution for L=           0  read in
    real space projection operators read in
  non local Contribution for L=           0  read in
    real space projection operators read in
  non local Contribution for L=           1  read in
    real space projection operators read in
  non local Contribution for L=           1  read in
    real space projection operators read in
    PAW grid and wavefunctions read in
 
   number of l-projection  operators is LMAX  =           6
   number of lm-projection operators is LMMAX =          18
 
 POTCAR:    PAW_PBE Ta 17Jan2003                  
   VRHFIN =Ta:  6s5d                                                                                
   LEXCH  = PE                                                                                      
   EATOM  =   130.6506 eV,    9.6025 Ry                                                             
                                                                                                    
   TITEL  = PAW_PBE Ta 17Jan2003                                                                    
   LULTRA =        F    use ultrasoft PP ?                                                          
   IUNSCR =        1    unscreen: 0-lin 1-nonlin 2-no                                               
   RPACOR =    2.330    partial core radius                                                         
   POMASS =  180.948; ZVAL   =    5.000    mass and valenz                                          
   RCORE  =    2.900    outmost cutoff radius                                                       
   RWIGS  =    2.840; RWIGS  =    1.503    wigner-seitz radius (au A)                               
   ENMAX  =  223.667; ENMIN  =  167.750 eV                                                          
   RCLOC  =    2.205    cutoff for local pot                                                        
   LCOR   =        T    correct aug charges                                                         
   LPAW   =        T    paw PP                                                                      
   EAUG   =  332.075                                                                                
   DEXC   =    0.000                                                                                
   RMAX   =    2.970    core radius for proj-oper                                                   
   RAUG   =    1.300    factor for augmentation sphere                                              
   RDEP   =    3.060    radius for radial grids                                                     
   RDEPT  =    2.354    core radius for aug-charge                                                  
                                                                                                    
   Atomic configuration                                                                             
   16 entries                                                                                       
     n  l   j            E        occ.                                                              
     1  0  0.50    -67341.2807   2.0000                                                             
     2  0  0.50    -11566.9376   2.0000                                                             
     2  1  1.50    -10134.1182   6.0000                                                             
     3  0  0.50     -2648.5620   2.0000                                                             
     3  1  1.50     -2222.6012   6.0000                                                             
     3  2  2.50     -1726.3120  10.0000                                                             
     4  0  0.50      -538.6961   2.0000                                                             
     4  1  1.50      -399.0129   6.0000                                                             
     4  2  2.50      -220.3959  10.0000                                                             
     4  3  3.50       -23.0374  14.0000                                                             
     5  0  0.50       -71.2901   2.0000                                                             
     5  1  1.50       -37.8225   6.0000                                                             
     5  2  2.50        -2.6455   4.0000                                                             
     6  0  0.50        -4.9623   1.0000                                                             
     6  1  1.50        -1.3606   0.0000                                                             
     5  3  2.50        -1.3606   0.0000                                                             
   Description                                                                                      
     l       E           TYP  RCUT    TYP  RCUT                                                     
     2     -2.6455043     23  2.500                                                                 
     2     -0.6258895     23  2.500                                                                 
     0     -4.9622780     23  2.500                                                                 
     0      4.7531321     23  2.500                                                                 
     1     -1.3605826     23  2.900                                                                 
     1     27.2116520     23  2.900                                                                 
  local pseudopotential read in
  partial core-charges read in
  partial kinetic energy density read in
  atomic valenz-charges read in
  non local Contribution for L=           2  read in
    real space projection operators read in
  non local Contribution for L=           2  read in
    real space projection operators read in
  non local Contribution for L=           0  read in
    real space projection operators read in
  non local Contribution for L=           0  read in
    real space projection operators read in
  non local Contribution for L=           1  read in
    real space projection operators read in
  non local Contribution for L=           1  read in
    real space projection operators read in
    PAW grid and wavefunctions read in
 
   number of l-projection  operators is LMAX  =           6
   number of lm-projection operators is LMMAX =          18
 
 POTCAR:    PAW_PBE C 08Apr2002                   
   VRHFIN =C: s2p2                                                                                  
   LEXCH  = PE                                                                                      
   EATOM  =   147.1560 eV,   10.8157 Ry                                                             
                                                                                                    
   TITEL  = PAW_PBE C 08Apr2002                                                                     
   LULTRA =        F    use ultrasoft PP ?                                                          
   IUNSCR =        1    unscreen: 0-lin 1-nonlin 2-no                                               
   RPACOR =    1.200    partial core radius                                                         
   POMASS =   12.011; ZVAL   =    4.000    mass and valenz                                          
   RCORE  =    1.500    outmost cutoff radius                                                       
   RWIGS  =    1.630; RWIGS  =    0.863    wigner-seitz radius (au A)                               
   ENMAX  =  400.000; ENMIN  =  300.000 eV                                                          
   ICORE  =        2    local potential                                                             
   LCOR   =        T    correct aug charges                                                         
   LPAW   =        T    paw PP                                                                      
   EAUG   =  644.873                                                                                
   DEXC   =    0.000                                                                                
   RMAX   =    1.529    core radius for proj-oper                                                   
   RAUG   =    1.300    factor for augmentation sphere                                              
   RDEP   =    1.501    radius for radial grids                                                     
   RDEPT  =    1.300    core radius for aug-charge                                                  
                                                                                                    
   Atomic configuration                                                                             
    4 entries                                                                                       
     n  l   j            E        occ.                                                              
     1  0  0.50      -273.3789   2.0000                                                             
     2  0  0.50       -13.7508   2.0000                                                             
     2  1  0.50        -5.2854   2.0000                                                             
     3  2  1.50        -5.4423   0.0000                                                             
   Description                                                                                      
     l       E           TYP  RCUT    TYP  RCUT                                                     
     0    -13.7508458     23  1.200                                                                 
     0     -8.2022199     23  1.200                                                                 
     1     -5.2854383     23  1.500                                                                 
     1     34.0145650     23  1.500                                                                 
     2     -5.4423304      7  1.500                                                                 
  local pseudopotential read in
  partial core-charges read in
  partial kinetic energy density read in
  atomic valenz-charges read in
  non local Contribution for L=           0  read in
    real space projection operators read in
  non local Contribution for L=           0  read in
    real space projection operators read in
  non local Contribution for L=           1  read in
    real space projection operators read in
  non local Contribution for L=           1  read in
    real space projection operators read in
    PAW grid and wavefunctions read in
 
   number of l-projection  operators is LMAX  =           4
   number of lm-projection operators is LMMAX =           8
 
 POTCAR:    PAW_PBE O 08Apr2002                   
   VRHFIN =O: s2p4                                                                                  
   LEXCH  = PE                                                                                      
   EATOM  =   432.3788 eV,   31.7789 Ry                                                             
                                                                                                    
   TITEL  = PAW_PBE O 08Apr2002                                                                     
   LULTRA =        F    use ultrasoft PP ?                                                          
   IUNSCR =        1    unscreen: 0-lin 1-nonlin 2-no                                               
   RPACOR =    1.200    partial core radius                                                         
   POMASS =   16.000; ZVAL   =    6.000    mass and valenz                                          
   RCORE  =    1.520    outmost cutoff radius                                                       
   RWIGS  =    1.550; RWIGS  =    0.820    wigner-seitz radius (au A)                               
   ENMAX  =  400.000; ENMIN  =  300.000 eV                                                          
   ICORE  =        2    local potential                                                             
   LCOR   =        T    correct aug charges                                                         
   LPAW   =        T    paw PP                                                                      
   EAUG   =  605.392                                                                                
   DEXC   =    0.000                                                                                
   RMAX   =    1.553    core radius for proj-oper                                                   
   RAUG   =    1.300    factor for augmentation sphere                                              
   RDEP   =    1.550    radius for radial grids                                                     
   RDEPT  =    1.329    core radius for aug-charge                                                  
                                                                                                    
   Atomic configuration                                                                             
    4 entries                                                                                       
     n  l   j            E        occ.                                                              
     1  0  0.50      -514.6923   2.0000                                                             
     2  0  0.50       -23.9615   2.0000                                                             
     2  1  0.50        -9.0305   4.0000                                                             
     3  2  1.50        -9.5241   0.0000                                                             
   Description                                                                                      
     l       E           TYP  RCUT    TYP  RCUT                                                     
     0    -23.9615318     23  1.200                                                                 
     0     -9.5240782     23  1.200                                                                 
     1     -9.0304911     23  1.520                                                                 
     1      8.1634956     23  1.520                                                                 
     2     -9.5240782      7  1.500                                                                 
  local pseudopotential read in
  partial core-charges read in
  partial kinetic energy density read in
  kinetic energy density of atom read in
  atomic valenz-charges read in
  non local Contribution for L=           0  read in
    real space projection operators read in
  non local Contribution for L=           0  read in
    real space projection operators read in
  non local Contribution for L=           1  read in
    real space projection operators read in
  non local Contribution for L=           1  read in
    real space projection operators read in
    PAW grid and wavefunctions read in
 
   number of l-projection  operators is LMAX  =           4
   number of lm-projection operators is LMMAX =           8
 
 POTCAR:    PAW_PBE H 15Jun2001                   
   VRHFIN =H: ultrasoft test                                                                        
   LEXCH  = PE                                                                                      
   EATOM  =    12.4884 eV,    0.9179 Ry                                                             
                                                                                                    
   TITEL  = PAW_PBE H 15Jun2001                                                                     
   LULTRA =        F    use ultrasoft PP ?                                                          
   IUNSCR =        0    unscreen: 0-lin 1-nonlin 2-no                                               
   RPACOR =    0.000    partial core radius                                                         
   POMASS =    1.000; ZVAL   =    1.000    mass and valenz                                          
   RCORE  =    1.100    outmost cutoff radius                                                       
   RWIGS  =    0.700; RWIGS  =    0.370    wigner-seitz radius (au A)                               
   ENMAX  =  250.000; ENMIN  =  200.000 eV                                                          
   RCLOC  =    0.701    cutoff for local pot                                                        
   LCOR   =        T    correct aug charges                                                         
   LPAW   =        T    paw PP                                                                      
   EAUG   =  400.000                                                                                
   RMAX   =    1.123    core radius for proj-oper                                                   
   RAUG   =    1.200    factor for augmentation sphere                                              
   RDEP   =    1.112    radius for radial grids                                                     
   RDEPT  =    0.926    core radius for aug-charge                                                  
                                                                                                    
   Atomic configuration                                                                             
    2 entries                                                                                       
     n  l   j            E        occ.                                                              
     1  0  0.50        -6.4927   1.0000                                                             
     2  1  0.50        -3.4015   0.0000                                                             
   Description                                                                                      
     l       E           TYP  RCUT    TYP  RCUT                                                     
     0     -6.4927494     23  1.100                                                                 
     0      6.8029130     23  1.100                                                                 
     1     -4.0817478     23  1.100                                                                 
  local pseudopotential read in
  atomic valenz-charges read in
  non local Contribution for L=           0  read in
    real space projection operators read in
  non local Contribution for L=           0  read in
    real space projection operators read in
  non local Contribution for L=           1  read in
    real space projection operators read in
    PAW grid and wavefunctions read in
 
   number of l-projection  operators is LMAX  =           3
   number of lm-projection operators is LMMAX =           5
 
 Optimization of the real space projectors (new method)

 maximal supplied QI-value         = 16.25
 optimisation between [QCUT,QGAM] = [ 11.38, 22.75] = [ 36.24,144.96] Ry 
 Optimized for a Real-space Cutoff    1.52 Angstroem

   l    n(q)    QCUT    max X(q) W(low)/X(q) W(high)/X(q)  e(spline) 
   2      9    11.376     4.610    0.21E-03    0.10E-03    0.26E-06
   2      9    11.376     8.522    0.33E-03    0.16E-03    0.37E-06
   0     10    11.376    51.609    0.62E-04    0.20E-04    0.13E-06
   0     10    11.376    27.747    0.54E-04    0.20E-04    0.13E-06
   1     10    11.376    20.408    0.13E-04    0.99E-04    0.19E-06
   1     10    11.376    13.425    0.12E-04    0.87E-04    0.17E-06
 Optimization of the real space projectors (new method)

 maximal supplied QI-value         = 12.85
 optimisation between [QCUT,QGAM] = [ 11.44, 22.87] = [ 36.63,146.51] Ry 
 Optimized for a Real-space Cutoff    1.61 Angstroem

   l    n(q)    QCUT    max X(q) W(low)/X(q) W(high)/X(q)  e(spline) 
   2     10    11.437    62.315    0.14E-03    0.26E-03    0.80E-06
   2     10    11.437    52.185    0.14E-03    0.26E-03    0.80E-06
   0     11    11.437   103.837    0.25E-04    0.17E-04    0.84E-07
   0     11    11.437    59.728    0.20E-04    0.15E-04    0.73E-07
   1     11    11.437    13.958    0.47E-03    0.12E-03    0.89E-06
   1     11    11.437     8.441    0.33E-03    0.88E-04    0.61E-06
 Optimization of the real space projectors (new method)

 maximal supplied QI-value         = 25.13
 optimisation between [QCUT,QGAM] = [ 11.31, 22.87] = [ 35.82,146.48] Ry 
 Optimized for a Real-space Cutoff    1.00 Angstroem

   l    n(q)    QCUT    max X(q) W(low)/X(q) W(high)/X(q)  e(spline) 
   0      7    11.310   115.676    0.43E-03    0.13E-02    0.19E-06
   0      7    11.310    87.132    0.43E-03    0.13E-02    0.18E-06
   1      6    11.310     4.429    0.42E-03    0.74E-03    0.11E-06
   1      6    11.310     2.733    0.34E-03    0.55E-03    0.92E-07
 Optimization of the real space projectors (new method)

 maximal supplied QI-value         = 24.76
 optimisation between [QCUT,QGAM] = [ 11.39, 22.77] = [ 36.31,145.25] Ry 
 Optimized for a Real-space Cutoff    1.00 Angstroem

   l    n(q)    QCUT    max X(q) W(low)/X(q) W(high)/X(q)  e(spline) 
   0      7    11.387    20.381    0.39E-03    0.13E-02    0.15E-06
   0      7    11.387    15.268    0.42E-03    0.14E-02    0.17E-06
   1      6    11.387     5.964    0.41E-03    0.11E-02    0.17E-06
   1      6    11.387     5.382    0.39E-03    0.87E-03    0.15E-06
 Optimization of the real space projectors (new method)

 maximal supplied QI-value         = 34.20
 optimisation between [QCUT,QGAM] = [ 11.29, 22.57] = [ 35.68,142.71] Ry 
 Optimized for a Real-space Cutoff    1.16 Angstroem

   l    n(q)    QCUT    max X(q) W(low)/X(q) W(high)/X(q)  e(spline) 
   0      8    11.287    19.460    0.40E-03    0.73E-03    0.16E-06
   0      8    11.287    12.209    0.38E-03    0.70E-03    0.15E-06
   1      7    11.287     4.655    0.22E-03    0.25E-04    0.22E-06
  PAW_PBE Cu 22Jun2005                  :
 energy of atom  1       EATOM=-1390.9808
 kinetic energy error for atom=    0.0043 (will be added to EATOM!!)
  PAW_PBE Ta 17Jan2003                  :
 energy of atom  2       EATOM= -130.6506
 kinetic energy error for atom=    0.0012 (will be added to EATOM!!)
  PAW_PBE C 08Apr2002                   :
 energy of atom  3       EATOM= -147.1560
 kinetic energy error for atom=    0.0076 (will be added to EATOM!!)
  PAW_PBE O 08Apr2002                   :
 energy of atom  4       EATOM= -432.3788
 kinetic energy error for atom=    0.0224 (will be added to EATOM!!)
  PAW_PBE H 15Jun2001                   :
 energy of atom  5       EATOM=  -12.4884
 kinetic energy error for atom=    0.0020 (will be added to EATOM!!)
 
 
 POSCAR: Cu-Ta-COH
  positions in direct lattice
  velocities in cartesian coordinates
 exchange correlation table for  LEXCH =        8
   RHO(1)=    0.500       N(1)  =     2000
   RHO(2)=  100.500       N(2)  =     4000

 VTST: version 3.2, (02/03/18)

 CHAIN: initializing optimizer
 
 OPT: Using VASP Conjugate-Gradient optimizer
 CHAIN: Read ICHAIN            0
 
 POSCAR: Cu-Ta-COH
  positions in direct lattice
  velocities in cartesian coordinates
 


--------------------------------------------------------------------------------------------------------


 ion  position               nearest neighbor table
   1  0.000  0.000  0.206-   7 2.57   3 2.57   4 2.57   2 2.57   6 2.57   8 2.57  12 2.57  10 2.57
                            16 2.57
   2  0.333  0.000  0.206-   8 2.57   9 2.57   5 2.57   1 2.57   3 2.57  11 2.57   4 2.57  10 2.57
                            17 2.57
   3  0.667  0.000  0.206-   1 2.57   7 2.57   6 2.57   9 2.57   2 2.57  12 2.57   5 2.57  18 2.57
                            11 2.57
   4  0.000  0.333  0.206-   5 2.57   6 2.57   1 2.57   7 2.57   2 2.57  13 2.57   9 2.57  10 2.57
                            15 2.57
   5  0.333  0.333  0.206-   4 2.57   2 2.57   7 2.57  13 2.57   8 2.57   6 2.57   3 2.57  11 2.57
                            14 2.57
   6  0.667  0.333  0.206-   4 2.57   9 2.57  15 2.57   3 2.57   1 2.57   8 2.57  14 2.57   5 2.57
                            12 2.57
   7  0.000  0.667  0.206-   1 2.57   3 2.57  16 2.57  18 2.57   4 2.57   5 2.57   8 2.57   9 2.57
                            13 2.57
   8  0.333  0.667  0.206-   9 2.57   2 2.57  17 2.57   6 2.57   1 2.57   7 2.57   5 2.57  14 2.57
                            16 2.57
   9  0.667  0.667  0.206-   8 2.57   6 2.57   2 2.57  17 2.57   3 2.57   7 2.57   4 2.57  15 2.57
                            18 2.57
  10  0.111  0.111  0.286-  20 2.55  26 2.56  19 2.56  11 2.57  12 2.57  13 2.57   1 2.57   2 2.57
                             4 2.57  15 2.57  16 2.57  17 2.57
  11  0.444  0.111  0.286-  20 2.56  21 2.56  10 2.57  13 2.57   2 2.57  17 2.57  14 2.57  12 2.57
                             5 2.57   3 2.57  18 2.57  27 2.57
  12  0.778  0.111  0.286-  21 2.55  19 2.56  25 2.56  15 2.57  10 2.57  14 2.57  18 2.57   3 2.57
                             1 2.57  16 2.57  11 2.57   6 2.57
  13  0.111  0.444  0.286-  23 2.56  20 2.56  16 2.57  18 2.57  10 2.57  11 2.57  14 2.57   5 2.57
                             4 2.57   7 2.57  15 2.57  22 2.57
  14  0.444  0.444  0.286-  21 2.56  23 2.56  15 2.57  17 2.57  12 2.57  16 2.57  13 2.57  11 2.57
                             6 2.57   8 2.57   5 2.57  24 2.57
  15  0.778  0.444  0.286-  19 2.56  14 2.57  17 2.57  12 2.57   6 2.57  18 2.57  10 2.57   9 2.57
                            13 2.57   4 2.57  24 2.57  22 2.57
  16  0.111  0.778  0.286-  23 2.55  25 2.56  26 2.56  18 2.57  13 2.57   7 2.57  14 2.57  17 2.57
                            12 2.57  10 2.57   8 2.57   1 2.57
  17  0.444  0.778  0.286-  26 2.56  14 2.57  15 2.57   8 2.57   9 2.57  11 2.57  16 2.57  18 2.57
                            10 2.57   2 2.57  27 2.57  24 2.57
  18  0.778  0.778  0.286-  25 2.56  16 2.57  13 2.57   7 2.57  15 2.57  12 2.57  17 2.57   9 2.57
                             3 2.57  11 2.57  22 2.57  27 2.57
  19  0.889  0.222  0.366-  12 2.56  10 2.56  15 2.56  21 2.56  20 2.56  25 2.56  26 2.56  22 2.57
                            24 2.57  28 2.57  32 2.59  31 2.59
  20  0.222  0.222  0.365-  10 2.55  11 2.56  13 2.56  26 2.56  19 2.56  27 2.57  22 2.57  23 2.58
                            21 2.58  36 2.61  29 2.61  31 2.61
  21  0.557  0.222  0.365-  12 2.55  14 2.56  11 2.56  19 2.56  25 2.56  24 2.57  27 2.57  20 2.58
                            23 2.58  36 2.61  32 2.61  30 2.61
  22  0.888  0.556  0.366-  24 2.56  27 2.56  19 2.57  25 2.57  23 2.57  20 2.57  18 2.57  15 2.57
                            35 2.57  13 2.57  31 2.59  33 2.59
  23  0.222  0.557  0.365-  16 2.55  13 2.56  14 2.56  25 2.56  26 2.56  22 2.57  24 2.57  20 2.58
                            21 2.58  36 2.61  33 2.61  34 2.61
  24  0.556  0.556  0.366-  22 2.56  27 2.56  19 2.57  26 2.57  21 2.57  23 2.57  15 2.57  17 2.57
                            35 2.57  14 2.57  32 2.59  34 2.59
  25  0.889  0.889  0.366-  12 2.56  16 2.56  18 2.56  21 2.56  23 2.56  19 2.56  26 2.56  22 2.57
                            27 2.57  28 2.57  33 2.59  30 2.59
  26  0.222  0.889  0.366-  10 2.56  16 2.56  17 2.56  20 2.56  23 2.56  25 2.56  19 2.56  27 2.57
                            24 2.57  28 2.57  29 2.59  34 2.59
  27  0.556  0.888  0.366-  24 2.56  22 2.56  26 2.57  25 2.57  20 2.57  21 2.57  17 2.57  18 2.57
                            35 2.57  11 2.57  29 2.59  30 2.59
  28  0.000  0.000  0.446-  33 2.55  30 2.55  31 2.55  29 2.55  32 2.55  34 2.55  25 2.57  19 2.57
                            26 2.57
  29  0.333  0.997  0.447-  34 2.52  35 2.55  28 2.55  31 2.59  27 2.59  36 2.59  30 2.59  26 2.59
                            20 2.61
  30  0.670  0.997  0.447-  33 2.52  35 2.55  28 2.55  32 2.59  27 2.59  36 2.59  29 2.59  25 2.59
                            21 2.61
  31  0.997  0.333  0.447-  32 2.52  35 2.55  28 2.55  29 2.59  22 2.59  36 2.59  33 2.59  19 2.59
                            20 2.61
  32  0.670  0.333  0.447-  31 2.52  35 2.55  28 2.55  30 2.59  24 2.59  36 2.59  34 2.59  19 2.59
                            21 2.61
  33  0.997  0.670  0.447-  30 2.52  35 2.55  28 2.55  34 2.59  22 2.59  36 2.59  31 2.59  25 2.59
                            23 2.61
  34  0.333  0.670  0.447-  29 2.52  35 2.55  28 2.55  33 2.59  24 2.59  36 2.59  32 2.59  26 2.59
                            23 2.61
  35  0.667  0.667  0.447-  34 2.55  32 2.55  29 2.55  30 2.55  33 2.55  31 2.55  24 2.57  27 2.57
                            22 2.57
  36  0.333  0.333  0.447-  37 1.94  31 2.59  29 2.59  33 2.59  34 2.59  32 2.59  30 2.59  23 2.61
                            20 2.61  21 2.61
  37  0.333  0.333  0.522-  38 1.27  36 1.94
  38  0.333  0.333  0.570-  39 0.96  37 1.27
  39  0.333  0.333  0.607-  38 0.96
 
  LATTYP: Found a hexagonal cell.
 ALAT       =     7.6967864036
 C/A-ratio  =     3.3950614187
  
  Lattice vectors:
  
 A1 = (  -3.8483927580,  -6.6656128093,   0.0000000000)
 A2 = (   7.6967864037,   0.0000000000,   0.0000000000)
 A3 = (   0.0000000000,   0.0000000000,  26.1310625667)


Analysis of symmetry for initial positions (statically):
=====================================================================
 Subroutine PRICEL returns:
 Original cell was already a primitive cell.
 

 Routine SETGRP: Setting up the symmetry group for a 
 hexagonal supercell.


 Subroutine GETGRP returns: Found  6 space group operations
 (whereof  6 operations were pure point group operations)
 out of a pool of 24 trial point group operations.


The static configuration has the point symmetry C_3v.


Analysis of symmetry for dynamics (positions and initial velocities):
=====================================================================
 Subroutine PRICEL returns:
 Original cell was already a primitive cell.
 

 Routine SETGRP: Setting up the symmetry group for a 
 hexagonal supercell.


 Subroutine GETGRP returns: Found  6 space group operations
 (whereof  6 operations were pure point group operations)
 out of a pool of 24 trial point group operations.


The dynamic configuration has the point symmetry C_3v.


Analysis of constrained symmetry for selective dynamics:
=====================================================================
 Subroutine PRICEL returns:
 Original cell was already a primitive cell.
 

 Routine SETGRP: Setting up the symmetry group for a 
 hexagonal supercell.


 Subroutine GETGRP returns: Found  6 space group operations
 (whereof  6 operations were pure point group operations)
 out of a pool of 24 trial point group operations.


The constrained configuration has the point symmetry C_3v.


 Subroutine INISYM returns: Found  6 space group operations
 (whereof  6 operations are pure point group operations),
 and found     1 'primitive' translations


----------------------------------------------------------------------------------------

                                     Primitive cell                                     

  volume of cell :    1340.6228

  direct lattice vectors                    reciprocal lattice vectors
     7.696786404  0.000000000  0.000000000     0.129924354 -0.075011849  0.000000000
     3.848392758  6.665612809  0.000000000     0.000000000  0.150023716  0.000000000
     0.000000000  0.000000000 26.131062567     0.000000000  0.000000000  0.038268631

  length of vectors
     7.696786404  7.696786404 26.131062567     0.150023716  0.150023716  0.038268631

  position of ions in fractional coordinates (direct lattice)
     0.000000000  0.000000000  0.205562236
     0.333333343  0.000000000  0.205562236
     0.666666687  0.000000000  0.205562236
     0.000000000  0.333333343  0.205562236
     0.333333313  0.333333343  0.205562236
     0.666666687  0.333333343  0.205562236
     0.000000000  0.666666687  0.205562236
     0.333333373  0.666666687  0.205562236
     0.666666627  0.666666687  0.205562236
     0.111111119  0.111111112  0.285727375
     0.444444418  0.111111112  0.285727375
     0.777777791  0.111111112  0.285727375
     0.111111119  0.444444448  0.285727375
     0.444444478  0.444444448  0.285727375
     0.777777731  0.444444448  0.285727375
     0.111111112  0.777777731  0.285727375
     0.444444478  0.777777731  0.285727375
     0.777777851  0.777777731  0.285727375
     0.888920760  0.222158496  0.365536934
     0.221702589  0.221702574  0.365483542
     0.556594881  0.221702574  0.365483542
     0.888359181  0.555820380  0.366202672
     0.221702559  0.556594821  0.365483542
     0.555820440  0.555820380  0.366202672
     0.888920760  0.888920760  0.365536934
     0.222158511  0.888920760  0.365536934
     0.555820380  0.888359181  0.366202672
     0.000000000  0.000000000  0.446082889
     0.333322426  0.997018191  0.447387332
     0.669659413  0.997018191  0.447387332
     0.997018191  0.333322426  0.447387332
     0.669659413  0.333322426  0.447387332
     0.997018191  0.669659413  0.447387332
     0.333322456  0.669659413  0.447387332
     0.666666627  0.666666687  0.446845818
     0.333333313  0.333333343  0.447496132
     0.333333313  0.333333343  0.521893468
     0.333333313  0.333333343  0.570469218
     0.333333313  0.333333343  0.607023471

  ion indices of the primitive-cell ions
   primitive index   ion index
                 1           1
                 2           2
                 3           3
                 4           4
                 5           5
                 6           6
                 7           7
                 8           8
                 9           9
                10          10
                11          11
                12          12
                13          13
                14          14
                15          15
                16          16
                17          17
                18          18
                19          19
                20          20
                21          21
                22          22
                23          23
                24          24
                25          25
                26          26
                27          27
                28          28
                29          29
                30          30
                31          31
                32          32
                33          33
                34          34
                35          35
                36          36
                37          37
                38          38
                39          39

----------------------------------------------------------------------------------------

 
 
 KPOINTS: Automatic mesh                          

Automatic generation of k-mesh.
 Grid dimensions read from file:
 generate k-points for:    8    8    1

 Generating k-lattice:

  Cartesian coordinates                     Fractional coordinates (reciprocal lattice)
     0.016240544 -0.009376481  0.000000000     0.125000000  0.000000000  0.000000000
     0.000000000  0.018752964  0.000000000     0.000000000  0.125000000  0.000000000
     0.000000000  0.000000000  0.038268631     0.000000000  0.000000000  1.000000000

  Length of vectors
     0.018752964  0.018752964  0.038268631

  Shift w.r.t. Gamma in fractional coordinates (k-lattice)
     0.000000000  0.000000000  0.000000000

 TETIRR: Found     36 inequivalent tetrahedra from      384
 
 Subroutine IBZKPT returns following result:
 ===========================================
 
 Found     10 irreducible k-points:
 
 Following reciprocal coordinates:
            Coordinates               Weight
  0.000000  0.000000  0.000000      1.000000
  0.125000 -0.000000  0.000000      6.000000
  0.250000 -0.000000  0.000000      6.000000
  0.375000 -0.000000  0.000000      6.000000
  0.500000 -0.000000  0.000000      3.000000
  0.250000  0.125000  0.000000      6.000000
  0.375000  0.125000  0.000000     12.000000
  0.500000  0.125000  0.000000     12.000000
  0.500000  0.250000  0.000000      6.000000
 -0.375000  0.250000  0.000000      6.000000
 
 Following cartesian coordinates:
            Coordinates               Weight
  0.000000  0.000000  0.000000      1.000000
  0.016241 -0.009376  0.000000      6.000000
  0.032481 -0.018753  0.000000      6.000000
  0.048722 -0.028129  0.000000      6.000000
  0.064962 -0.037506  0.000000      3.000000
  0.032481  0.000000  0.000000      6.000000
  0.048722 -0.009376  0.000000     12.000000
  0.064962 -0.018753  0.000000     12.000000
  0.064962  0.000000  0.000000      6.000000
 -0.048722  0.065635  0.000000      6.000000
 


--------------------------------------------------------------------------------------------------------




 Dimension of arrays:
   k-points           NKPTS =     10   k-points in BZ     NKDIM =     10   number of bands    NBANDS=    252
   number of dos      NEDOS =    301   number of ions     NIONS =     39
   non local maximal  LDIM  =      6   non local SUM 2l+1 LMDIM =     18
   total plane-waves  NPLWV = 254016
   max r-space proj   IRMAX =   3369   max aug-charges    IRDMAX=  13096
   dimension x,y,z NGX =    42 NGY =   42 NGZ =  144
   dimension x,y,z NGXF=    84 NGYF=   84 NGZF=  288
   support grid    NGXF=    84 NGYF=   84 NGZF=  288
   ions per type =              35   1   1   1   1
   NGX,Y,Z   is equivalent  to a cutoff of   9.07,  9.07,  9.16 a.u.
   NGXF,Y,Z  is equivalent  to a cutoff of  18.14, 18.14, 18.32 a.u.

 SYSTEM =  unknown system                          
 POSCAR =  Cu-Ta-COH                               

 Startparameter for this run:
   NWRITE =      2    write-flag & timer
   PREC   = normal    normal or accurate (medium, high low for compatibility)
   ISTART =      0    job   : 0-new  1-cont  2-samecut
   ICHARG =     11    charge: 1-file 2-atom 10-const
   ISPIN  =      1    spin polarized calculation?
   LNONCOLLINEAR =      F non collinear calculations
   LSORBIT =      F    spin-orbit coupling
   INIWAV =      1    electr: 0-lowe 1-rand  2-diag
   LASPH  =      F    aspherical Exc in radial PAW
   METAGGA=      F    non-selfconsistent MetaGGA calc.

 Electronic Relaxation 1
   ENCUT  =  500.0 eV  36.75 Ry    6.06 a.u.  14.03 14.03 47.64*2*pi/ulx,y,z
   ENINI  =  500.0     initial cutoff
   ENAUG  =  644.9 eV  augmentation charge cutoff
   NELM   =    150;   NELMIN=  2; NELMDL= -5     # of ELM steps 
   EDIFF  = 0.1E-04   stopping-criterion for ELM
   LREAL  =      T    real-space projection
   NLSPLINE    = F    spline interpolate recip. space projectors
   LCOMPAT=      F    compatible to vasp.4.4
   GGA_COMPAT  = T    GGA compatible to vasp.4.4-vasp.4.6
   LMAXPAW     = -100 max onsite density
   LMAXMIX     =    2 max onsite mixed and CHGCAR
   VOSKOWN=      0    Vosko Wilk Nusair interpolation
   ROPT   =   -0.00050  -0.00050  -0.00050  -0.00050
   ROPT   =   -0.00050
 Ionic relaxation
   EDIFFG = -.1E-01   stopping-criterion for IOM
   NSW    =      0    number of steps for IOM
   NBLOCK =      1;   KBLOCK =      1    inner block; outer block 
   IBRION =     -1    ionic relax: 0-MD 1-quasi-New 2-CG
   NFREE  =      1    steps in history (QN), initial steepest desc. (CG)
   ISIF   =      2    stress and relaxation
   IWAVPR =     10    prediction:  0-non 1-charg 2-wave 3-comb
   ISYM   =      2    0-nonsym 1-usesym 2-fastsym
   LCORR  =      T    Harris-Foulkes like correction to forces

   POTIM  = 0.5000    time-step for ionic-motion
   TEIN   =    0.0    initial temperature
   TEBEG  =    0.0;   TEEND  =   0.0 temperature during run
   SMASS  =  -3.00    Nose mass-parameter (am)
   estimated Nose-frequenzy (Omega)   =  0.10E-29 period in steps = 0.13E+47 mass=  -0.135E-26a.u.
   SCALEE = 1.0000    scale energy and forces
   NPACO  =    256;   APACO  = 16.0  distance and # of slots for P.C.
   PSTRESS=    0.0 pullay stress

  Mass of Ions in am
   POMASS =  63.55180.95 12.01 16.00  1.00
  Ionic Valenz
   ZVAL   =  11.00  5.00  4.00  6.00  1.00
  Atomic Wigner-Seitz radii
   RWIGS  =  -1.00 -1.00 -1.00 -1.00 -1.00
  virtual crystal weights 
   VCA    =   1.00  1.00  1.00  1.00  1.00
   NELECT =     401.0000    total number of electrons
   NUPDOWN=      -1.0000    fix difference up-down

 DOS related values:
   EMIN   =  10.00;   EMAX   =-10.00  energy-range for DOS
   EFERMI =   0.00
   ISMEAR =    -5;   SIGMA  =   0.10  broadening in eV -4-tet -1-fermi 0-gaus

 Electronic relaxation 2 (details)
   IALGO  =     68    algorithm
   LDIAG  =      T    sub-space diagonalisation (order eigenvalues)
   LSUBROT=      F    optimize rotation matrix (better conditioning)
   TURBO    =      0    0=normal 1=particle mesh
   IRESTART =      0    0=no restart 2=restart with 2 vectors
   NREBOOT  =      0    no. of reboots
   NMIN     =      0    reboot dimension
   EREF     =   0.00    reference energy to select bands
   IMIX   =      4    mixing-type and parameters
     AMIX     =   0.40;   BMIX     =  1.00
     AMIX_MAG =   1.60;   BMIX_MAG =  1.00
     AMIN     =   0.10
     WC   =   100.;   INIMIX=   1;  MIXPRE=   1;  MAXMIX= -45

 Intra band minimization:
   WEIMIN = 0.0000     energy-eigenvalue tresh-hold
   EBREAK =  0.99E-08  absolut break condition
   DEPER  =   0.30     relativ break condition  

   TIME   =   0.40     timestep for ELM

  volume/ion in A,a.u.               =      34.37       231.97
  Fermi-wavevector in a.u.,A,eV,Ry     =   1.094849  2.068964 16.309217  1.198694
  Thomas-Fermi vector in A             =   2.231161
 
 Write flags
   LWAVE        =      F    write WAVECAR
   LDOWNSAMPLE  =      F    k-point downsampling of WAVECAR
   LCHARG       =      F    write CHGCAR
   LVTOT        =      F    write LOCPOT, total local potential
   LVHAR        =      F    write LOCPOT, Hartree potential only
   LELF         =      F    write electronic localiz. function (ELF)
   LORBIT       =     10    0 simple, 1 ext, 2 COOP (PROOUT), +10 PAW based schemes


 Dipole corrections
   LMONO  =      F    monopole corrections only (constant potential shift)
   LDIPOL =      F    correct potential (dipole corrections)
   IDIPOL =      0    1-x, 2-y, 3-z, 4-all directions 
   EPSILON=  1.0000000 bulk dielectric constant

 Exchange correlation treatment:
   GGA     =    --    GGA type
   LEXCH   =     8    internal setting for exchange type
   VOSKOWN=      0    Vosko Wilk Nusair interpolation
   LHFCALC =     F    Hartree Fock is set to
   LHFONE  =     F    Hartree Fock one center treatment
   AEXX    =    0.0000 exact exchange contribution

 Linear response parameters
   LEPSILON=     F    determine dielectric tensor
   LRPA    =     F    only Hartree local field effects (RPA)
   LNABLA  =     F    use nabla operator in PAW spheres
   LVEL    =     F    velocity operator in full k-point grid
   LINTERFAST=   F  fast interpolation
   KINTER  =     0    interpolate to denser k-point grid
   CSHIFT  =0.1000    complex shift for real part using Kramers Kronig
   OMEGAMAX=  -1.0    maximum frequency
   DEG_THRESHOLD= 0.2000000E-02 threshold for treating states as degnerate
   RTIME   =   -0.100 relaxation time in fs
  (WPLASMAI=    0.000 imaginary part of plasma frequency in eV, 0.658/RTIME)
   DFIELD  = 0.0000000 0.0000000 0.0000000 field for delta impulse in time
 
 Orbital magnetization related:
   ORBITALMAG=     F  switch on orbital magnetization
   LCHIMAG   =     F  perturbation theory with respect to B field
   DQ        =  0.001000  dq finite difference perturbation B field
   LLRAUG    =     F  two centre corrections for induced B field



--------------------------------------------------------------------------------------------------------


 Static calculation
 charge density and potential remain constant during run
 non-spin polarized calculation
 RMM-DIIS sequential band-by-band and
  variant of blocked Davidson during initial phase
 perform sub-space diagonalisation
    before iterative eigenvector-optimisation
 no mixing
 using additional bands           51
 real space projection scheme for non local part
 use partial core corrections
 calculate Harris-corrections to forces 
   (improved forces if not selfconsistent)
 use gradient corrections 
 WARNING: stress and forces are not correct
  (second derivative of E(xc) not defined)
 use of overlap-Matrix (Vanderbilt PP)
 Fermi weights with tetrahedron method with Bloechl corrections


--------------------------------------------------------------------------------------------------------


  energy-cutoff  :      500.00
  volume of cell :     1340.62
      direct lattice vectors                 reciprocal lattice vectors
     7.696786404  0.000000000  0.000000000     0.129924354 -0.075011849  0.000000000
     3.848392758  6.665612809  0.000000000     0.000000000  0.150023716  0.000000000
     0.000000000  0.000000000 26.131062567     0.000000000  0.000000000  0.038268631

  length of vectors
     7.696786404  7.696786404 26.131062567     0.150023716  0.150023716  0.038268631


 
 k-points in units of 2pi/SCALE and weight: Automatic mesh                          
   0.00000000  0.00000000  0.00000000       0.016
   0.01624054 -0.00937648  0.00000000       0.094
   0.03248109 -0.01875296  0.00000000       0.094
   0.04872163 -0.02812944  0.00000000       0.094
   0.06496218 -0.03750592  0.00000000       0.047
   0.03248109  0.00000000  0.00000000       0.094
   0.04872163 -0.00937648  0.00000000       0.188
   0.06496218 -0.01875296  0.00000000       0.188
   0.06496218  0.00000000  0.00000000       0.094
  -0.04872163  0.06563537  0.00000000       0.094
 
 k-points in reciprocal lattice and weights: Automatic mesh                          
   0.00000000  0.00000000  0.00000000       0.016
   0.12500000 -0.00000000  0.00000000       0.094
   0.25000000 -0.00000000  0.00000000       0.094
   0.37500000 -0.00000000  0.00000000       0.094
   0.50000000 -0.00000000  0.00000000       0.047
   0.25000000  0.12500000  0.00000000       0.094
   0.37500000  0.12500000  0.00000000       0.188
   0.50000000  0.12500000  0.00000000       0.188
   0.50000000  0.25000000  0.00000000       0.094
  -0.37500000  0.25000000  0.00000000       0.094
 
 position of ions in fractional coordinates (direct lattice) 
   0.00000000  0.00000000  0.20556224
   0.33333334  0.00000000  0.20556224
   0.66666669  0.00000000  0.20556224
   0.00000000  0.33333334  0.20556224
   0.33333331  0.33333334  0.20556224
   0.66666669  0.33333334  0.20556224
   0.00000000  0.66666669  0.20556224
   0.33333337  0.66666669  0.20556224
   0.66666663  0.66666669  0.20556224
   0.11111112  0.11111111  0.28572738
   0.44444442  0.11111111  0.28572738
   0.77777779  0.11111111  0.28572738
   0.11111112  0.44444445  0.28572738
   0.44444448  0.44444445  0.28572738
   0.77777773  0.44444445  0.28572738
   0.11111111  0.77777773  0.28572738
   0.44444448  0.77777773  0.28572738
   0.77777785  0.77777773  0.28572738
   0.88892076  0.22215850  0.36553693
   0.22170259  0.22170257  0.36548354
   0.55659488  0.22170257  0.36548354
   0.88835918  0.55582038  0.36620267
   0.22170256  0.55659482  0.36548354
   0.55582044  0.55582038  0.36620267
   0.88892076  0.88892076  0.36553693
   0.22215851  0.88892076  0.36553693
   0.55582038  0.88835918  0.36620267
   0.00000000  0.00000000  0.44608289
   0.33332243  0.99701819  0.44738733
   0.66965941  0.99701819  0.44738733
   0.99701819  0.33332243  0.44738733
   0.66965941  0.33332243  0.44738733
   0.99701819  0.66965941  0.44738733
   0.33332246  0.66965941  0.44738733
   0.66666663  0.66666669  0.44684582
   0.33333331  0.33333334  0.44749613
   0.33333331  0.33333334  0.52189347
   0.33333331  0.33333334  0.57046922
   0.33333331  0.33333334  0.60702347
 
 position of ions in cartesian coordinates  (Angst):
   0.00000000  0.00000000  5.37155964
   2.56559554  0.00000000  5.37155964
   5.13119109  0.00000000  5.37155964
   1.28279762  2.22187100  5.37155964
   3.84839293  2.22187100  5.37155964
   6.41398872  2.22187100  5.37155964
   2.56559525  4.44374201  5.37155964
   5.13119102  4.44374201  5.37155964
   7.69678588  4.44374201  5.37155964
   1.28279775  0.74062365  7.46635991
   3.84839295  0.74062365  7.46635991
   6.41398873  0.74062365  7.46635991
   2.56559535  2.96249461  7.46635991
   5.13119101  2.96249461  7.46635991
   7.69678586  2.96249461  7.46635991
   3.84839268  5.18436521  7.46635991
   6.41398840  5.18436521  7.46635991
   8.97958418  5.18436521  7.46635991
   7.69678637  1.48082252  9.55186849
   2.55959606  1.47778352  9.55047329
   5.13719050  1.47778352  9.55047329
   8.97652599  3.70488344  9.56926494
   3.84839272  3.71004557  9.55047329
   6.41704633  3.70488344  9.56926494
  10.26274943  5.92520160  9.55186849
   5.13082282  5.92520160  9.55186849
   7.69678578  5.92145833  9.56926494
   0.00000000  0.00000000 11.65661987
   6.40242910  6.64573723 11.69070636
   8.99114305  6.64573723 11.69070636
   8.95659167  2.22179823 11.69070636
   6.43698107  2.22179823 11.69070636
  10.25094849  4.46369036 11.69070636
   5.14262418  4.46369036 11.69070636
   7.69678588  4.44374201 11.67655602
   3.84839293  2.22187100 11.69354943
   3.84839293  2.22187100 13.63763086
   3.84839293  2.22187100 14.90696682
   3.84839293  2.22187100 15.86216830
 


--------------------------------------------------------------------------------------------------------


 k-point   1 :   0.0000 0.0000 0.0000  plane waves:   33965
 k-point   2 :   0.1250-0.0000 0.0000  plane waves:   33959
 k-point   3 :   0.2500-0.0000 0.0000  plane waves:   34022
 k-point   4 :   0.3750-0.0000 0.0000  plane waves:   33996
 k-point   5 :   0.5000-0.0000 0.0000  plane waves:   34022
 k-point   6 :   0.2500 0.1250 0.0000  plane waves:   34000
 k-point   7 :   0.3750 0.1250 0.0000  plane waves:   34040
 k-point   8 :   0.5000 0.1250 0.0000  plane waves:   34057
 k-point   9 :   0.5000 0.2500 0.0000  plane waves:   34090
 k-point  10 :  -0.3750 0.2500 0.0000  plane waves:   34090

 maximum and minimum number of plane-waves per node :     34090    33959

 maximum number of plane-waves:     34090
 maximum index in each direction: 
   IXMAX=   14   IYMAX=   14   IZMAX=   47
   IXMIN=  -14   IYMIN=  -14   IZMIN=  -47


 serial   3D FFT for wavefunctions
 parallel 3D FFT for charge:
    minimum data exchange during FFTs selected (reduces bandwidth)


 total amount of memory used by VASP MPI-rank0   117992. kBytes
=======================================================================

   base      :      30000. kBytes
   nonlr-proj:      17785. kBytes
   fftplans  :       3497. kBytes
   grid      :      16027. kBytes
   one-center:        606. kBytes
   wavefun   :      50077. kBytes
 
     INWAV:  cpu time    0.0000: real time    0.0000
 initial charge density was supplied:
 number of electron     400.9999548 magnetization 
 keeping initial charge density in first step


--------------------------------------------------------------------------------------------------------


 Maximum index for non-local projection operator         3210
 Maximum index for augmentation-charges          593 (set IRDMAX)


--------------------------------------------------------------------------------------------------------


 First call to EWALD:  gamma=   0.161
 Maximum number of real-space cells 4x 4x 1
 Maximum number of reciprocal cells 2x 2x 6

    FEWALD:  cpu time    0.0012: real time    0.0012


--------------------------------------- Iteration      1(   1)  ---------------------------------------


    POTLOK:  cpu time    0.0320: real time    0.0324
    SETDIJ:  cpu time    0.0043: real time    0.0044
     EDDAV:  cpu time    6.6233: real time    6.6245
 BZINTS: Fermi energy:   12.247721;  401.000000 electrons
         Band energy: 0.234479E+04;  BLOECHL correction:   -0.033095
       DOS:  cpu time    0.0100: real time    0.0100
    --------------------------------------------
      LOOP:  cpu time    6.6697: real time    6.6714

 eigenvalue-minimisations  :  5040
 total energy-change (2. order) : 0.3493059E+04  (-0.1684757E+05)
 number of electron     400.9999548 magnetization 
 augmentation part      400.9999548 magnetization 

 Free energy of the ion-electron system (eV)
  ---------------------------------------------------
  alpha Z        PSCENC =       743.00001469
  Ewald energy   TEWEN  =    239421.47173649
  -Hartree energ DENC   =   -286260.51868862
  -exchange      EXHF   =         0.00000000
  -V(xc)+E(xc)   XCENC  =      1535.96627578
  PAW double counting   =     47154.35208537   -50852.82133352
  entropy T*S    EENTRO =         0.00000000
  eigenvalues    EBANDS =      2344.78937066
  atomic energy  EATOM  =     49406.81973359
  Solvation  Ediel_sol  =         0.00000000
  ---------------------------------------------------
  free energy    TOTEN  =      3493.05919443 eV

  energy without entropy =     3493.05919443  energy(sigma->0) =     3493.05919443


--------------------------------------------------------------------------------------------------------




--------------------------------------- Iteration      1(   2)  ---------------------------------------


     EDDAV:  cpu time    6.5989: real time    6.5990
 BZINTS: Fermi energy:    2.611779;  401.000000 electrons
         Band energy:-0.853882E+03;  BLOECHL correction:   -0.043149
       DOS:  cpu time    0.0100: real time    0.0100
    --------------------------------------------
      LOOP:  cpu time    6.6089: real time    6.6090

 eigenvalue-minimisations  :  5040
 total energy-change (2. order) :-0.3198671E+04  (-0.3071503E+04)
 number of electron     400.9999548 magnetization 
 augmentation part      400.9999548 magnetization 

 Free energy of the ion-electron system (eV)
  ---------------------------------------------------
  alpha Z        PSCENC =       743.00001469
  Ewald energy   TEWEN  =    239421.47173649
  -Hartree energ DENC   =   -286260.51868862
  -exchange      EXHF   =         0.00000000
  -V(xc)+E(xc)   XCENC  =      1535.96627578
  PAW double counting   =     47154.35208537   -50852.82133352
  entropy T*S    EENTRO =         0.00000000
  eigenvalues    EBANDS =      -853.88155958
  atomic energy  EATOM  =     49406.81973359
  Solvation  Ediel_sol  =         0.00000000
  ---------------------------------------------------
  free energy    TOTEN  =       294.38826419 eV

  energy without entropy =      294.38826419  energy(sigma->0) =      294.38826419


--------------------------------------------------------------------------------------------------------




--------------------------------------- Iteration      1(   3)  ---------------------------------------


     EDDAV:  cpu time    7.3995: real time    7.3996
 BZINTS: Fermi energy:    0.208784;  401.000000 electrons
         Band energy:-0.126692E+04;  BLOECHL correction:   -0.028019
       DOS:  cpu time    0.0101: real time    0.0101
    --------------------------------------------
      LOOP:  cpu time    7.4096: real time    7.4097

 eigenvalue-minimisations  :  5796
 total energy-change (2. order) :-0.4130396E+03  (-0.3934668E+03)
 number of electron     400.9999548 magnetization 
 augmentation part      400.9999548 magnetization 

 Free energy of the ion-electron system (eV)
  ---------------------------------------------------
  alpha Z        PSCENC =       743.00001469
  Ewald energy   TEWEN  =    239421.47173649
  -Hartree energ DENC   =   -286260.51868862
  -exchange      EXHF   =         0.00000000
  -V(xc)+E(xc)   XCENC  =      1535.96627578
  PAW double counting   =     47154.35208537   -50852.82133352
  entropy T*S    EENTRO =         0.00000000
  eigenvalues    EBANDS =     -1266.92113389
  atomic energy  EATOM  =     49406.81973359
  Solvation  Ediel_sol  =         0.00000000
  ---------------------------------------------------
  free energy    TOTEN  =      -118.65131012 eV

  energy without entropy =     -118.65131012  energy(sigma->0) =     -118.65131012


--------------------------------------------------------------------------------------------------------




--------------------------------------- Iteration      1(   4)  ---------------------------------------


     EDDAV:  cpu time    8.2770: real time    8.2771
 BZINTS: Fermi energy:   -0.139332;  401.000000 electrons
         Band energy:-0.129785E+04;  BLOECHL correction:   -0.042078
       DOS:  cpu time    0.0103: real time    0.0103
    --------------------------------------------
      LOOP:  cpu time    8.2873: real time    8.2874

 eigenvalue-minimisations  :  6636
 total energy-change (2. order) :-0.3093028E+02  (-0.3000600E+02)
 number of electron     400.9999548 magnetization 
 augmentation part      400.9999548 magnetization 

 Free energy of the ion-electron system (eV)
  ---------------------------------------------------
  alpha Z        PSCENC =       743.00001469
  Ewald energy   TEWEN  =    239421.47173649
  -Hartree energ DENC   =   -286260.51868862
  -exchange      EXHF   =         0.00000000
  -V(xc)+E(xc)   XCENC  =      1535.96627578
  PAW double counting   =     47154.35208537   -50852.82133352
  entropy T*S    EENTRO =         0.00000000
  eigenvalues    EBANDS =     -1297.85141285
  atomic energy  EATOM  =     49406.81973359
  Solvation  Ediel_sol  =         0.00000000
  ---------------------------------------------------
  free energy    TOTEN  =      -149.58158908 eV

  energy without entropy =     -149.58158908  energy(sigma->0) =     -149.58158908


--------------------------------------------------------------------------------------------------------




--------------------------------------- Iteration      1(   5)  ---------------------------------------


     EDDAV:  cpu time    7.9356: real time    7.9357
 BZINTS: Fermi energy:   -0.150085;  401.000000 electrons
         Band energy:-0.129879E+04;  BLOECHL correction:   -0.043528
       DOS:  cpu time    0.0097: real time    0.0097
    --------------------------------------------
      LOOP:  cpu time    7.9452: real time    7.9453

 eigenvalue-minimisations  :  6328
 total energy-change (2. order) :-0.9407234E+00  (-0.9344540E+00)
 number of electron     400.9999548 magnetization 
 augmentation part      400.9999548 magnetization 

 Free energy of the ion-electron system (eV)
  ---------------------------------------------------
  alpha Z        PSCENC =       743.00001469
  Ewald energy   TEWEN  =    239421.47173649
  -Hartree energ DENC   =   -286260.51868862
  -exchange      EXHF   =         0.00000000
  -V(xc)+E(xc)   XCENC  =      1535.96627578
  PAW double counting   =     47154.35208537   -50852.82133352
  entropy T*S    EENTRO =         0.00000000
  eigenvalues    EBANDS =     -1298.79213620
  atomic energy  EATOM  =     49406.81973359
  Solvation  Ediel_sol  =         0.00000000
  ---------------------------------------------------
  free energy    TOTEN  =      -150.52231243 eV

  energy without entropy =     -150.52231243  energy(sigma->0) =     -150.52231243


--------------------------------------------------------------------------------------------------------




--------------------------------------- Iteration      1(   6)  ---------------------------------------


    EDDIAG:  cpu time    1.2549: real time    1.2582
  RMM-DIIS:  cpu time    3.8929: real time    3.8929
    ORTHCH:  cpu time    0.2410: real time    0.2409
 BZINTS: Fermi energy:   -0.150147;  401.000000 electrons
         Band energy:-0.129881E+04;  BLOECHL correction:   -0.043536
       DOS:  cpu time    0.0103: real time    0.0103
    --------------------------------------------
      LOOP:  cpu time    5.3990: real time    5.4023

 eigenvalue-minimisations  :  5547
 total energy-change (2. order) :-0.2254362E-01  (-0.2254161E-01)
 number of electron     400.9999548 magnetization 
 augmentation part      400.9999548 magnetization 

 Free energy of the ion-electron system (eV)
  ---------------------------------------------------
  alpha Z        PSCENC =       743.00001469
  Ewald energy   TEWEN  =    239421.47173649
  -Hartree energ DENC   =   -286260.51868862
  -exchange      EXHF   =         0.00000000
  -V(xc)+E(xc)   XCENC  =      1535.96627578
  PAW double counting   =     47154.35208537   -50852.82133352
  entropy T*S    EENTRO =         0.00000000
  eigenvalues    EBANDS =     -1298.81467982
  atomic energy  EATOM  =     49406.81973359
  Solvation  Ediel_sol  =         0.00000000
  ---------------------------------------------------
  free energy    TOTEN  =      -150.54485605 eV

  energy without entropy =     -150.54485605  energy(sigma->0) =     -150.54485605


--------------------------------------------------------------------------------------------------------




--------------------------------------- Iteration      1(   7)  ---------------------------------------


    EDDIAG:  cpu time    1.2546: real time    1.2546
  RMM-DIIS:  cpu time    5.2403: real time    5.2402
    ORTHCH:  cpu time    0.2416: real time    0.2416
 BZINTS: Fermi energy:   -0.150177;  401.000000 electrons
         Band energy:-0.129882E+04;  BLOECHL correction:   -0.043539
       DOS:  cpu time    0.0096: real time    0.0096
    --------------------------------------------
      LOOP:  cpu time    6.7461: real time    6.7461

 eigenvalue-minimisations  :  7639
 total energy-change (2. order) :-0.1011323E-01  (-0.1007107E-01)
 number of electron     400.9999548 magnetization 
 augmentation part      400.9999548 magnetization 

 Free energy of the ion-electron system (eV)
  ---------------------------------------------------
  alpha Z        PSCENC =       743.00001469
  Ewald energy   TEWEN  =    239421.47173649
  -Hartree energ DENC   =   -286260.51868862
  -exchange      EXHF   =         0.00000000
  -V(xc)+E(xc)   XCENC  =      1535.96627578
  PAW double counting   =     47154.35208537   -50852.82133352
  entropy T*S    EENTRO =         0.00000000
  eigenvalues    EBANDS =     -1298.82479305
  atomic energy  EATOM  =     49406.81973359
  Solvation  Ediel_sol  =         0.00000000
  ---------------------------------------------------
  free energy    TOTEN  =      -150.55496928 eV

  energy without entropy =     -150.55496928  energy(sigma->0) =     -150.55496928


--------------------------------------------------------------------------------------------------------




--------------------------------------- Iteration      1(   8)  ---------------------------------------


    EDDIAG:  cpu time    1.2571: real time    1.2573
  RMM-DIIS:  cpu time    5.2723: real time    5.2723
    ORTHCH:  cpu time    0.2412: real time    0.2412
 BZINTS: Fermi energy:   -0.150178;  401.000000 electrons
         Band energy:-0.129883E+04;  BLOECHL correction:   -0.043540
       DOS:  cpu time    0.0101: real time    0.0101
    --------------------------------------------
      LOOP:  cpu time    6.7807: real time    6.7808

 eigenvalue-minimisations  :  7637
 total energy-change (2. order) :-0.8799693E-03  (-0.8510631E-03)
 number of electron     400.9999548 magnetization 
 augmentation part      400.9999548 magnetization 

 Free energy of the ion-electron system (eV)
  ---------------------------------------------------
  alpha Z        PSCENC =       743.00001469
  Ewald energy   TEWEN  =    239421.47173649
  -Hartree energ DENC   =   -286260.51868862
  -exchange      EXHF   =         0.00000000
  -V(xc)+E(xc)   XCENC  =      1535.96627578
  PAW double counting   =     47154.35208537   -50852.82133352
  entropy T*S    EENTRO =         0.00000000
  eigenvalues    EBANDS =     -1298.82567302
  atomic energy  EATOM  =     49406.81973359
  Solvation  Ediel_sol  =         0.00000000
  ---------------------------------------------------
  free energy    TOTEN  =      -150.55584925 eV

  energy without entropy =     -150.55584925  energy(sigma->0) =     -150.55584925


--------------------------------------------------------------------------------------------------------




--------------------------------------- Iteration      1(   9)  ---------------------------------------


    EDDIAG:  cpu time    1.2623: real time    1.2626
  RMM-DIIS:  cpu time    5.3857: real time    5.3857
    ORTHCH:  cpu time    0.2418: real time    0.2418
 BZINTS: Fermi energy:   -0.150179;  401.000000 electrons
         Band energy:-0.129883E+04;  BLOECHL correction:   -0.043540
       DOS:  cpu time    0.0100: real time    0.0100
    --------------------------------------------
      LOOP:  cpu time    6.8999: real time    6.9001

 eigenvalue-minimisations  :  7798
 total energy-change (2. order) :-0.1704053E-03  (-0.1679893E-03)
 number of electron     400.9999548 magnetization 
 augmentation part      400.9999548 magnetization 

 Free energy of the ion-electron system (eV)
  ---------------------------------------------------
  alpha Z        PSCENC =       743.00001469
  Ewald energy   TEWEN  =    239421.47173649
  -Hartree energ DENC   =   -286260.51868862
  -exchange      EXHF   =         0.00000000
  -V(xc)+E(xc)   XCENC  =      1535.96627578
  PAW double counting   =     47154.35208537   -50852.82133352
  entropy T*S    EENTRO =         0.00000000
  eigenvalues    EBANDS =     -1298.82584343
  atomic energy  EATOM  =     49406.81973359
  Solvation  Ediel_sol  =         0.00000000
  ---------------------------------------------------
  free energy    TOTEN  =      -150.55601965 eV

  energy without entropy =     -150.55601965  energy(sigma->0) =     -150.55601965


--------------------------------------------------------------------------------------------------------




--------------------------------------- Iteration      1(  10)  ---------------------------------------


    EDDIAG:  cpu time    1.2545: real time    1.2547
  RMM-DIIS:  cpu time    4.7693: real time    4.7693
    ORTHCH:  cpu time    0.2413: real time    0.2413
 BZINTS: Fermi energy:   -0.150179;  401.000000 electrons
         Band energy:-0.129883E+04;  BLOECHL correction:   -0.043540
       DOS:  cpu time    0.0103: real time    0.0103
    --------------------------------------------
      LOOP:  cpu time    6.2754: real time    6.2755

 eigenvalue-minimisations  :  6762
 total energy-change (2. order) :-0.2554234E-04  (-0.2581762E-04)
 number of electron     400.9999548 magnetization 
 augmentation part      400.9999548 magnetization 

 Free energy of the ion-electron system (eV)
  ---------------------------------------------------
  alpha Z        PSCENC =       743.00001469
  Ewald energy   TEWEN  =    239421.47173649
  -Hartree energ DENC   =   -286260.51868862
  -exchange      EXHF   =         0.00000000
  -V(xc)+E(xc)   XCENC  =      1535.96627578
  PAW double counting   =     47154.35208537   -50852.82133352
  entropy T*S    EENTRO =         0.00000000
  eigenvalues    EBANDS =     -1298.82586897
  atomic energy  EATOM  =     49406.81973359
  Solvation  Ediel_sol  =         0.00000000
  ---------------------------------------------------
  free energy    TOTEN  =      -150.55604520 eV

  energy without entropy =     -150.55604520  energy(sigma->0) =     -150.55604520


--------------------------------------------------------------------------------------------------------




--------------------------------------- Iteration      1(  11)  ---------------------------------------


    EDDIAG:  cpu time    1.2542: real time    1.2543
  RMM-DIIS:  cpu time    3.5261: real time    3.5261
    ORTHCH:  cpu time    0.2416: real time    0.2416
 BZINTS: Fermi energy:   -0.150179;  401.000000 electrons
         Band energy:-0.129883E+04;  BLOECHL correction:   -0.043540
       DOS:  cpu time    0.0098: real time    0.0098
    --------------------------------------------
      LOOP:  cpu time    5.0318: real time    5.0318

 eigenvalue-minimisations  :  4588
 total energy-change (2. order) :-0.4868489E-05  (-0.5085287E-05)
 number of electron     400.9999548 magnetization 
 augmentation part      400.9999548 magnetization 

 Free energy of the ion-electron system (eV)
  ---------------------------------------------------
  alpha Z        PSCENC =       743.00001469
  Ewald energy   TEWEN  =    239421.47173649
  -Hartree energ DENC   =   -286260.51868862
  -exchange      EXHF   =         0.00000000
  -V(xc)+E(xc)   XCENC  =      1535.96627578
  PAW double counting   =     47154.35208537   -50852.82133352
  entropy T*S    EENTRO =         0.00000000
  eigenvalues    EBANDS =     -1298.82587384
  atomic energy  EATOM  =     49406.81973359
  Solvation  Ediel_sol  =         0.00000000
  ---------------------------------------------------
  free energy    TOTEN  =      -150.55605006 eV

  energy without entropy =     -150.55605006  energy(sigma->0) =     -150.55605006


--------------------------------------------------------------------------------------------------------




 average (electrostatic) potential at core
  the test charge radii are     0.9430  1.2538  0.6991  0.7215  0.5201
  (the norm of the test charge is              1.0000)
       1 -71.1425       2 -71.1338       3 -71.1338       4 -71.1338       5 -71.1390
       6 -71.1335       7 -71.1337       8 -71.1335       9 -71.1263      10 -71.4210
      11 -71.3751      12 -71.4208      13 -71.3750      14 -71.3749      15 -71.3995
      16 -71.4208      17 -71.3996      18 -71.3995      19 -71.4116      20 -71.6277
      21 -71.6278      22 -71.3673      23 -71.6277      24 -71.3676      25 -71.4113
      26 -71.4117      27 -71.3675      28 -71.2128      29 -71.3617      30 -71.3616
      31 -71.3616      32 -71.3616      33 -71.3616      34 -71.3616      35 -71.1962
      36 -41.4101      37 -56.8062      38 -79.0919      39 -43.6636
 
 
 
 E-fermi :  -0.1502     XC(G=0):  -5.0402     alpha+bet : -4.4730

 Fermi energy:        -0.1501788107

 k-point     1 :       0.0000    0.0000    0.0000
  band No.  band energies     occupation 
      1     -24.0916      2.00000
      2     -14.8315      2.00000
      3      -9.0162      2.00000
      4      -7.8748      2.00000
      5      -7.0720      2.00000
      6      -6.8340      2.00000
      7      -6.8339      2.00000
      8      -6.1308      2.00000
      9      -6.0141      2.00000
     10      -6.0141      2.00000
     11      -5.9689      2.00000
     12      -5.9688      2.00000
     13      -5.9642      2.00000
     14      -5.8383      2.00000
     15      -5.2784      2.00000
     16      -5.2784      2.00000
     17      -5.2693      2.00000
     18      -5.2240      2.00000
     19      -5.2240      2.00000
     20      -5.2167      2.00000
     21      -5.0447      2.00000
     22      -4.6398      2.00000
     23      -4.6397      2.00000
     24      -4.5480      2.00000
     25      -4.5292      2.00000
     26      -4.5292      2.00000
     27      -4.4903      2.00000
     28      -4.2625      2.00000
     29      -4.2552      2.00000
     30      -4.2552      2.00000
     31      -4.2229      2.00000
     32      -4.2229      2.00000
     33      -4.2053      2.00000
     34      -4.1064      2.00000
     35      -4.1064      2.00000
     36      -4.0769      2.00000
     37      -4.0657      2.00000
     38      -4.0657      2.00000
     39      -4.0528      2.00000
     40      -4.0525      2.00000
     41      -4.0485      2.00000
     42      -4.0484      2.00000
[...]
  0.000   0.000   0.000   0.000   0.000   0.000   0.000   0.000   0.000   0.000   1.000   0.000   0.000   0.000   0.000   0.000
  0.000   0.000   0.000   0.000   0.000   0.000   0.000   0.000   0.000   0.000   0.000   0.000   0.000   0.000   0.000   0.000
  0.000   0.000   0.000   0.000   0.000   0.000   0.000   0.000   0.000   0.000   0.000   0.000   0.000   0.000   0.000   0.000
  0.000   0.000   0.000   0.000   0.000   0.000   0.000   0.000   0.000   0.000   0.000   0.000   0.000   0.000   0.000   0.000
  0.000   0.000   0.000   0.000   0.000   0.000   0.000   0.000   0.000   0.000   0.000   0.000   0.000   0.000   0.000   0.000
  0.000   0.000   0.000   0.000   0.000   0.000   0.000   0.000   0.000   0.000   0.000   0.000   0.000   0.000   0.000   0.000
  0.000   0.000   0.000   0.000   0.000   0.000   0.000   0.000   0.000   0.000   0.000   0.000   0.000   0.000   0.000   0.000
  0.000   0.000   0.000   0.000   0.000   0.000   0.000   0.000   0.000   0.000   0.000   0.000   0.000   0.000   0.000   0.000


------------------------ aborting loop because EDIFF is reached ----------------------------------------





 total charge

# of ion       s       p       d       tot
------------------------------------------
    1        0.449   0.283   9.191   9.922
    2        0.447   0.286   9.187   9.920
    3        0.447   0.286   9.187   9.920
    4        0.447   0.286   9.187   9.920
    5        0.451   0.286   9.182   9.919
    6        0.447   0.286   9.187   9.920
    7        0.447   0.286   9.187   9.920
    8        0.447   0.286   9.187   9.920
    9        0.448   0.284   9.190   9.922
   10        0.443   0.371   9.176   9.991
   11        0.445   0.365   9.182   9.991
   12        0.443   0.371   9.176   9.991
   13        0.445   0.365   9.182   9.991
   14        0.445   0.365   9.182   9.991
   15        0.438   0.371   9.176   9.985
   16        0.443   0.371   9.176   9.991
   17        0.438   0.371   9.176   9.985
   18        0.438   0.371   9.176   9.985
   19        0.441   0.368   9.178   9.987
   20        0.465   0.394   9.163  10.023
   21        0.465   0.394   9.163  10.023
   22        0.429   0.371   9.180   9.980
   23        0.465   0.394   9.163  10.023
   24        0.429   0.371   9.180   9.980
   25        0.441   0.368   9.178   9.987
   26        0.441   0.368   9.178   9.987
   27        0.429   0.371   9.180   9.980
   28        0.446   0.294   9.185   9.925
   29        0.474   0.314   9.167   9.955
   30        0.474   0.314   9.167   9.955
   31        0.474   0.314   9.167   9.955
   32        0.474   0.314   9.167   9.955
   33        0.474   0.314   9.167   9.955
   34        0.474   0.314   9.167   9.955
   35        0.446   0.295   9.184   9.925
   36        0.728   0.821   3.508   5.057
   37        0.930   1.419   0.000   2.349
   38        1.520   3.761   0.000   5.281
   39        0.569   0.139   0.000   0.707
--------------------------------------------------
tot         19.494  17.900 324.731 362.125
 
    CHARGE:  cpu time    0.2797: real time    0.2798
    FORLOC:  cpu time    0.0104: real time    0.0104
    FORNL :  cpu time    1.3762: real time    1.3763
    STRESS:  cpu time    4.0820: real time    4.0821
    FORCOR:  cpu time    0.0355: real time    0.0357
    FORHAR:  cpu time    0.0155: real time    0.0157
    OFIELD:  cpu time    0.0002: real time    0.0002

  FORCE on cell =-STRESS in cart. coord.  units (eV):
  Direction    XX          YY          ZZ          XY          YZ          ZX
  --------------------------------------------------------------------------------------
  Alpha Z   743.00001   743.00001   743.00001
  Ewald  264902.59730264902.59695************     0.00037     0.00014     0.00016
  Hartree277743.51936277743.51938************     0.00002     0.00007     0.00005
  E(xc)   -2316.72896 -2316.72854 -2321.26474    -0.00037    -0.00003    -0.00005
  Local  ************************555264.02728     0.01888    -0.00063    -0.00095
  n-local  -789.74657  -777.47094  -797.54250     6.59836    -0.13224     0.30427
  augment  3316.94792  3316.96824  3339.69133    -0.01759     0.00031     0.00047
  Kinetic  3398.16695  3400.24520  3374.69337     2.85844     1.80012    -1.18565
  Fock        0.00000     0.00000     0.00000     0.00000     0.00000     0.00000
  -------------------------------------------------------------------------------------
  Total      -4.23495    -4.23495     1.10623     0.00000     0.00000    -0.00000
  in kB      -5.06118    -5.06118     1.32205     0.00000     0.00000    -0.00000
  external pressure =       -2.93 kB  Pullay stress =        0.00 kB


 VOLUME and BASIS-vectors are now :
 -----------------------------------------------------------------------------
  energy-cutoff  :      500.00
  volume of cell :     1340.62
      direct lattice vectors                 reciprocal lattice vectors
     7.696786404  0.000000000  0.000000000     0.129924354 -0.075011849  0.000000000
     3.848392758  6.665612809  0.000000000     0.000000000  0.150023716  0.000000000
     0.000000000  0.000000000 26.131062567     0.000000000  0.000000000  0.038268631

  length of vectors
     7.696786404  7.696786404 26.131062567     0.150023716  0.150023716  0.038268631


 FORCES acting on ions
    electron-ion (+dipol)            ewald-force                    non-local-force                 convergence-correction
 -----------------------------------------------------------------------------------------------
   -.435E-04 -.939E-06 0.390E+04   0.581E-04 -.426E-05 -.390E+04   -.319E-17 -.292E-17 -.253E+01   -.364E-03 -.176E-03 0.197E-01
   -.989E+00 -.917E+00 0.390E+04   0.814E+00 0.628E+00 -.390E+04   0.123E+00 0.221E+00 -.180E+01   0.646E-01 0.797E-01 0.118E-01
   0.989E+00 -.917E+00 0.390E+04   -.814E+00 0.628E+00 -.390E+04   -.123E+00 0.221E+00 -.180E+01   -.637E-01 0.822E-01 0.128E-01
   -.129E+01 -.399E+00 0.390E+04   0.950E+00 0.391E+00 -.390E+04   0.253E+00 -.455E-02 -.180E+01   0.101E+00 0.160E-01 0.120E-01
   -.688E-04 -.763E-05 0.390E+04   0.116E-03 -.101E-04 -.390E+04   -.892E-18 -.102E-17 -.118E+01   0.121E-01 0.742E-02 0.832E-01
   0.129E+01 -.398E+00 0.390E+04   -.951E+00 0.391E+00 -.390E+04   -.253E+00 -.455E-02 -.180E+01   -.103E+00 0.171E-01 0.130E-01
   -.299E+00 0.132E+01 0.390E+04   0.137E+00 -.102E+01 -.390E+04   0.130E+00 -.217E+00 -.180E+01   0.393E-01 -.963E-01 0.131E-01
   0.299E+00 0.132E+01 0.390E+04   -.137E+00 -.102E+01 -.390E+04   -.130E+00 -.217E+00 -.180E+01   -.360E-01 -.977E-01 0.129E-01
   -.145E-03 -.336E-04 0.390E+04   0.263E-03 0.204E-04 -.390E+04   0.277E-17 0.681E-19 -.233E+01   -.131E-01 -.679E-02 0.137E-01
   -.549E+01 -.317E+01 0.133E+04   0.582E+01 0.336E+01 -.133E+04   -.432E+00 -.249E+00 -.983E+00   0.768E-01 0.447E-01 0.277E+00
   -.905E-04 -.638E+01 0.131E+04   0.190E-03 0.615E+01 -.131E+04   -.164E-07 0.247E+00 -.199E+00   0.120E-01 -.145E-01 0.308E+00
   0.549E+01 -.317E+01 0.133E+04   -.582E+01 0.336E+01 -.133E+04   0.432E+00 -.249E+00 -.983E+00   -.786E-01 0.450E-01 0.276E+00
   -.553E+01 0.319E+01 0.131E+04   0.532E+01 -.307E+01 -.131E+04   0.214E+00 -.123E+00 -.199E+00   -.635E-02 0.186E-01 0.308E+00
   0.553E+01 0.319E+01 0.131E+04   -.532E+01 -.307E+01 -.131E+04   -.214E+00 -.123E+00 -.199E+00   0.294E-01 0.167E-01 0.305E+00
   -.139E-03 -.205E+01 0.132E+04   0.296E-03 0.194E+01 -.132E+04   -.877E-08 0.132E+00 -.102E+01   -.292E-02 -.253E-01 0.233E+00
   -.920E-04 0.634E+01 0.133E+04   0.187E-03 -.672E+01 -.133E+04   -.332E-07 0.499E+00 -.983E+00   -.125E-02 -.918E-01 0.277E+00
   -.178E+01 0.103E+01 0.132E+04   0.168E+01 -.972E+00 -.132E+04   0.114E+00 -.658E-01 -.102E+01   -.226E-01 0.963E-02 0.232E+00
   0.178E+01 0.103E+01 0.132E+04   -.168E+01 -.972E+00 -.132E+04   -.114E+00 -.658E-01 -.102E+01   0.245E-01 0.122E-01 0.235E+00
   -.676E-04 -.820E+01 -.124E+04   0.722E-04 0.815E+01 0.124E+04   -.277E-08 0.416E-01 0.115E+01   0.901E-03 0.312E-01 0.711E-01
   -.607E+02 -.351E+02 -.132E+04   0.614E+02 0.355E+02 0.132E+04   -.945E+00 -.546E+00 -.405E+00   0.309E-01 0.187E-01 0.600E-01
   0.607E+02 -.351E+02 -.132E+04   -.614E+02 0.355E+02 0.132E+04   0.945E+00 -.546E+00 -.405E+00   -.515E-01 0.148E-01 0.586E-01
   -.315E+02 0.182E+02 -.126E+04   0.309E+02 -.178E+02 0.126E+04   0.509E+00 -.294E+00 0.731E+00   0.150E+00 -.736E-01 0.289E-01
   -.889E-04 0.701E+02 -.132E+04   0.152E-03 -.709E+02 0.132E+04   -.727E-07 0.109E+01 -.405E+00   -.143E-01 -.525E-01 0.585E-01
   0.315E+02 0.182E+02 -.126E+04   -.309E+02 -.178E+02 0.126E+04   -.509E+00 -.294E+00 0.731E+00   -.126E+00 -.746E-01 0.294E-01
   0.710E+01 0.410E+01 -.124E+04   -.706E+01 -.407E+01 0.124E+04   -.360E-01 -.208E-01 0.115E+01   -.278E-01 -.170E-01 0.713E-01
   -.710E+01 0.410E+01 -.124E+04   0.706E+01 -.407E+01 0.124E+04   0.360E-01 -.208E-01 0.115E+01   0.467E-02 -.151E-01 0.712E-01
   -.124E-03 -.364E+02 -.126E+04   0.239E-03 0.356E+02 0.126E+04   -.392E-07 0.588E+00 0.731E+00   0.127E-01 0.166E+00 0.291E-01
   -.442E-04 0.133E-04 -.374E+04   0.435E-04 -.316E-04 0.374E+04   0.304E-17 -.859E-18 0.188E+01   -.175E-02 -.122E-02 0.234E+00
   -.415E+02 -.770E+02 -.374E+04   0.418E+02 0.773E+02 0.374E+04   -.451E+00 -.560E+00 0.129E+01   0.855E-01 0.168E+00 0.285E+00
   0.415E+02 -.770E+02 -.374E+04   -.418E+02 0.773E+02 0.374E+04   0.451E+00 -.560E+00 0.129E+01   -.628E-01 0.168E+00 0.283E+00
   -.875E+02 0.256E+01 -.374E+04   0.879E+02 -.243E+01 0.374E+04   -.710E+00 -.110E+00 0.129E+01   0.188E+00 -.979E-02 0.284E+00
   0.875E+02 0.256E+01 -.374E+04   -.879E+02 -.243E+01 0.374E+04   0.710E+00 -.110E+00 0.129E+01   -.166E+00 -.923E-02 0.285E+00
   -.460E+02 0.745E+02 -.374E+04   0.461E+02 -.749E+02 0.374E+04   -.259E+00 0.670E+00 0.129E+01   0.115E+00 -.139E+00 0.283E+00
   0.460E+02 0.745E+02 -.374E+04   -.461E+02 -.749E+02 0.374E+04   0.259E+00 0.670E+00 0.129E+01   -.906E-01 -.139E+00 0.285E+00
   -.144E-03 -.232E-04 -.376E+04   0.250E-03 0.458E-06 0.376E+04   0.161E-17 0.401E-17 0.226E+01   -.137E-01 -.742E-02 0.285E+00
   -.285E-04 -.601E-05 -.161E+04   0.604E-04 0.127E-04 0.162E+04   0.174E-17 -.614E-18 -.208E+01   -.340E-03 -.122E-03 0.153E+00
   -.699E-05 -.729E-04 -.140E+04   0.864E-05 0.435E-05 0.138E+04   -.105E-18 -.117E-18 0.213E+02   0.734E-03 0.462E-03 -.278E-01
   0.228E-03 -.716E-04 -.219E+04   0.182E-05 0.196E-05 0.220E+04   -.206E-18 -.454E-18 -.350E+01   0.326E-02 0.200E-02 -.132E+00
   0.313E-05 -.143E-04 -.398E+03   0.548E-07 0.130E-06 0.406E+03   0.233E-19 0.490E-20 -.874E+01   0.171E-03 0.105E-03 -.225E-01
 -----------------------------------------------------------------------------------------------
   -.108E-03 -.190E-03 -.526E+01   -.385E-13 -.232E-13 0.273E-10   0.281E-15 0.336E-15 -.131E+00   0.694E-01 0.486E-01 0.532E+01
 
 
 POSITION                                       TOTAL-FORCE (eV/Angst)
 -----------------------------------------------------------------------------------
      0.00000      0.00000      5.37156         0.000000      0.000000     -0.032373
      2.56560      0.00000      5.37156         0.012058      0.013159      0.059819
      5.13119      0.00000      5.37156        -0.012058      0.013159      0.059819
      1.28280      2.22187      5.37156         0.017425      0.003863      0.059819
      3.84839      2.22187      5.37156         0.000000      0.000000      0.049679
      6.41399      2.22187      5.37156        -0.017425      0.003863      0.059819
      2.56560      4.44374      5.37156         0.005367     -0.017022      0.059819
      5.13119      4.44374      5.37156        -0.005367     -0.017022      0.059819
      7.69679      4.44374      5.37156         0.000000      0.000000      0.017858
      1.28280      0.74062      7.46636        -0.024847     -0.014345     -0.088942
      3.84839      0.74062      7.46636         0.000000     -0.011544     -0.051705
      6.41399      0.74062      7.46636         0.024847     -0.014345     -0.088942
      2.56560      2.96249      7.46636        -0.009998      0.005772     -0.051705
      5.13119      2.96249      7.46636         0.009998      0.005772     -0.051705
      7.69679      2.96249      7.46636         0.000000     -0.001726     -0.009339
      3.84839      5.18437      7.46636        -0.000000      0.028691     -0.088942
      6.41399      5.18437      7.46636        -0.001494      0.000863     -0.009339
      8.97958      5.18437      7.46636         0.001494      0.000863     -0.009339
      7.69679      1.48082      9.55187        -0.000000      0.014020      0.099236
      2.55960      1.47778      9.55047        -0.237013     -0.136839     -0.321727
      5.13719      1.47778      9.55047         0.237013     -0.136839     -0.321727
      8.97653      3.70488      9.56926         0.029386     -0.016966      0.052575
      3.84839      3.71005      9.55047        -0.000000      0.273679     -0.321727
      6.41705      3.70488      9.56926        -0.029386     -0.016966      0.052575
     10.26275      5.92520      9.55187        -0.012142     -0.007010      0.099236
      5.13082      5.92520      9.55187         0.012142     -0.007010      0.099236
      7.69679      5.92146      9.56926        -0.000000      0.033932      0.052575
      0.00000      0.00000     11.65662         0.000000      0.000000     -0.102705
      6.40243      6.64574     11.69071        -0.054615     -0.096865      0.020551
      8.99114      6.64574     11.69071         0.054615     -0.096865      0.020551
      8.95659      2.22180     11.69071        -0.111195      0.001134      0.020551
      6.43698      2.22180     11.69071         0.111195      0.001134      0.020551
     10.25095      4.46369     11.69071        -0.056580      0.095730      0.020551
      5.14262      4.46369     11.69071         0.056580      0.095730      0.020551
      7.69679      4.44374     11.67656        -0.000000      0.000000     -0.115514
      3.84839      2.22187     11.69355         0.000000      0.000000      0.666951
      3.84839      2.22187     13.63763         0.000000      0.000000      0.022691
      3.84839      2.22187     14.90697         0.000000      0.000000     -0.037222
      3.84839      2.22187     15.86217         0.000000      0.000000      0.008116
 -----------------------------------------------------------------------------------
    total drift:                                0.069331      0.048361     -0.073650


--------------------------------------------------------------------------------------------------------



  FREE ENERGIE OF THE ION-ELECTRON SYSTEM (eV)
  ---------------------------------------------------
  free  energy   TOTEN  =      -150.55605006 eV

  energy  without entropy=     -150.55605006  energy(sigma->0) =     -150.55605006
 


--------------------------------------------------------------------------------------------------------


    POTLOK:  cpu time    0.0335: real time    0.0335


--------------------------------------------------------------------------------------------------------


 stress matrix after NEB project (eV)
     -4.23495      0.00000     -0.00000
      0.00000     -4.23495      0.00000
      0.00000      0.00000      1.10623
  FORCES: max atom, RMS     0.037222    0.007101
  FORCE total and by dimension    0.044343    0.037222
  Stress total and by dimension    6.090425    4.234946
     LOOP+:  cpu time   79.9361: real time   79.9472
 -----------------------------------------------------------------------------
|                                                                             |
|           W    W    AA    RRRRR   N    N  II  N    N   GGGG   !!!           |
|           W    W   A  A   R    R  NN   N  II  NN   N  G    G  !!!           |
|           W    W  A    A  R    R  N N  N  II  N N  N  G       !!!           |
|           W WW W  AAAAAA  RRRRR   N  N N  II  N  N N  G  GGG   !            |
|           WW  WW  A    A  R   R   N   NN  II  N   NN  G    G                |
|           W    W  A    A  R    R  N    N  II  N    N   GGGG   !!!           |
|                                                                             |
|     Tetrahedron method does not include variations of the Fermi             |
|     occupations, so forces and stress will be inaccurate. We suggest        |
|     using a different smearing scheme ISMEAR = 1 or 2 for metals in         |
|     relaxations.                                                            |
|                                                                             |
 -----------------------------------------------------------------------------

    4ORBIT:  cpu time    0.0000: real time    0.0000



 total charge

# of ion       s       p       d       tot
------------------------------------------
    1        0.449   0.283   9.191   9.922
    2        0.447   0.286   9.187   9.920
    3        0.447   0.286   9.187   9.920
    4        0.447   0.286   9.187   9.920
    5        0.451   0.286   9.182   9.919
    6        0.447   0.286   9.187   9.920
    7        0.447   0.286   9.187   9.920
    8        0.447   0.286   9.187   9.920
    9        0.448   0.284   9.190   9.922
   10        0.443   0.371   9.176   9.991
   11        0.445   0.365   9.182   9.991
   12        0.443   0.371   9.176   9.991
   13        0.445   0.365   9.182   9.991
   14        0.445   0.365   9.182   9.991
   15        0.438   0.371   9.176   9.985
   16        0.443   0.371   9.176   9.991
   17        0.438   0.371   9.176   9.985
   18        0.438   0.371   9.176   9.985
   19        0.441   0.368   9.178   9.987
   20        0.465   0.394   9.163  10.023
   21        0.465   0.394   9.163  10.023
   22        0.429   0.371   9.180   9.980
   23        0.465   0.394   9.163  10.023
   24        0.429   0.371   9.180   9.980
   25        0.441   0.368   9.178   9.987
   26        0.441   0.368   9.178   9.987
   27        0.429   0.371   9.180   9.980
   28        0.446   0.294   9.185   9.925
   29        0.474   0.314   9.167   9.955
   30        0.474   0.314   9.167   9.955
   31        0.474   0.314   9.167   9.955
   32        0.474   0.314   9.167   9.955
   33        0.474   0.314   9.167   9.955
   34        0.474   0.314   9.167   9.955
   35        0.446   0.295   9.184   9.925
   36        0.728   0.821   3.508   5.057
   37        0.930   1.419   0.000   2.349
   38        1.520   3.761   0.000   5.281
   39        0.569   0.139   0.000   0.707
--------------------------------------------------
tot         19.494  17.900 324.731 362.125
 
 BZINTS: Fermi energy:   -0.150179;  401.000000 electrons
         Band energy:-0.129883E+04;  BLOECHL correction:   -0.043540

 total amount of memory used by VASP MPI-rank0   117992. kBytes
=======================================================================

   base      :      30000. kBytes
   nonlr-proj:      17785. kBytes
   fftplans  :       3497. kBytes
   grid      :      16027. kBytes
   one-center:        606. kBytes
   wavefun   :      50077. kBytes
 
  
  
 General timing and accounting informations for this job:
 ========================================================
  
                  Total CPU time used (sec):       86.835
                            User time (sec):       83.704
                          System time (sec):        3.131
                         Elapsed time (sec):       87.356
  
                   Maximum memory used (kb):      369156.
                   Average memory used (kb):          N/A
  
                          Minor page faults:        77647
                          Major page faults:            0
                 Voluntary context switches:         5911
