PROCAR new format
# of k-points:   10         # of bands:  252         # of ions:   39

 k-point     1 :    0.00000000 0.00000000 0.00000000     weight = 0.01562500

band     1 # energy  -24.09162957 # occ.  2.00000000
 
ion      s      p      d    tot
    1  0.000  0.000  0.000  0.000
    2  0.000  0.000  0.000  0.000
    3  0.000  0.000  0.000  0.000
    4  0.000  0.000  0.000  0.000
    5  0.000  0.000  0.000  0.000
    6  0.000  0.000  0.000  0.000
    7  0.000  0.000  0.000  0.000
    8  0.000  0.000  0.000  0.000
    9  0.000  0.000  0.000  0.000
   10  0.000  0.000  0.000  0.000
   11  0.000  0.000  0.000  0.000
   12  0.000  0.000  0.000  0.000
   13  0.000  0.000  0.000  0.000
   14  0.000  0.000  0.000  0.000
   15  0.000  0.000  0.000  0.000
   16  0.000  0.000  0.000  0.000
   17  0.000  0.000  0.000  0.000
   18  0.000  0.000  0.000  0.000
   19  0.000  0.000  0.000  0.000
   20  0.000  0.000  0.000  0.000
   21  0.000  0.000  0.000  0.000
   22  0.000  0.000  0.000  0.000
   23  0.000  0.000  0.000  0.000
   24  0.000  0.000  0.000  0.000
   25  0.000  0.000  0.000  0.000
   26  0.000  0.000  0.000  0.000
   27  0.000  0.000  0.000  0.000
   28  0.000  0.000  0.000  0.000
   29  0.000  0.000  0.000  0.000
   30  0.000  0.000  0.000  0.000
   31  0.000  0.000  0.000  0.000
   32  0.000  0.000  0.000  0.000
   33  0.000  0.000  0.000  0.000
   34  0.000  0.000  0.000  0.000
   35  0.000  0.000  0.000  0.000
   36  0.000  0.000  0.000  0.000
   37  0.073  0.054  0.000  0.127
   38  0.728  0.005  0.000  0.733
   39  0.066  0.014  0.000  0.080
tot    0.866  0.073  0.000  0.940
 
band     2 # energy  -14.83147779 # occ.  2.00000000
 
ion      s      p      d    tot
    1  0.000  0.000  0.000  0.000
    2  0.000  0.000  0.000  0.000
    3  0.000  0.000  0.000  0.000
    4  0.000  0.000  0.000  0.000
    5  0.000  0.000  0.000  0.000
    6  0.000  0.000  0.000  0.000
    7  0.000  0.000  0.000  0.000
    8  0.000  0.000  0.000  0.000
    9  0.000  0.000  0.000  0.000
   10  0.000  0.000  0.000  0.000
   11  0.000  0.000  0.000  0.000
   12  0.000  0.000  0.000  0.000
   13  0.000  0.000  0.000  0.000
   14  0.000  0.000  0.000  0.000
   15  0.000  0.000  0.000  0.000
   16  0.000  0.000  0.000  0.000
   17  0.000  0.000  0.000  0.000
   18  0.000  0.000  0.000  0.000
   19  0.000  0.000  0.000  0.000
   20  0.000  0.000  0.000  0.000
   21  0.000  0.000  0.000  0.000
   22  0.000  0.000  0.000  0.000
   23  0.000  0.000  0.000  0.000
   24  0.000  0.000  0.000  0.000
   25  0.000  0.000  0.000  0.000
   26  0.000  0.000  0.000  0.000
   27  0.000  0.000  0.000  0.000
   28  0.000  0.000  0.000  0.000
   29  0.000  0.000  0.000  0.000
   30  0.000  0.000  0.000  0.000
   31  0.000  0.000  0.000  0.000
   32  0.000  0.000  0.000  0.000
   33  0.000  0.000  0.000  0.000
   34  0.000  0.000  0.000  0.000
   35  0.000  0.000  0.000  0.000
   36  0.002  0.002  0.003  0.007
   37  0.156  0.053  0.000  0.209
   38  0.014  0.526  0.000  0.539
   39  0.202  0.032  0.000  0.234
tot    0.374  0.612  0.003  0.990
 
band     3 # energy   -9.01622333 # occ.  2.00000000
 
ion      s      p      d    tot
    1  0.006  0.001  0.000  0.006
    2  0.006  0.001  0.000  0.006
    3  0.006  0.001  0.000  0.006
    4  0.006  0.001  0.000  0.006
    5  0.006  0.001  0.000  0.006
    6  0.006  0.001  0.000  0.006
    7  0.006  0.001  0.000  0.006
    8  0.006  0.001  0.000  0.006
    9  0.006  0.001  0.000  0.006
   10  0.022  0.000  0.000  0.023
   11  0.022  0.000  0.000  0.023
   12  0.022  0.000  0.000  0.023
   13  0.022  0.000  0.000  0.023
   14  0.022  0.000  0.000  0.023
   15  0.022  0.000  0.000  0.022
   16  0.022  0.000  0.000  0.023
   17  0.022  0.000  0.000  0.022
   18  0.022  0.000  0.000  0.022
   19  0.024  0.000  0.000  0.024
   20  0.027  0.000  0.000  0.027
   21  0.027  0.000  0.000  0.027
   22  0.024  0.000  0.000  0.024
   23  0.027  0.000  0.000  0.027
   24  0.024  0.000  0.000  0.024
   25  0.024  0.000  0.000  0.024
   26  0.024  0.000  0.000  0.024
   27  0.024  0.000  0.000  0.024
   28  0.008  0.001  0.000  0.008
   29  0.008  0.001  0.000  0.009
   30  0.008  0.001  0.000  0.009
   31  0.008  0.001  0.000  0.009
   32  0.008  0.001  0.000  0.009
   33  0.008  0.001  0.000  0.009
   34  0.008  0.001  0.000  0.009
   35  0.007  0.001  0.000  0.008
   36  0.028  0.000  0.002  0.031
   37  0.003  0.004  0.000  0.007
   38  0.000  0.001  0.000  0.002
   39  0.000  0.000  0.000  0.000
tot    0.572  0.019  0.003  0.594
 
band     4 # energy   -7.87479859 # occ.  2.00000000
 
ion      s      p      d    tot
    1  0.015  0.001  0.000  0.016
    2  0.014  0.001  0.000  0.016
    3  0.014  0.001  0.000  0.016
    4  0.014  0.001  0.000  0.016
    5  0.014  0.001  0.000  0.015
    6  0.014  0.001  0.000  0.016
    7  0.014  0.001  0.000  0.016
    8  0.014  0.001  0.000  0.016
    9  0.015  0.001  0.000  0.016
   10  0.012  0.001  0.000  0.014
   11  0.011  0.001  0.001  0.013
   12  0.012  0.001  0.000  0.014
   13  0.011  0.001  0.001  0.013
   14  0.011  0.001  0.001  0.013
   15  0.013  0.001  0.000  0.014
   16  0.012  0.001  0.000  0.014
   17  0.013  0.001  0.000  0.014
   18  0.013  0.001  0.000  0.014
   19  0.003  0.002  0.000  0.005
   20  0.007  0.003  0.001  0.011
   21  0.007  0.003  0.001  0.011
   22  0.003  0.002  0.000  0.006
   23  0.007  0.003  0.001  0.011
   24  0.003  0.002  0.000  0.006
   25  0.003  0.002  0.000  0.005
   26  0.003  0.002  0.000  0.005
   27  0.003  0.002  0.000  0.006
   28  0.011  0.000  0.001  0.012
   29  0.015  0.000  0.001  0.016
   30  0.015  0.000  0.001  0.016
   31  0.015  0.000  0.001  0.016
   32  0.015  0.000  0.001  0.016
   33  0.015  0.000  0.001  0.016
   34  0.015  0.000  0.001  0.016
   35  0.011  0.000  0.001  0.012
   36  0.098  0.004  0.017  0.119
   37  0.033  0.031  0.000  0.063
   38  0.003  0.010  0.000  0.013
   39  0.003  0.000  0.000  0.003
tot    0.529  0.088  0.033  0.650
 
band     5 # energy   -7.07201842 # occ.  2.00000000
 
ion      s      p      d    tot
    1  0.005  0.000  0.000  0.005
    2  0.005  0.000  0.000  0.005
    3  0.005  0.000  0.000  0.005
    4  0.005  0.000  0.000  0.005
    5  0.006  0.000  0.000  0.007
    6  0.005  0.000  0.000  0.005
    7  0.005  0.000  0.000  0.005
    8  0.005  0.000  0.000  0.005
    9  0.004  0.000  0.000  0.004
   10  0.000  0.001  0.000  0.002
   11  0.001  0.001  0.000  0.002
   12  0.000  0.001  0.000  0.002
   13  0.001  0.001  0.000  0.002
   14  0.001  0.001  0.000  0.002
   15  0.000  0.001  0.000  0.002
   16  0.000  0.001  0.000  0.002
   17  0.000  0.001  0.000  0.002
   18  0.000  0.001  0.000  0.002
   19  0.012  0.000  0.001  0.014
   20  0.000  0.003  0.005  0.008
   21  0.000  0.003  0.005  0.008
   22  0.010  0.001  0.001  0.012
   23  0.000  0.003  0.005  0.008
   24  0.010  0.001  0.001  0.012
   25  0.012  0.000  0.001  0.014
   26  0.012  0.000  0.001  0.014
   27  0.010  0.001  0.001  0.012
   28  0.009  0.001  0.000  0.010
   29  0.002  0.002  0.001  0.004
   30  0.002  0.002  0.001  0.004
   31  0.002  0.002  0.001  0.004
   32  0.002  0.002  0.001  0.004
   33  0.002  0.002  0.001  0.004
   34  0.002  0.002  0.001  0.004
   35  0.009  0.001  0.000  0.010
   36  0.091  0.046  0.158  0.294
   37  0.143  0.117  0.000  0.261
   38  0.011  0.034  0.000  0.045
   39  0.010  0.001  0.000  0.011
tot    0.402  0.231  0.187  0.820
 
band     6 # energy   -6.83398548 # occ.  2.00000000
 
ion      s      p      d    tot
    1  0.000  0.000  0.000  0.000
    2  0.000  0.000  0.000  0.000
    3  0.000  0.000  0.000  0.000
    4  0.000  0.000  0.000  0.000
    5  0.000  0.000  0.000  0.000
    6  0.000  0.000  0.000  0.000
    7  0.000  0.000  0.000  0.000
    8  0.000  0.000  0.000  0.000
    9  0.000  0.000  0.000  0.000
   10  0.000  0.000  0.000  0.000
   11  0.000  0.000  0.000  0.000
   12  0.000  0.000  0.000  0.000
   13  0.000  0.000  0.000  0.000
   14  0.000  0.000  0.000  0.000
   15  0.000  0.000  0.000  0.000
   16  0.000  0.000  0.000  0.000
   17  0.000  0.000  0.000  0.000
   18  0.000  0.000  0.000  0.000
   19  0.000  0.000  0.000  0.000
   20  0.000  0.000  0.000  0.000
   21  0.000  0.000  0.000  0.000
   22  0.000  0.000  0.000  0.000
   23  0.000  0.000  0.000  0.000
   24  0.000  0.000  0.000  0.000
   25  0.000  0.000  0.000  0.000
   26  0.000  0.000  0.000  0.000
   27  0.000  0.000  0.000  0.000
   28  0.000  0.000  0.000  0.000
   29  0.000  0.000  0.000  0.001
   30  0.000  0.000  0.000  0.000
   31  0.000  0.000  0.000  0.001
   32  0.000  0.000  0.000  0.001
   33  0.000  0.000  0.000  0.000
   34  0.000  0.000  0.000  0.001
   35  0.000  0.000  0.000  0.000
   36  0.000  0.002  0.011  0.013
   37  0.000  0.104  0.000  0.104
   38  0.000  0.552  0.000  0.552
   39  0.000  0.008  0.000  0.008
tot    0.001  0.667  0.013  0.681
 
band     7 # energy   -6.83388786 # occ.  2.00000000
 
ion      s      p      d    tot
    1  0.000  0.000  0.000  0.000
    2  0.000  0.000  0.000  0.000
    3  0.000  0.000  0.000  0.000
    4  0.000  0.000  0.000  0.000
    5  0.000  0.000  0.000  0.000
    6  0.000  0.000  0.000  0.000
    7  0.000  0.000  0.000  0.000
    8  0.000  0.000  0.000  0.000
    9  0.000  0.000  0.000  0.000
   10  0.000  0.000  0.000  0.000
   11  0.000  0.000  0.000  0.000
   12  0.000  0.000  0.000  0.000
   13  0.000  0.000  0.000  0.000
   14  0.000  0.000  0.000  0.000
   15  0.000  0.000  0.000  0.000
   16  0.000  0.000  0.000  0.000
   17  0.000  0.000  0.000  0.000
   18  0.000  0.000  0.000  0.000
   19  0.000  0.000  0.000  0.000
   20  0.000  0.000  0.000  0.000
   21  0.000  0.000  0.000  0.000
   22  0.000  0.000  0.000  0.000
   23  0.000  0.000  0.000  0.000
   24  0.000  0.000  0.000  0.000
   25  0.000  0.000  0.000  0.000
   26  0.000  0.000  0.000  0.000
   27  0.000  0.000  0.000  0.000
   28  0.000  0.000  0.000  0.000
   29  0.000  0.000  0.000  0.000
   30  0.000  0.000  0.000  0.001
   31  0.000  0.000  0.000  0.000
   32  0.000  0.000  0.000  0.000
   33  0.000  0.000  0.000  0.001
   34  0.000  0.000  0.000  0.000
   35  0.000  0.000  0.000  0.000
   36  0.000  0.002  0.011  0.013
   37  0.000  0.104  0.000  0.104
   38  0.000  0.552  0.000  0.552
   39  0.000  0.008  0.000  0.008
tot    0.001  0.667  0.013  0.681
 
band     8 # energy   -6.13080711 # occ.  2.00000000
 
ion      s      p      d    tot
    1  0.015  0.000  0.005  0.020
    2  0.014  0.000  0.005  0.019
    3  0.014  0.000  0.005  0.019
    4  0.014  0.000  0.005  0.019
    5  0.007  0.000  0.006  0.013
    6  0.014  0.000  0.005  0.019
    7  0.014  0.000  0.005  0.019
    8  0.014  0.000  0.005  0.019
    9  0.023  0.000  0.003  0.026
   10  0.003  0.003  0.002  0.008
   11  0.009  0.005  0.001  0.015
   12  0.003  0.003  0.002  0.008
   13  0.009  0.005  0.001  0.015
   14  0.009  0.005  0.001  0.015
   15  0.000  0.003  0.003  0.005
   16  0.003  0.003  0.002  0.008
   17  0.000  0.003  0.003  0.005
   18  0.000  0.003  0.003  0.005
   19  0.002  0.003  0.005  0.010
   20  0.019  0.004  0.004  0.028
   21  0.019  0.004  0.004  0.028
   22  0.001  0.003  0.004  0.008
   23  0.019  0.004  0.004  0.028
   24  0.001  0.003  0.004  0.008
   25  0.002  0.003  0.005  0.010
   26  0.002  0.003  0.005  0.010
   27  0.001  0.003  0.004  0.008
   28  0.020  0.000  0.006  0.026
   29  0.017  0.000  0.008  0.025
   30  0.017  0.000  0.008  0.025
   31  0.017  0.000  0.008  0.025
   32  0.017  0.000  0.008  0.025
   33  0.017  0.000  0.008  0.025
   34  0.017  0.000  0.008  0.025
   35  0.026  0.000  0.006  0.032
   36  0.004  0.001  0.032  0.037
   37  0.001  0.001  0.000  0.002
   38  0.000  0.000  0.000  0.000
   39  0.000  0.000  0.000  0.000
tot    0.384  0.067  0.194  0.645
 
band     9 # energy   -6.01412662 # occ.  2.00000000
 
ion      s      p      d    tot
    1  0.000  0.003  0.005  0.008
    2  0.008  0.002  0.002  0.013
    3  0.005  0.002  0.002  0.008
    4  0.008  0.002  0.002  0.012
    5  0.000  0.002  0.003  0.004
    6  0.004  0.001  0.002  0.008
    7  0.001  0.001  0.002  0.003
    8  0.000  0.001  0.002  0.003
    9  0.000  0.000  0.003  0.003
   10  0.054  0.004  0.005  0.062
   11  0.001  0.012  0.003  0.016
   12  0.030  0.003  0.008  0.042
   13  0.009  0.006  0.004  0.020
   14  0.016  0.001  0.006  0.023
   15  0.001  0.003  0.010  0.014
   16  0.003  0.003  0.013  0.019
   17  0.006  0.003  0.006  0.015
   18  0.010  0.003  0.003  0.017
   19  0.002  0.012  0.004  0.018
   20  0.056  0.004  0.006  0.066
   21  0.032  0.003  0.012  0.046
   22  0.001  0.005  0.005  0.011
   23  0.003  0.001  0.019  0.023
   24  0.002  0.002  0.004  0.008
   25  0.035  0.002  0.007  0.043
   26  0.020  0.006  0.005  0.031
   27  0.000  0.007  0.007  0.014
   28  0.000  0.003  0.004  0.008
   29  0.012  0.003  0.003  0.018
   30  0.010  0.002  0.003  0.015
   31  0.008  0.002  0.004  0.014
   32  0.003  0.001  0.004  0.008
   33  0.003  0.001  0.003  0.008
   34  0.000  0.001  0.003  0.004
   35  0.000  0.000  0.003  0.003
   36  0.000  0.005  0.014  0.019
   37  0.000  0.000  0.000  0.000
   38  0.000  0.000  0.000  0.000
   39  0.000  0.000  0.000  0.000
tot    0.344  0.115  0.190  0.648
 
band    10 # energy   -6.01405164 # occ.  2.00000000
 
ion      s      p      d    tot
    1  0.000  0.003  0.005  0.008
    2  0.000  0.001  0.002  0.003
    3  0.004  0.001  0.002  0.007
    4  0.001  0.001  0.002  0.004
    5  0.000  0.002  0.003  0.004
    6  0.005  0.001  0.002  0.008
    7  0.008  0.002  0.002  0.012
    8  0.009  0.002  0.002  0.013
    9  0.000  0.000  0.003  0.003
   10  0.005  0.003  0.013  0.020
   11  0.017  0.001  0.006  0.023
   12  0.028  0.003  0.009  0.040
   13  0.008  0.007  0.004  0.019
   14  0.001  0.012  0.003  0.016
   15  0.011  0.003  0.003  0.017
   16  0.055  0.004  0.005  0.063
   17  0.005  0.003  0.007  0.015
   18  0.001  0.003  0.010  0.014
   19  0.036  0.001  0.007  0.044
   20  0.005  0.001  0.018  0.024
   21  0.029  0.002  0.013  0.044
   22  0.001  0.005  0.005  0.011
   23  0.058  0.004  0.006  0.068
   24  0.000  0.007  0.007  0.014
   25  0.003  0.012  0.004  0.019
   26  0.018  0.007  0.005  0.030
   27  0.002  0.002  0.004  0.008
   28  0.000  0.003  0.004  0.008
   29  0.000  0.001  0.003  0.004
   30  0.002  0.001  0.003  0.007
   31  0.004  0.001  0.003  0.008
   32  0.009  0.002  0.003  0.015
   33  0.009  0.003  0.004  0.015
   34  0.012  0.003  0.003  0.018
   35  0.000  0.000  0.003  0.003
   36  0.000  0.005  0.014  0.019
   37  0.000  0.000  0.000  0.000
   38  0.000  0.000  0.000  0.000
   39  0.000  0.000  0.000  0.000
tot    0.344  0.115  0.190  0.648
 
band    11 # energy   -5.96887680 # occ.  2.00000000
 
ion      s      p      d    tot
    1  0.000  0.000  0.002  0.002
    2  0.009  0.002  0.002  0.014
    3  0.003  0.001  0.002  0.007
    4  0.009  0.002  0.002  0.014
    5  0.000  0.001  0.005  0.006
    6  0.002  0.001  0.002  0.005
    7  0.003  0.001  0.002  0.006
    8  0.001  0.001  0.002  0.005
    9  0.000  0.003  0.004  0.007
   10  0.000  0.010  0.004  0.014
   11  0.033  0.004  0.005  0.042
   12  0.000  0.004  0.005  0.008
   13  0.030  0.003  0.006  0.040
   14  0.000  0.000  0.016  0.016
   15  0.035  0.003  0.006  0.044
   16  0.000  0.003  0.005  0.008
   17  0.033  0.004  0.006  0.042
   18  0.000  0.010  0.006  0.016
   19  0.021  0.004  0.005  0.030
   20  0.000  0.014  0.001  0.015
   21  0.006  0.004  0.005  0.015
   22  0.044  0.004  0.006  0.055
   23  0.006  0.003  0.006  0.015
   24  0.000  0.006  0.011  0.017
   25  0.000  0.001  0.015  0.017
   26  0.019  0.003  0.006  0.028
   27  0.048  0.004  0.006  0.058
   28  0.000  0.001  0.005  0.006
   29  0.012  0.003  0.003  0.018
   30  0.005  0.002  0.004  0.011
   31  0.012  0.003  0.003  0.018
   32  0.002  0.001  0.003  0.006
   33  0.004  0.002  0.004  0.010
   34  0.002  0.001  0.003  0.006
   35  0.000  0.004  0.006  0.010
   36  0.000  0.003  0.008  0.011
   37  0.000  0.000  0.000  0.000
   38  0.000  0.000  0.000  0.000
   39  0.000  0.000  0.000  0.000
tot    0.342  0.117  0.181  0.640
 
band    12 # energy   -5.96882097 # occ.  2.00000000
 
ion      s      p      d    tot
    1  0.000  0.000  0.002  0.002
    2  0.000  0.001  0.002  0.003
    3  0.006  0.002  0.002  0.010
    4  0.000  0.001  0.002  0.003
    5  0.000  0.001  0.005  0.006
    6  0.007  0.002  0.002  0.011
    7  0.007  0.002  0.002  0.011
    8  0.008  0.002  0.002  0.012
    9  0.000  0.003  0.004  0.007
   10  0.000  0.001  0.005  0.006
   11  0.009  0.001  0.013  0.023
   12  0.000  0.007  0.004  0.012
   13  0.012  0.001  0.012  0.025
   14  0.042  0.005  0.002  0.049
   15  0.010  0.008  0.006  0.024
   16  0.000  0.008  0.004  0.012
   17  0.013  0.007  0.006  0.026
   18  0.046  0.002  0.006  0.053
   19  0.006  0.002  0.012  0.020
   20  0.008  0.000  0.007  0.015
   21  0.002  0.010  0.003  0.015
   22  0.017  0.005  0.009  0.032
   23  0.002  0.011  0.002  0.015
   24  0.061  0.003  0.005  0.069
   25  0.027  0.004  0.002  0.033
   26  0.008  0.002  0.012  0.021
   27  0.014  0.005  0.010  0.029
   28  0.000  0.001  0.005  0.006
   29  0.000  0.001  0.004  0.005
   30  0.007  0.002  0.003  0.012
   31  0.000  0.001  0.004  0.005
   32  0.011  0.003  0.003  0.017
   33  0.008  0.002  0.003  0.013
   34  0.011  0.003  0.003  0.017
   35  0.000  0.004  0.006  0.010
   36  0.000  0.003  0.008  0.011
   37  0.000  0.000  0.000  0.000
   38  0.000  0.000  0.000  0.000
   39  0.000  0.000  0.000  0.000
tot    0.342  0.117  0.181  0.640
 
band    13 # energy   -5.96416220 # occ.  2.00000000
 
ion      s      p      d    tot
    1  0.021  0.003  0.001  0.026
    2  0.000  0.002  0.004  0.006
    3  0.000  0.002  0.004  0.006
    4  0.000  0.002  0.004  0.006
    5  0.002  0.000  0.001  0.003
    6  0.000  0.002  0.004  0.006
    7  0.000  0.002  0.004  0.006
    8  0.000  0.002  0.004  0.006
    9  0.008  0.001  0.000  0.009
   10  0.030  0.006  0.005  0.041
   11  0.007  0.000  0.011  0.018
   12  0.030  0.006  0.005  0.041
   13  0.007  0.000  0.011  0.018
   14  0.007  0.000  0.011  0.019
   15  0.010  0.007  0.004  0.021
   16  0.030  0.006  0.005  0.041
   17  0.010  0.007  0.004  0.021
   18  0.010  0.007  0.004  0.021
   19  0.023  0.009  0.002  0.034
   20  0.000  0.003  0.011  0.014
   21  0.000  0.003  0.011  0.014
   22  0.023  0.002  0.009  0.034
   23  0.000  0.003  0.011  0.014
   24  0.023  0.002  0.009  0.034
   25  0.024  0.009  0.002  0.035
   26  0.023  0.009  0.002  0.035
   27  0.023  0.002  0.009  0.034
   28  0.020  0.003  0.000  0.023
   29  0.000  0.002  0.005  0.006
   30  0.000  0.002  0.005  0.006
   31  0.000  0.002  0.005  0.006
   32  0.000  0.002  0.005  0.006
   33  0.000  0.002  0.005  0.006
   34  0.000  0.002  0.005  0.006
   35  0.012  0.002  0.001  0.015
   36  0.000  0.000  0.000  0.001
   37  0.000  0.000  0.000  0.000
   38  0.000  0.000  0.000  0.000
   39  0.000  0.000  0.000  0.000
tot    0.343  0.114  0.183  0.640
 
band    14 # energy   -5.83825711 # occ.  2.00000000
 
ion      s      p      d    tot
    1  0.000  0.000  0.000  0.001
    2  0.001  0.002  0.006  0.009
    3  0.001  0.002  0.006  0.009
    4  0.001  0.002  0.006  0.009
    5  0.035  0.003  0.000  0.039
    6  0.001  0.002  0.006  0.009
    7  0.001  0.002  0.006  0.009
    8  0.001  0.002  0.006  0.009
    9  0.007  0.003  0.003  0.013
   10  0.002  0.004  0.010  0.015
   11  0.021  0.009  0.003  0.034
   12  0.002  0.004  0.010  0.015
   13  0.021  0.010  0.003  0.034
   14  0.021  0.009  0.003  0.034
   15  0.029  0.002  0.011  0.042
   16  0.002  0.004  0.010  0.015
   17  0.029  0.002  0.011  0.042
   18  0.029  0.002  0.011  0.042
   19  0.005  0.001  0.008  0.014
   20  0.016  0.003  0.009  0.028
   21  0.016  0.003  0.009  0.028
   22  0.008  0.006  0.004  0.018
   23  0.016  0.003  0.009  0.028
   24  0.008  0.006  0.004  0.018
   25  0.005  0.001  0.008  0.014
   26  0.005  0.001  0.008  0.014
   27  0.008  0.006  0.004  0.018
   28  0.001  0.000  0.002  0.004
   29  0.002  0.001  0.004  0.007
   30  0.002  0.001  0.004  0.007
   31  0.002  0.001  0.004  0.007
   32  0.002  0.001  0.004  0.007
   33  0.002  0.001  0.004  0.007
   34  0.002  0.001  0.004  0.007
   35  0.000  0.001  0.002  0.002
   36  0.003  0.018  0.022  0.042
   37  0.016  0.011  0.000  0.027
   38  0.001  0.003  0.000  0.004
   39  0.001  0.000  0.000  0.001
tot    0.324  0.131  0.222  0.677
 
band    15 # energy   -5.27843676 # occ.  2.00000000
 
ion      s      p      d    tot
    1  0.000  0.003  0.009  0.013
    2  0.019  0.004  0.005  0.027
    3  0.000  0.001  0.005  0.006
    4  0.014  0.003  0.005  0.022
    5  0.000  0.000  0.009  0.010
    6  0.007  0.002  0.005  0.014
    7  0.003  0.002  0.004  0.009
    8  0.014  0.003  0.005  0.022
    9  0.000  0.005  0.008  0.013
   10  0.000  0.005  0.015  0.020
   11  0.003  0.002  0.010  0.015
   12  0.007  0.001  0.007  0.015
   13  0.005  0.002  0.007  0.015
   14  0.000  0.002  0.014  0.016
   15  0.015  0.003  0.011  0.029
   16  0.004  0.002  0.010  0.017
   17  0.024  0.004  0.006  0.034
   18  0.001  0.001  0.020  0.022
   19  0.005  0.003  0.010  0.019
   20  0.000  0.002  0.020  0.023
   21  0.000  0.001  0.012  0.013
   22  0.009  0.003  0.005  0.017
   23  0.000  0.001  0.015  0.017
   24  0.000  0.001  0.027  0.029
   25  0.000  0.000  0.011  0.012
   26  0.009  0.005  0.009  0.023
   27  0.005  0.003  0.014  0.022
   28  0.000  0.004  0.009  0.013
   29  0.027  0.003  0.010  0.039
   30  0.000  0.002  0.010  0.012
   31  0.019  0.003  0.010  0.032
   32  0.012  0.002  0.010  0.024
   33  0.003  0.002  0.010  0.015
   34  0.022  0.002  0.010  0.034
   35  0.000  0.006  0.009  0.015
   36  0.000  0.000  0.030  0.031
   37  0.000  0.000  0.000  0.000
   38  0.000  0.000  0.000  0.000
   39  0.000  0.000  0.000  0.000
tot    0.231  0.091  0.386  0.708
 
band    16 # energy   -5.27839533 # occ.  2.00000000
 
ion      s      p      d    tot
    1  0.000  0.003  0.009  0.013
    2  0.000  0.001  0.005  0.006
    3  0.019  0.004  0.005  0.028
    4  0.005  0.002  0.005  0.012
    5  0.000  0.000  0.009  0.010
    6  0.012  0.003  0.005  0.020
    7  0.016  0.003  0.005  0.025
    8  0.005  0.002  0.004  0.011
    9  0.000  0.005  0.008  0.013
   10  0.008  0.001  0.007  0.015
   11  0.003  0.002  0.011  0.016
   12  0.001  0.004  0.014  0.019
   13  0.001  0.002  0.014  0.016
   14  0.006  0.002  0.007  0.015
   15  0.012  0.002  0.013  0.028
   16  0.003  0.003  0.011  0.018
   17  0.003  0.001  0.019  0.023
   18  0.026  0.004  0.005  0.035
   19  0.004  0.003  0.010  0.017
   20  0.000  0.001  0.011  0.012
   21  0.000  0.002  0.020  0.022
   22  0.001  0.002  0.025  0.028
   23  0.000  0.002  0.017  0.018
   24  0.009  0.004  0.004  0.017
   25  0.009  0.006  0.009  0.024
   26  0.001  0.001  0.011  0.013
   27  0.004  0.002  0.017  0.023
   28  0.000  0.004  0.009  0.013
   29  0.001  0.002  0.010  0.013
   30  0.028  0.003  0.010  0.040
   31  0.008  0.002  0.010  0.020
   32  0.016  0.003  0.010  0.028
   33  0.025  0.003  0.010  0.037
   34  0.005  0.003  0.010  0.018
   35  0.000  0.006  0.009  0.015
   36  0.000  0.000  0.030  0.031
   37  0.000  0.000  0.000  0.000
   38  0.000  0.000  0.000  0.000
   39  0.000  0.000  0.000  0.000
tot    0.231  0.091  0.386  0.708
 
band    17 # energy   -5.26925386 # occ.  2.00000000
 
ion      s      p      d    tot
    1  0.003  0.001  0.011  0.015
    2  0.006  0.001  0.010  0.017
    3  0.006  0.001  0.010  0.017
    4  0.006  0.001  0.010  0.017
    5  0.003  0.001  0.010  0.014
    6  0.006  0.001  0.010  0.017
    7  0.006  0.001  0.010  0.017
    8  0.006  0.001  0.010  0.017
    9  0.014  0.000  0.009  0.023
   10  0.010  0.000  0.025  0.035
   11  0.009  0.000  0.022  0.031
   12  0.010  0.000  0.025  0.035
   13  0.009  0.000  0.022  0.031
   14  0.008  0.000  0.022  0.031
   15  0.004  0.000  0.023  0.027
   16  0.010  0.000  0.025  0.035
   17  0.004  0.000  0.023  0.027
   18  0.004  0.000  0.023  0.027
   19  0.006  0.000  0.019  0.026
   20  0.007  0.000  0.029  0.037
   21  0.007  0.000  0.029  0.037
   22  0.003  0.000  0.017  0.020
   23  0.007  0.000  0.029  0.037
   24  0.003  0.000  0.017  0.020
   25  0.006  0.000  0.019  0.026
   26  0.006  0.000  0.019  0.026
   27  0.003  0.000  0.017  0.020
   28  0.001  0.001  0.006  0.007
   29  0.003  0.000  0.008  0.011
   30  0.003  0.000  0.008  0.011
   31  0.003  0.000  0.008  0.011
   32  0.003  0.000  0.008  0.011
   33  0.003  0.000  0.008  0.011
   34  0.003  0.000  0.008  0.011
   35  0.006  0.000  0.005  0.012
   36  0.003  0.002  0.012  0.017
   37  0.000  0.000  0.000  0.000
   38  0.000  0.000  0.000  0.000
   39  0.000  0.000  0.000  0.000
tot    0.205  0.014  0.564  0.782
 
band    18 # energy   -5.22403120 # occ.  2.00000000
 
ion      s      p      d    tot
    1  0.000  0.003  0.009  0.012
    2  0.020  0.004  0.005  0.029
    3  0.001  0.002  0.005  0.008
    4  0.020  0.004  0.005  0.029
    5  0.000  0.006  0.010  0.015
    6  0.010  0.003  0.005  0.019
    7  0.002  0.002  0.005  0.008
    8  0.011  0.003  0.005  0.020
    9  0.000  0.000  0.012  0.012
   10  0.019  0.005  0.008  0.032
   11  0.005  0.003  0.020  0.028
   12  0.004  0.001  0.017  0.023
   13  0.004  0.003  0.021  0.028
   14  0.019  0.003  0.005  0.027
   15  0.000  0.003  0.014  0.017
   16  0.005  0.001  0.017  0.023
   17  0.000  0.003  0.014  0.017
   18  0.000  0.000  0.009  0.009
   19  0.001  0.002  0.019  0.022
   20  0.019  0.006  0.005  0.030
   21  0.005  0.002  0.027  0.033
   22  0.001  0.002  0.011  0.014
   23  0.005  0.002  0.026  0.033
   24  0.006  0.003  0.010  0.019
   25  0.003  0.001  0.006  0.010
   26  0.001  0.002  0.020  0.023
   27  0.002  0.002  0.011  0.014
   28  0.000  0.002  0.012  0.014
   29  0.017  0.003  0.007  0.027
   30  0.000  0.001  0.006  0.008
   31  0.016  0.003  0.007  0.026
   32  0.010  0.003  0.007  0.020
   33  0.001  0.001  0.006  0.008
   34  0.011  0.003  0.007  0.021
   35  0.000  0.001  0.011  0.011
   36  0.000  0.012  0.013  0.025
   37  0.000  0.000  0.000  0.000
   38  0.000  0.000  0.000  0.000
   39  0.000  0.000  0.000  0.000
tot    0.219  0.098  0.399  0.716
 
band    19 # energy   -5.22395906 # occ.  2.00000000
 
ion      s      p      d    tot
    1  0.000  0.003  0.009  0.012
    2  0.001  0.002  0.005  0.008
    3  0.020  0.004  0.006  0.030
    4  0.002  0.002  0.005  0.009
    5  0.000  0.006  0.010  0.015
    6  0.011  0.003  0.005  0.019
    7  0.020  0.004  0.006  0.029
    8  0.010  0.003  0.005  0.018
    9  0.000  0.000  0.012  0.012
   10  0.000  0.000  0.020  0.020
   11  0.014  0.003  0.010  0.027
   12  0.015  0.004  0.011  0.029
   13  0.014  0.003  0.010  0.027
   14  0.000  0.002  0.026  0.028
   15  0.000  0.001  0.010  0.012
   16  0.014  0.003  0.011  0.029
   17  0.000  0.001  0.010  0.011
   18  0.000  0.004  0.016  0.020
   19  0.002  0.001  0.011  0.014
   20  0.000  0.001  0.034  0.034
   21  0.015  0.005  0.012  0.031
   22  0.005  0.002  0.011  0.018
   23  0.014  0.004  0.013  0.031
   24  0.000  0.001  0.012  0.013
   25  0.000  0.003  0.024  0.027
   26  0.002  0.001  0.010  0.014
   27  0.004  0.002  0.011  0.017
   28  0.000  0.002  0.012  0.014
   29  0.002  0.002  0.006  0.010
   30  0.018  0.004  0.008  0.029
   31  0.002  0.002  0.006  0.010
   32  0.008  0.002  0.006  0.016
   33  0.018  0.004  0.008  0.029
   34  0.007  0.002  0.006  0.016
   35  0.000  0.001  0.011  0.011
   36  0.000  0.012  0.013  0.025
   37  0.000  0.000  0.000  0.000
   38  0.000  0.000  0.000  0.000
   39  0.000  0.000  0.000  0.000
tot    0.219  0.098  0.399  0.716
 
band    20 # energy   -5.21672516 # occ.  2.00000000
 
ion      s      p      d    tot
    1  0.035  0.003  0.000  0.038
    2  0.000  0.003  0.010  0.013
    3  0.000  0.003  0.010  0.013
    4  0.000  0.003  0.010  0.013
    5  0.000  0.000  0.001  0.001
    6  0.000  0.003  0.010  0.013
    7  0.000  0.003  0.010  0.013
    8  0.000  0.003  0.010  0.013
    9  0.026  0.004  0.001  0.030
   10  0.008  0.003  0.011  0.022
   11  0.002  0.000  0.015  0.017
   12  0.008  0.003  0.011  0.022
   13  0.002  0.000  0.015  0.017
   14  0.002  0.000  0.015  0.017
   15  0.008  0.003  0.015  0.027
   16  0.008  0.003  0.011  0.022
   17  0.008  0.003  0.015  0.027
   18  0.008  0.003  0.015  0.027
   19  0.004  0.003  0.019  0.026
   20  0.000  0.000  0.015  0.015
   21  0.000  0.000  0.015  0.015
   22  0.011  0.003  0.009  0.024
   23  0.000  0.000  0.015  0.015
   24  0.011  0.003  0.009  0.024
   25  0.004  0.003  0.019  0.026
   26  0.004  0.003  0.019  0.026
   27  0.011  0.003  0.009  0.024
   28  0.039  0.003  0.000  0.042
   29  0.000  0.003  0.013  0.016
   30  0.000  0.003  0.013  0.016
   31  0.000  0.003  0.013  0.016
   32  0.000  0.003  0.013  0.016
   33  0.000  0.003  0.013  0.016
   34  0.000  0.003  0.013  0.016
   35  0.027  0.003  0.001  0.031
   36  0.000  0.000  0.000  0.000
   37  0.000  0.000  0.000  0.000
   38  0.000  0.000  0.000  0.000
   39  0.000  0.000  0.000  0.000