PROCAR new format
# of k-points:   10         # of bands:  252         # of ions:   37

 k-point     1 :    0.00000000 0.00000000 0.00000000     weight = 0.01562500

band     1 # energy   -8.77838256 # occ.  2.00000000
 
ion      s      p      d    tot
    1  0.004  0.000  0.000  0.004
    2  0.004  0.000  0.000  0.004
    3  0.004  0.000  0.000  0.004
    4  0.004  0.000  0.000  0.004
    5  0.004  0.000  0.000  0.004
    6  0.004  0.000  0.000  0.004
    7  0.004  0.000  0.000  0.004
    8  0.004  0.000  0.000  0.004
    9  0.004  0.000  0.000  0.004
   10  0.017  0.000  0.000  0.017
   11  0.018  0.000  0.000  0.018
   12  0.017  0.000  0.000  0.017
   13  0.018  0.000  0.000  0.018
   14  0.018  0.000  0.000  0.018
   15  0.016  0.000  0.000  0.016
   16  0.017  0.000  0.000  0.017
   17  0.016  0.000  0.000  0.016
   18  0.016  0.000  0.000  0.016
   19  0.017  0.000  0.000  0.018
   20  0.026  0.000  0.001  0.028
   21  0.026  0.000  0.001  0.028
   22  0.018  0.000  0.000  0.018
   23  0.026  0.000  0.001  0.028
   24  0.018  0.000  0.000  0.018
   25  0.017  0.000  0.000  0.018
   26  0.017  0.000  0.000  0.018
   27  0.018  0.000  0.000  0.018
   28  0.004  0.000  0.000  0.005
   29  0.007  0.000  0.000  0.007
   30  0.007  0.000  0.000  0.007
   31  0.007  0.000  0.000  0.007
   32  0.007  0.000  0.000  0.007
   33  0.007  0.000  0.000  0.007
   34  0.007  0.000  0.000  0.007
   35  0.004  0.000  0.000  0.005
   36  0.047  0.007  0.041  0.095
   37  0.106  0.005  0.000  0.110
tot    0.571  0.019  0.047  0.637
 
band     2 # energy   -8.38264692 # occ.  2.00000000
 
ion      s      p      d    tot
    1  0.004  0.000  0.000  0.004
    2  0.004  0.000  0.000  0.005
    3  0.004  0.000  0.000  0.005
    4  0.004  0.000  0.000  0.005
    5  0.004  0.000  0.000  0.005
    6  0.004  0.000  0.000  0.005
    7  0.004  0.000  0.000  0.005
    8  0.004  0.000  0.000  0.005
    9  0.004  0.000  0.000  0.005
   10  0.011  0.000  0.000  0.012
   11  0.012  0.000  0.000  0.012
   12  0.011  0.000  0.000  0.012
   13  0.012  0.000  0.000  0.012
   14  0.012  0.000  0.000  0.012
   15  0.013  0.000  0.000  0.013
   16  0.011  0.000  0.000  0.012
   17  0.013  0.000  0.000  0.013
   18  0.013  0.000  0.000  0.013
   19  0.004  0.000  0.000  0.005
   20  0.001  0.001  0.003  0.005
   21  0.001  0.001  0.003  0.005
   22  0.006  0.000  0.000  0.006
   23  0.001  0.001  0.003  0.005
   24  0.006  0.000  0.000  0.006
   25  0.004  0.000  0.000  0.005
   26  0.004  0.000  0.000  0.005
   27  0.006  0.000  0.000  0.006
   28  0.000  0.000  0.000  0.000
   29  0.000  0.000  0.001  0.002
   30  0.000  0.000  0.001  0.002
   31  0.000  0.000  0.001  0.002
   32  0.000  0.000  0.001  0.002
   33  0.000  0.000  0.001  0.002
   34  0.000  0.000  0.001  0.002
   35  0.000  0.000  0.000  0.000
   36  0.058  0.037  0.114  0.209
   37  0.295  0.011  0.000  0.306
tot    0.535  0.058  0.133  0.726
 
band     3 # energy   -7.43535832 # occ.  2.00000000
 
ion      s      p      d    tot
    1  0.017  0.000  0.001  0.018
    2  0.016  0.000  0.001  0.017
    3  0.016  0.000  0.001  0.017
    4  0.016  0.000  0.001  0.017
    5  0.015  0.000  0.001  0.017
    6  0.016  0.000  0.001  0.017
    7  0.016  0.000  0.001  0.017
    8  0.016  0.000  0.001  0.017
    9  0.015  0.000  0.001  0.017
   10  0.009  0.001  0.002  0.013
   11  0.008  0.002  0.003  0.012
   12  0.009  0.001  0.002  0.013
   13  0.008  0.002  0.003  0.012
   14  0.008  0.002  0.003  0.012
   15  0.007  0.002  0.002  0.011
   16  0.009  0.001  0.002  0.013
   17  0.007  0.002  0.002  0.011
   18  0.007  0.002  0.002  0.011
   19  0.016  0.001  0.004  0.021
   20  0.013  0.001  0.005  0.019
   21  0.013  0.001  0.005  0.019
   22  0.019  0.001  0.004  0.024
   23  0.013  0.001  0.005  0.019
   24  0.019  0.001  0.004  0.024
   25  0.016  0.001  0.004  0.021
   26  0.016  0.001  0.004  0.021
   27  0.019  0.001  0.004  0.024
   28  0.014  0.001  0.000  0.015
   29  0.011  0.001  0.001  0.013
   30  0.011  0.001  0.001  0.013
   31  0.011  0.001  0.001  0.013
   32  0.011  0.001  0.001  0.013
   33  0.011  0.001  0.001  0.013
   34  0.011  0.001  0.001  0.013
   35  0.015  0.001  0.000  0.016
   36  0.000  0.006  0.017  0.024
   37  0.027  0.001  0.000  0.028
tot    0.481  0.037  0.095  0.614
 
band     4 # energy   -6.57387896 # occ.  2.00000000
 
ion      s      p      d    tot
    1  0.005  0.000  0.015  0.020
    2  0.012  0.000  0.011  0.023
    3  0.012  0.000  0.011  0.023
    4  0.012  0.000  0.011  0.023
    5  0.006  0.000  0.009  0.016
    6  0.012  0.000  0.011  0.023
    7  0.012  0.000  0.011  0.023
    8  0.012  0.000  0.011  0.023
    9  0.031  0.000  0.006  0.038
   10  0.010  0.001  0.015  0.025
   11  0.014  0.002  0.009  0.024
   12  0.009  0.001  0.015  0.025
   13  0.014  0.002  0.009  0.024
   14  0.013  0.002  0.009  0.024
   15  0.002  0.001  0.015  0.018
   16  0.009  0.001  0.015  0.025
   17  0.002  0.001  0.015  0.018
   18  0.002  0.001  0.015  0.018
   19  0.000  0.001  0.011  0.012
   20  0.017  0.002  0.008  0.027
   21  0.017  0.002  0.008  0.027
   22  0.003  0.001  0.003  0.008
   23  0.017  0.002  0.008  0.027
   24  0.004  0.001  0.003  0.008
   25  0.000  0.001  0.011  0.012
   26  0.000  0.001  0.011  0.012
   27  0.003  0.001  0.003  0.008
   28  0.012  0.000  0.002  0.014
   29  0.008  0.000  0.007  0.015
   30  0.008  0.000  0.007  0.015
   31  0.008  0.000  0.007  0.015
   32  0.008  0.000  0.007  0.015
   33  0.008  0.000  0.007  0.015
   34  0.008  0.000  0.007  0.015
   35  0.017  0.000  0.004  0.021
   36  0.000  0.002  0.007  0.009
   37  0.000  0.000  0.000  0.000
tot    0.328  0.029  0.332  0.689
 
band     5 # energy   -6.55727554 # occ.  2.00000000
 
ion      s      p      d    tot
    1  0.000  0.000  0.008  0.008
    2  0.003  0.001  0.002  0.006
    3  0.001  0.000  0.003  0.004
    4  0.003  0.001  0.002  0.006
    5  0.000  0.001  0.007  0.008
    6  0.006  0.001  0.003  0.011
    7  0.001  0.000  0.003  0.004
    8  0.006  0.001  0.003  0.011
    9  0.000  0.000  0.001  0.001
   10  0.033  0.002  0.005  0.040
   11  0.013  0.003  0.023  0.038
   12  0.009  0.001  0.026  0.035
   13  0.013  0.003  0.022  0.038
   14  0.052  0.001  0.011  0.064
   15  0.000  0.003  0.006  0.009
   16  0.008  0.001  0.027  0.035
   17  0.001  0.003  0.006  0.009
   18  0.002  0.000  0.012  0.014
   19  0.002  0.003  0.005  0.010
   20  0.064  0.001  0.011  0.076
   21  0.016  0.002  0.029  0.048
   22  0.005  0.001  0.022  0.028
   23  0.016  0.002  0.029  0.047
   24  0.018  0.002  0.005  0.025
   25  0.008  0.000  0.013  0.021
   26  0.002  0.003  0.005  0.010
   27  0.005  0.001  0.023  0.028
   28  0.000  0.000  0.001  0.001
   29  0.006  0.001  0.004  0.012
   30  0.002  0.001  0.003  0.005
   31  0.006  0.001  0.004  0.012
   32  0.002  0.000  0.002  0.005
   33  0.001  0.000  0.003  0.005
   34  0.002  0.000  0.002  0.004
   35  0.000  0.000  0.004  0.005
   36  0.000  0.002  0.007  0.010
   37  0.000  0.000  0.000  0.000
tot    0.306  0.043  0.346  0.694
 
band     6 # energy   -6.55725529 # occ.  2.00000000
 
ion      s      p      d    tot
    1  0.000  0.000  0.008  0.008
    2  0.004  0.001  0.004  0.008
    3  0.006  0.001  0.003  0.010
    4  0.004  0.001  0.004  0.008
    5  0.000  0.001  0.007  0.008
    6  0.000  0.000  0.003  0.003
    7  0.006  0.001  0.003  0.010
    8  0.000  0.000  0.003  0.003
    9  0.000  0.000  0.001  0.001
   10  0.000  0.000  0.034  0.034
   11  0.040  0.001  0.015  0.056
   12  0.024  0.002  0.012  0.038
   13  0.039  0.002  0.015  0.055
   14  0.000  0.003  0.026  0.030
   15  0.002  0.001  0.010  0.013
   16  0.025  0.002  0.012  0.038
   17  0.002  0.001  0.010  0.013
   18  0.000  0.003  0.004  0.007
   19  0.006  0.001  0.010  0.018
   20  0.000  0.002  0.035  0.038
   21  0.047  0.001  0.017  0.066
   22  0.014  0.001  0.011  0.026
   23  0.048  0.001  0.017  0.067
   24  0.000  0.000  0.028  0.029
   25  0.000  0.004  0.003  0.007
   26  0.006  0.001  0.010  0.018
   27  0.014  0.001  0.010  0.026
   28  0.000  0.000  0.001  0.001
   29  0.000  0.000  0.002  0.002
   30  0.005  0.001  0.003  0.009
   31  0.000  0.000  0.002  0.002
   32  0.005  0.001  0.004  0.010
   33  0.005  0.001  0.003  0.009
   34  0.005  0.001  0.004  0.010
   35  0.000  0.000  0.004  0.005
   36  0.000  0.002  0.007  0.010
   37  0.000  0.000  0.000  0.000
tot    0.306  0.043  0.346  0.694
 
band     7 # energy   -6.53055423 # occ.  2.00000000
 
ion      s      p      d    tot
    1  0.018  0.000  0.007  0.025
    2  0.009  0.000  0.012  0.021
    3  0.009  0.000  0.012  0.021
    4  0.009  0.000  0.012  0.021
    5  0.013  0.000  0.011  0.024
    6  0.009  0.000  0.012  0.021
    7  0.009  0.000  0.012  0.021
    8  0.009  0.000  0.012  0.021
    9  0.002  0.001  0.014  0.016
   10  0.001  0.000  0.030  0.031
   11  0.001  0.001  0.024  0.026
   12  0.001  0.000  0.030  0.031
   13  0.001  0.001  0.024  0.026
   14  0.001  0.001  0.024  0.026
   15  0.024  0.001  0.015  0.039
   16  0.001  0.000  0.030  0.031
   17  0.024  0.001  0.015  0.039
   18  0.024  0.001  0.015  0.039
   19  0.002  0.000  0.017  0.020
   20  0.015  0.000  0.017  0.033
   21  0.015  0.000  0.017  0.033
   22  0.001  0.001  0.014  0.016
   23  0.015  0.000  0.017  0.033
   24  0.001  0.001  0.014  0.016
   25  0.002  0.000  0.017  0.020
   26  0.002  0.000  0.017  0.020
   27  0.001  0.001  0.014  0.016
   28  0.002  0.000  0.001  0.003
   29  0.002  0.000  0.004  0.006
   30  0.002  0.000  0.004  0.006
   31  0.002  0.000  0.004  0.006
   32  0.002  0.000  0.004  0.006
   33  0.002  0.000  0.004  0.006
   34  0.002  0.000  0.004  0.006
   35  0.007  0.000  0.002  0.009
   36  0.000  0.002  0.003  0.005
   37  0.001  0.000  0.000  0.001
tot    0.242  0.013  0.488  0.743
 
band     8 # energy   -6.49967862 # occ.  2.00000000
 
ion      s      p      d    tot
    1  0.009  0.001  0.001  0.011
    2  0.000  0.001  0.006  0.007
    3  0.000  0.001  0.006  0.007
    4  0.000  0.001  0.006  0.007
    5  0.017  0.002  0.001  0.020
    6  0.000  0.001  0.006  0.007
    7  0.000  0.001  0.006  0.007
    8  0.000  0.001  0.006  0.007
    9  0.000  0.000  0.001  0.002
   10  0.024  0.003  0.002  0.029
   11  0.022  0.001  0.021  0.044
   12  0.024  0.003  0.002  0.029
   13  0.022  0.001  0.021  0.044
   14  0.022  0.001  0.021  0.044
   15  0.000  0.001  0.024  0.025
   16  0.024  0.003  0.002  0.029
   17  0.000  0.001  0.024  0.025
   18  0.000  0.001  0.024  0.025
   19  0.027  0.002  0.004  0.033
   20  0.004  0.002  0.019  0.025
   21  0.004  0.002  0.019  0.025
   22  0.008  0.000  0.027  0.035
   23  0.004  0.002  0.019  0.025
   24  0.008  0.000  0.027  0.035
   25  0.027  0.002  0.004  0.033
   26  0.027  0.002  0.004  0.033
   27  0.008  0.000  0.027  0.035
   28  0.010  0.001  0.001  0.012
   29  0.000  0.000  0.004  0.004
   30  0.000  0.000  0.004  0.004
   31  0.000  0.000  0.004  0.004
   32  0.000  0.000  0.004  0.004
   33  0.000  0.000  0.004  0.004
   34  0.000  0.000  0.004  0.004
   35  0.006  0.001  0.002  0.008
   36  0.001  0.000  0.000  0.001
   37  0.000  0.000  0.000  0.000
tot    0.297  0.040  0.358  0.695
 
band     9 # energy   -6.47731741 # occ.  2.00000000
 
ion      s      p      d    tot
    1  0.000  0.001  0.004  0.005
    2  0.004  0.001  0.004  0.010
    3  0.008  0.001  0.004  0.013
    4  0.005  0.001  0.004  0.010
    5  0.000  0.000  0.004  0.004
    6  0.001  0.000  0.003  0.004
    7  0.008  0.001  0.004  0.013
    8  0.000  0.000  0.003  0.004
    9  0.000  0.001  0.011  0.012
   10  0.028  0.000  0.016  0.044
   11  0.002  0.002  0.019  0.022
   12  0.006  0.004  0.007  0.017
   13  0.001  0.002  0.020  0.023
   14  0.007  0.001  0.008  0.016
   15  0.018  0.001  0.033  0.052
   16  0.008  0.003  0.008  0.019
   17  0.013  0.001  0.036  0.050
   18  0.062  0.002  0.005  0.069
   19  0.012  0.001  0.026  0.039
   20  0.001  0.001  0.013  0.015
   21  0.000  0.002  0.013  0.014
   22  0.007  0.003  0.014  0.025
   23  0.000  0.002  0.013  0.014
   24  0.033  0.001  0.012  0.046
   25  0.041  0.002  0.003  0.047
   26  0.009  0.001  0.029  0.038
   27  0.010  0.003  0.014  0.026
   28  0.000  0.000  0.007  0.007
   29  0.000  0.000  0.002  0.002
   30  0.003  0.001  0.002  0.005
   31  0.000  0.000  0.002  0.002
   32  0.004  0.001  0.003  0.007
   33  0.002  0.001  0.002  0.005
   34  0.004  0.001  0.003  0.007
   35  0.000  0.001  0.004  0.004
   36  0.000  0.000  0.001  0.001
   37  0.000  0.000  0.000  0.000
tot    0.298  0.041  0.354  0.693
 
band    10 # energy   -6.47731004 # occ.  2.00000000
 
ion      s      p      d    tot
    1  0.000  0.001  0.004  0.005
    2  0.004  0.001  0.003  0.008
    3  0.001  0.001  0.004  0.005
    4  0.003  0.001  0.003  0.007
    5  0.000  0.000  0.004  0.004
    6  0.008  0.001  0.004  0.014
    7  0.001  0.000  0.004  0.005
    8  0.008  0.001  0.004  0.014
    9  0.000  0.001  0.011  0.012
   10  0.000  0.005  0.005  0.009
   11  0.005  0.001  0.013  0.019
   12  0.022  0.001  0.014  0.037
   13  0.005  0.001  0.012  0.018
   14  0.000  0.002  0.023  0.025
   15  0.044  0.001  0.016  0.062
   16  0.020  0.001  0.013  0.034
   17  0.049  0.001  0.013  0.064
   18  0.000  0.001  0.044  0.045
   19  0.029  0.002  0.012  0.043
   20  0.000  0.002  0.012  0.014
   21  0.001  0.001  0.013  0.015
   22  0.026  0.001  0.013  0.040
   23  0.001  0.001  0.013  0.015
   24  0.000  0.004  0.015  0.019
   25  0.000  0.000  0.036  0.036
   26  0.032  0.002  0.010  0.044
   27  0.024  0.002  0.013  0.038
   28  0.000  0.000  0.007  0.007
   29  0.004  0.001  0.002  0.007
   30  0.002  0.000  0.002  0.005
   31  0.004  0.001  0.002  0.007
   32  0.000  0.000  0.001  0.002
   33  0.002  0.000  0.003  0.005
   34  0.001  0.000  0.001  0.002
   35  0.000  0.001  0.004  0.004
   36  0.000  0.000  0.001  0.001
   37  0.000  0.000  0.000  0.000
tot    0.298  0.041  0.354  0.693
 
band    11 # energy   -6.44909991 # occ.  2.00000000
 
ion      s      p      d    tot
    1  0.006  0.000  0.000  0.006
    2  0.001  0.000  0.003  0.004
    3  0.001  0.000  0.003  0.004
    4  0.001  0.000  0.003  0.004
    5  0.003  0.000  0.000  0.004
    6  0.001  0.000  0.003  0.004
    7  0.001  0.000  0.003  0.004
    8  0.001  0.000  0.003  0.004
    9  0.004  0.001  0.002  0.006
   10  0.003  0.000  0.015  0.019
   11  0.003  0.001  0.006  0.010
   12  0.003  0.000  0.015  0.019
   13  0.003  0.001  0.006  0.010
   14  0.003  0.001  0.006  0.010
   15  0.015  0.001  0.005  0.022
   16  0.003  0.000  0.015  0.019
   17  0.015  0.001  0.005  0.022
   18  0.015  0.001  0.005  0.022
   19  0.002  0.001  0.014  0.017
   20  0.000  0.000  0.029  0.030
   21  0.000  0.000  0.029  0.030
   22  0.019  0.003  0.011  0.032
   23  0.000  0.000  0.029  0.030
   24  0.019  0.003  0.011  0.032
   25  0.002  0.001  0.014  0.017
   26  0.002  0.001  0.014  0.017
   27  0.019  0.003  0.011  0.032
   28  0.018  0.000  0.016  0.034
   29  0.017  0.000  0.015  0.032
   30  0.017  0.000  0.015  0.032
   31  0.017  0.000  0.015  0.032
   32  0.017  0.000  0.015  0.032
   33  0.017  0.000  0.015  0.032
   34  0.017  0.000  0.015  0.032
   35  0.010  0.000  0.016  0.026
   36  0.007  0.001  0.022  0.030
   37  0.007  0.000  0.000  0.007
tot    0.290  0.026  0.403  0.719
 
band    12 # energy   -6.06887200 # occ.  2.00000000
 
ion      s      p      d    tot
    1  0.000  0.001  0.004  0.005
    2  0.001  0.001  0.005  0.006
    3  0.009  0.001  0.004  0.015
    4  0.001  0.001  0.005  0.006
    5  0.000  0.001  0.010  0.012
    6  0.004  0.001  0.004  0.009
    7  0.009  0.001  0.004  0.015
    8  0.004  0.001  0.004  0.009
    9  0.000  0.000  0.009  0.009
   10  0.000  0.001  0.048  0.049
   11  0.017  0.001  0.020  0.038
   12  0.007  0.001  0.019  0.027
   13  0.017  0.001  0.020  0.038
   14  0.000  0.000  0.051  0.051
   15  0.002  0.000  0.019  0.022
   16  0.007  0.001  0.019  0.027
   17  0.002  0.000  0.019  0.022
   18  0.000  0.001  0.011  0.013
   19  0.004  0.000  0.018  0.022
   20  0.000  0.000  0.078  0.078
   21  0.016  0.001  0.025  0.042
   22  0.004  0.001  0.019  0.024
   23  0.016  0.001  0.025  0.042
   24  0.000  0.001  0.035  0.036
   25  0.000  0.001  0.010  0.011
   26  0.004  0.000  0.018  0.022
   27  0.004  0.001  0.019  0.024
   28  0.000  0.000  0.008  0.008
   29  0.003  0.001  0.005  0.009
   30  0.009  0.001  0.005  0.015
   31  0.003  0.001  0.005  0.009
   32  0.001  0.001  0.004  0.006
   33  0.009  0.001  0.005  0.015
   34  0.001  0.001  0.004  0.006
   35  0.000  0.000  0.003  0.003
   36  0.000  0.003  0.007  0.010
   37  0.000  0.000  0.000  0.000
tot    0.154  0.031  0.566  0.750
 
band    13 # energy   -6.06884081 # occ.  2.00000000
 
ion      s      p      d    tot
    1  0.000  0.001  0.004  0.005
    2  0.009  0.001  0.004  0.014
    3  0.000  0.000  0.004  0.005
    4  0.009  0.001  0.004  0.014
    5  0.000  0.001  0.010  0.012
    6  0.005  0.001  0.005  0.011
    7  0.000  0.000  0.004  0.005
    8  0.005  0.001  0.005  0.011
    9  0.000  0.000  0.009  0.009
   10  0.008  0.002  0.009  0.019
   11  0.006  0.000  0.041  0.047
   12  0.002  0.001  0.038  0.042
   13  0.006  0.000  0.041  0.047
   14  0.022  0.001  0.010  0.034
   15  0.001  0.001  0.014  0.015
   16  0.002  0.001  0.038  0.042
   17  0.001  0.001  0.014  0.015
   18  0.003  0.000  0.022  0.025
   19  0.001  0.001  0.012  0.014
   20  0.021  0.001  0.007  0.030
   21  0.005  0.000  0.060  0.066
   22  0.001  0.001  0.030  0.032
   23  0.005  0.000  0.060  0.066
   24  0.005  0.001  0.013  0.019
   25  0.005  0.000  0.021  0.026
   26  0.001  0.001  0.012  0.014
   27  0.001  0.001  0.030  0.032
   28  0.000  0.000  0.008  0.008
   29  0.006  0.001  0.004  0.011
   30  0.000  0.000  0.004  0.005
   31  0.006  0.001  0.004  0.011
   32  0.008  0.001  0.005  0.014
   33  0.000  0.000  0.004  0.005
   34  0.008  0.001  0.005  0.014
   35  0.000  0.000  0.003  0.003
   36  0.000  0.003  0.007  0.010
   37  0.000  0.000  0.000  0.000
tot    0.154  0.031  0.566  0.750
 
band    14 # energy   -6.06726754 # occ.  2.00000000
 
ion      s      p      d    tot
    1  0.015  0.002  0.002  0.019
    2  0.000  0.001  0.008  0.008
    3  0.000  0.001  0.008  0.008
    4  0.000  0.001  0.008  0.008
    5  0.000  0.000  0.002  0.002
    6  0.000  0.001  0.008  0.008
    7  0.000  0.001  0.008  0.008
    8  0.000  0.001  0.008  0.008
    9  0.015  0.001  0.000  0.016
   10  0.010  0.001  0.013  0.024
   11  0.003  0.000  0.043  0.047
   12  0.010  0.001  0.013  0.024
   13  0.003  0.000  0.043  0.047
   14  0.003  0.000  0.043  0.046
   15  0.003  0.001  0.023  0.027
   16  0.010  0.001  0.013  0.024
   17  0.003  0.001  0.023  0.027
   18  0.003  0.001  0.022  0.026
   19  0.005  0.001  0.010  0.016
   20  0.001  0.000  0.053  0.054
   21  0.001  0.000  0.053  0.054
   22  0.011  0.001  0.021  0.033
   23  0.001  0.000  0.053  0.054
   24  0.011  0.001  0.021  0.034
   25  0.004  0.001  0.010  0.016
   26  0.005  0.001  0.010  0.016
   27  0.011  0.001  0.021  0.033
   28  0.013  0.001  0.000  0.015
   29  0.000  0.000  0.006  0.007
   30  0.000  0.000  0.006  0.007
   31  0.000  0.000  0.006  0.007
   32  0.000  0.000  0.006  0.007
   33  0.000  0.000  0.006  0.007
   34  0.000  0.000  0.006  0.007
   35  0.006  0.001  0.003  0.010
   36  0.001  0.000  0.001  0.002
   37  0.000  0.000  0.000  0.000
tot    0.147  0.027  0.581  0.756
 
band    15 # energy   -5.99979524 # occ.  2.00000000
 
ion      s      p      d    tot
    1  0.000  0.001  0.014  0.015
    2  0.009  0.001  0.004  0.015
    3  0.001  0.000  0.005  0.006
    4  0.009  0.001  0.004  0.015
    5  0.000  0.000  0.006  0.006
    6  0.004  0.001  0.005  0.010
    7  0.001  0.000  0.005  0.006
    8  0.004  0.001  0.005  0.010
    9  0.000  0.001  0.006  0.007
   10  0.000  0.001  0.032  0.033
   11  0.000  0.001  0.020  0.021
   12  0.008  0.000  0.022  0.030
   13  0.000  0.001  0.020  0.021
   14  0.000  0.001  0.016  0.018
   15  0.010  0.002  0.020  0.032
   16  0.008  0.000  0.022  0.030
   17  0.010  0.002  0.020  0.032
   18  0.000  0.000  0.061  0.061
   19  0.014  0.001  0.020  0.035
   20  0.000  0.002  0.021  0.023
   21  0.000  0.001  0.024  0.025
   22  0.017  0.001  0.020  0.038
   23  0.000  0.001  0.024  0.025
   24  0.000  0.001  0.030  0.030
   25  0.000  0.000  0.067  0.067
   26  0.014  0.001  0.019  0.035
   27  0.017  0.001  0.020  0.038
   28  0.000  0.001  0.005  0.006
   29  0.005  0.001  0.004  0.010
   30  0.000  0.000  0.005  0.006
   31  0.005  0.001  0.004  0.010
   32  0.005  0.001  0.003  0.008
   33  0.000  0.000  0.005  0.006
   34  0.005  0.001  0.003  0.008
   35  0.000  0.001  0.009  0.009
   36  0.000  0.000  0.002  0.002
   37  0.000  0.000  0.000  0.000
tot    0.149  0.028  0.573  0.750
 
band    16 # energy   -5.99975932 # occ.  2.00000000
 
ion      s      p      d    tot
    1  0.000  0.001  0.014  0.015
    2  0.000  0.001  0.005  0.006
    3  0.009  0.001  0.005  0.015
    4  0.000  0.001  0.005  0.006
    5  0.000  0.000  0.006  0.006
    6  0.005  0.001  0.005  0.011
    7  0.009  0.001  0.005  0.015
    8  0.005  0.001  0.005  0.011
    9  0.000  0.001  0.006  0.007
   10  0.011  0.000  0.018  0.029
   11  0.000  0.001  0.018  0.019
   12  0.003  0.001  0.029  0.032
   13  0.000  0.001  0.018  0.019
   14  0.000  0.001  0.021  0.022
   15  0.003  0.001  0.047  0.051
   16  0.003  0.001  0.029  0.032
   17  0.003  0.001  0.047  0.051
   18  0.013  0.002  0.006  0.022
   19  0.005  0.001  0.051  0.056
   20  0.000  0.000  0.025  0.025
   21  0.000  0.001  0.022  0.024
   22  0.006  0.001  0.027  0.033
   23  0.000  0.001  0.022  0.024
   24  0.022  0.001  0.017  0.040
   25  0.019  0.001  0.004  0.024
   26  0.005  0.001  0.051  0.056
   27  0.006  0.001  0.027  0.033
   28  0.000  0.001  0.005  0.006
   29  0.001  0.000  0.004  0.006
   30  0.007  0.001  0.003  0.010
   31  0.001  0.000  0.004  0.006
   32  0.002  0.001  0.005  0.008
   33  0.007  0.001  0.003  0.010
   34  0.002  0.001  0.005  0.008
   35  0.000  0.001  0.009  0.009
   36  0.000  0.000  0.002  0.002
   37  0.000  0.000  0.000  0.000
tot    0.149  0.028  0.573  0.750
 
band    17 # energy   -5.98198334 # occ.  2.00000000
 
ion      s      p      d    tot
    1  0.008  0.000  0.001  0.009
    2  0.000  0.001  0.009  0.010
    3  0.000  0.001  0.009  0.010
    4  0.000  0.001  0.009  0.010
    5  0.019  0.002  0.001  0.021
    6  0.000  0.001  0.009  0.010
    7  0.000  0.001  0.009  0.010
    8  0.000  0.001  0.009  0.010
    9  0.003  0.001  0.002  0.005
   10  0.000  0.000  0.042  0.042
   11  0.005  0.002  0.014  0.021
   12  0.000  0.000  0.042  0.042
   13  0.005  0.002  0.014  0.021
   14  0.005  0.002  0.014  0.021
   15  0.006  0.001  0.024  0.031
   16  0.000  0.000  0.042  0.042
   17  0.006  0.001  0.024  0.031
   18  0.006  0.001  0.024  0.031
   19  0.009  0.000  0.044  0.053
   20  0.010  0.001  0.006  0.017
   21  0.010  0.001  0.006  0.017
   22  0.001  0.000  0.035  0.036
   23  0.010  0.001  0.006  0.017
   24  0.001  0.000  0.035  0.036
   25  0.009  0.000  0.044  0.053
   26  0.009  0.000  0.044  0.053
   27  0.001  0.000  0.035  0.036
   28  0.000  0.001  0.007  0.008
   29  0.001  0.000  0.006  0.007
   30  0.001  0.000  0.006  0.007
   31  0.001  0.000  0.006  0.007
   32  0.001  0.000  0.006  0.007
   33  0.001  0.000  0.006  0.007
   34  0.001  0.000  0.006  0.007
   35  0.002  0.000  0.000  0.003
   36  0.006  0.005  0.001  0.012
   37  0.004  0.000  0.000  0.004
tot    0.141  0.029  0.595  0.765
 
band    18 # energy   -5.69197899 # occ.  2.00000000
 
ion      s      p      d    tot
    1  0.000  0.000  0.021  0.021
    2  0.002  0.001  0.008  0.011
    3  0.003  0.000  0.013  0.016
    4  0.002  0.001  0.008  0.011
    5  0.000  0.001  0.020  0.021
    6  0.009  0.001  0.009  0.019
    7  0.003  0.000  0.013  0.016
    8  0.009  0.001  0.009  0.019
    9  0.000  0.001  0.004  0.005
   10  0.000  0.000  0.021  0.021
   11  0.000  0.000  0.052  0.053
   12  0.000  0.000  0.013  0.013
   13  0.000  0.000  0.052  0.053
   14  0.000  0.000  0.050  0.051
   15  0.000  0.000  0.015  0.015
   16  0.000  0.000  0.013  0.013
   17  0.000  0.000  0.015  0.015
   18  0.000  0.000  0.026  0.027
   19  0.000  0.000  0.009  0.009
   20  0.001  0.000  0.079  0.081
   21  0.000  0.000  0.051  0.051
   22  0.000  0.000  0.026  0.027
   23  0.000  0.000  0.051  0.051
   24  0.001  0.000  0.021  0.022
   25  0.000  0.000  0.014  0.014
   26  0.000  0.000  0.009  0.009
   27  0.000  0.000  0.026  0.027
   28  0.000  0.001  0.007  0.008
   29  0.010  0.001  0.016  0.026
   30  0.001  0.000  0.010  0.012
   31  0.010  0.001  0.016  0.026
   32  0.005  0.001  0.007  0.012
   33  0.001  0.000  0.010  0.012
   34  0.005  0.001  0.007  0.012
   35  0.000  0.000  0.021  0.021
   36  0.000  0.003  0.008  0.010
   37  0.000  0.000  0.000  0.000
tot    0.063  0.016  0.749  0.829
 
band    19 # energy   -5.69194779 # occ.  2.00000000
 
ion      s      p      d    tot
    1  0.000  0.000  0.021  0.021
    2  0.007  0.000  0.012  0.020
    3  0.006  0.001  0.007  0.014
    4  0.007  0.000  0.012  0.020
    5  0.000  0.001  0.021  0.021
    6  0.000  0.000  0.011  0.011
    7  0.006  0.001  0.007  0.014
    8  0.000  0.000  0.011  0.011
    9  0.000  0.001  0.004  0.005
   10  0.000  0.000  0.011  0.011
   11  0.000  0.000  0.051  0.051
   12  0.000  0.000  0.018  0.019
   13  0.000  0.000  0.051  0.051
   14  0.000  0.000  0.053  0.053
   15  0.000  0.000  0.022  0.023
   16  0.000  0.000  0.018  0.019
   17  0.000  0.000  0.022  0.023
   18  0.000  0.000  0.011  0.011
   19  0.000  0.000  0.012  0.012
   20  0.000  0.000  0.041  0.042
   21  0.001  0.000  0.070  0.071
   22  0.001  0.000  0.023  0.024
   23  0.001  0.000  0.070  0.071
   24  0.000  0.000  0.028  0.028
   25  0.000  0.000  0.007  0.007
   26  0.000  0.000  0.012  0.012
   27  0.001  0.000  0.023  0.024
   28  0.000  0.001  0.007  0.008
   29  0.001  0.000  0.006  0.007
   30  0.010  0.001  0.012  0.022
   31  0.001  0.000  0.006  0.007
   32  0.005  0.001  0.015  0.021
   33  0.010  0.001  0.012  0.022
   34  0.005  0.001  0.015  0.021
   35  0.000  0.000  0.021  0.021
   36  0.000  0.003  0.008  0.010
   37  0.000  0.000  0.000  0.000
tot    0.063  0.016  0.749  0.829
 
band    20 # energy   -5.67483061 # occ.  2.00000000
 
ion      s      p      d    tot
    1  0.010  0.000  0.007  0.017
    2  0.000  0.001  0.012  0.013
    3  0.000  0.001  0.012  0.013
    4  0.000  0.001  0.012  0.013
    5  0.001  0.001  0.008  0.010
    6  0.000  0.001  0.012  0.013
    7  0.000  0.001  0.012  0.013
    8  0.000  0.001  0.012  0.013
    9  0.017  0.001  0.000  0.018
   10  0.000  0.000  0.026  0.026
   11  0.000  0.000  0.042  0.042
   12  0.000  0.000  0.026  0.026
   13  0.000  0.000  0.042  0.042
   14  0.000  0.000  0.042  0.042
   15  0.000  0.000  0.027  0.027
   16  0.000  0.000  0.026  0.026
   17  0.000  0.000  0.027  0.027
   18  0.000  0.000  0.027  0.027
   19  0.000  0.000  0.020  0.020
   20  0.001  0.000  0.045  0.046
   21  0.001  0.000  0.045  0.046
   22  0.000  0.000  0.029  0.029
   23  0.001  0.000  0.045  0.046
   24  0.000  0.000  0.029  0.029
   25  0.000  0.000  0.020  0.020
   26  0.000  0.000  0.020  0.020
   27  0.000  0.000  0.029  0.029
   28  0.002  0.000  0.002  0.004
   29  0.000  0.001  0.015  0.016
   30  0.000  0.001  0.015  0.016
   31  0.000  0.001  0.015  0.016
   32  0.000  0.001  0.015  0.016
   33  0.000  0.001  0.015  0.016
   34  0.000  0.001  0.015  0.016
   35  0.017  0.001  0.001  0.019
   36  0.004  0.000  0.007  0.012
   37  0.000  0.000  0.000  0.000
tot    0.057  0.016  0.754  0.828
 
band    21 # energy   -5.65181805 # occ.  2.00000000
 
ion      s      p      d    tot
    1  0.007  0.001  0.001  0.009
    2  0.000  0.001  0.020  0.021
    3  0.000  0.001  0.020  0.021
    4  0.000  0.001  0.020  0.021
    5  0.028  0.001  0.004  0.032
    6  0.000  0.001  0.020  0.021
    7  0.000  0.001  0.020  0.021
    8  0.000  0.001  0.020  0.021
    9  0.007  0.000  0.011  0.018
   10  0.000  0.000  0.032  0.033
   11  0.000  0.001  0.026  0.027
   12  0.000  0.000  0.032  0.033
   13  0.000  0.001  0.026  0.027
   14  0.000  0.001  0.026  0.027
   15  0.000  0.000  0.031  0.031
   16  0.000  0.000  0.032  0.033
   17  0.000  0.000  0.031  0.031
   18  0.000  0.000  0.031  0.031
   19  0.000  0.000  0.024  0.025
   20  0.000  0.000  0.019  0.019
   21  0.000  0.000  0.019  0.019
   22  0.001  0.000  0.018  0.020
   23  0.000  0.000  0.019  0.019
   24  0.001  0.000  0.019  0.020
   25  0.000  0.000  0.024  0.025
   26  0.000  0.000  0.024  0.025
   27  0.001  0.000  0.018  0.020
   28  0.017  0.000  0.007  0.024
   29  0.000  0.000  0.021  0.021
   30  0.000  0.000  0.021  0.021
   31  0.000  0.000  0.021  0.021
   32  0.000  0.000  0.021  0.021
   33  0.000  0.000  0.021  0.021
   34  0.000  0.000  0.021  0.021
   35  0.006  0.000  0.007  0.013
   36  0.002  0.001  0.000  0.003