 vasp.6.2.0 18Jan21 (build Jun 12 2021 23:27:24) complex                        
  
 executed on             LinuxIFC date 2022.05.26  19:17:31
 running on   28 total cores
 distrk:  each k-point on   28 cores,    1 groups
 distr:  one band on NCORE=   1 cores,   28 groups


--------------------------------------------------------------------------------------------------------


 INCAR:
   ISMEAR = -5
   SIGMA = 0.1
   ISPIN = 1
   EDIFF = 1.d-5
   EDIFFG = -0.01
   NSW = 0
   NELM = 150
   ENCUT = 500
   ISIF = 2
   IBRION = 2
   LREAL = Auto
   ALGO = Fast
   ICHARG = 11
   LORBIT = 10
   LCHARG = .F.
   LWAVE = .F.

 POTCAR:    PAW_PBE Au 04Oct2007                  
 POTCAR:    PAW_PBE Ti 08Apr2002                  
 POTCAR:    PAW_PBE O 08Apr2002                   
 -----------------------------------------------------------------------------
|                                                                             |
|           W    W    AA    RRRRR   N    N  II  N    N   GGGG   !!!           |
|           W    W   A  A   R    R  NN   N  II  NN   N  G    G  !!!           |
|           W    W  A    A  R    R  N N  N  II  N N  N  G       !!!           |
|           W WW W  AAAAAA  RRRRR   N  N N  II  N  N N  G  GGG   !            |
|           WW  WW  A    A  R   R   N   NN  II  N   NN  G    G                |
|           W    W  A    A  R    R  N    N  II  N    N   GGGG   !!!           |
|                                                                             |
|     For optimal performance we recommend to set                             |
|       NCORE = 2 up to number-of-cores-per-socket                            |
|     NCORE specifies how many cores store one orbital (NPAR=cpu/NCORE).      |
|     This setting can greatly improve the performance of VASP for DFT.       |
|     The default, NCORE=1 might be grossly inefficient on modern             |
|     multi-core architectures or massively parallel machines. Do your        |
|     own testing! More info at https://www.vasp.at/wiki/index.php/NCORE      |
|     Unfortunately you need to use the default for GW and RPA                |
|     calculations (for HF NCORE is supported but not extensively tested      |
|     yet).                                                                   |
|                                                                             |
 -----------------------------------------------------------------------------

 POTCAR:    PAW_PBE Au 04Oct2007                  
   VRHFIN =Au: s1d10                                                                                
   LEXCH  = PE                                                                                      
   EATOM  =   926.0867 eV,   68.0654 Ry                                                             
                                                                                                    
   TITEL  = PAW_PBE Au 04Oct2007                                                                    
   LULTRA =        F    use ultrasoft PP ?                                                          
   IUNSCR =        1    unscreen: 0-lin 1-nonlin 2-no                                               
   RPACOR =    2.330    partial core radius                                                         
   POMASS =  196.966; ZVAL   =   11.000    mass and valenz                                          
   RCORE  =    2.500    outmost cutoff radius                                                       
   RWIGS  =    2.840; RWIGS  =    1.503    wigner-seitz radius (au A)                               
   ENMAX  =  229.943; ENMIN  =  172.457 eV                                                          
   ICORE  =        3    local potential                                                             
   LCOR   =        T    correct aug charges                                                         
   LPAW   =        T    paw PP                                                                      
   EAUG   =  356.670                                                                                
   DEXC   =    0.000                                                                                
   RMAX   =    2.562    core radius for proj-oper                                                   
   RAUG   =    1.300    factor for augmentation sphere                                              
   RDEP   =    2.598    radius for radial grids                                                     
   RDEPT  =    2.193    core radius for aug-charge                                                  
                                                                                                    
   Atomic configuration                                                                             
   16 entries                                                                                       
     n  l   j            E        occ.                                                              
     1  0  0.50    -80748.5001   2.0000                                                             
     2  0  0.50    -14244.7466   2.0000                                                             
     2  1  1.50    -12310.9591   6.0000                                                             
     3  0  0.50     -3362.1768   2.0000                                                             
     3  1  1.50     -2801.5463   6.0000                                                             
     3  2  2.50     -2203.8206  10.0000                                                             
     4  0  0.50      -729.8168   2.0000                                                             
     4  1  1.50      -546.0527   6.0000                                                             
     4  2  2.50      -325.7302  10.0000                                                             
     4  3  3.50       -81.1472  14.0000                                                             
     5  0  0.50      -108.3201   2.0000                                                             
     5  1  1.50       -59.7479   6.0000                                                             
     5  2  2.50        -6.8783  10.0000                                                             
     6  0  0.50        -5.7602   1.0000                                                             
     6  1  1.50        -6.8029   0.0000                                                             
     5  3  2.50        -1.3606   0.0000                                                             
   Description                                                                                      
     l       E           TYP  RCUT    TYP  RCUT                                                     
     2     -6.8782861     23  2.500                                                                 
     2     -8.2388687     23  2.500                                                                 
     0     -5.7601759     23  2.500                                                                 
     0     -0.8493231     23  2.500                                                                 
     1     -2.7211652     23  2.500                                                                 
     1     27.2116520     23  2.500                                                                 
     3     -1.3605826     23  2.500                                                                 
  local pseudopotential read in
  partial core-charges read in
  partial kinetic energy density read in
  atomic valenz-charges read in
  non local Contribution for L=           2  read in
    real space projection operators read in
  non local Contribution for L=           2  read in
    real space projection operators read in
  non local Contribution for L=           0  read in
    real space projection operators read in
  non local Contribution for L=           0  read in
    real space projection operators read in
  non local Contribution for L=           1  read in
    real space projection operators read in
  non local Contribution for L=           1  read in
    real space projection operators read in
    PAW grid and wavefunctions read in
 
   number of l-projection  operators is LMAX  =           6
   number of lm-projection operators is LMMAX =          18
 
 POTCAR:    PAW_PBE Ti 08Apr2002                  
   VRHFIN =Ti: d3 s1                                                                                
   LEXCH  = PE                                                                                      
   EATOM  =    94.7928 eV,    6.9671 Ry                                                             
                                                                                                    
   TITEL  = PAW_PBE Ti 08Apr2002                                                                    
   LULTRA =        F    use ultrasoft PP ?                                                          
   IUNSCR =        1    unscreen: 0-lin 1-nonlin 2-no                                               
   RPACOR =    2.200    partial core radius                                                         
   POMASS =   47.880; ZVAL   =    4.000    mass and valenz                                          
   RCORE  =    2.800    outmost cutoff radius                                                       
   RWIGS  =    2.500; RWIGS  =    1.323    wigner-seitz radius (au A)                               
   ENMAX  =  178.330; ENMIN  =  133.747 eV                                                          
   RCLOC  =    2.215    cutoff for local pot                                                        
   LCOR   =        T    correct aug charges                                                         
   LPAW   =        T    paw PP                                                                      
   EAUG   =  328.883                                                                                
   DEXC   =    0.000                                                                                
   RMAX   =    2.868    core radius for proj-oper                                                   
   RAUG   =    1.300    factor for augmentation sphere                                              
   RDEP   =    2.885    radius for radial grids                                                     
   RDEPT  =    2.320    core radius for aug-charge                                                  
                                                                                                    
   Atomic configuration                                                                             
    9 entries                                                                                       
     n  l   j            E        occ.                                                              
     1  0  0.50     -4865.3608   2.0000                                                             
     2  0  0.50      -533.1367   2.0000                                                             
     2  1  1.50      -440.5031   6.0000                                                             
     3  0  0.50       -59.3186   2.0000                                                             
     3  1  1.50       -35.7012   6.0000                                                             
     3  2  2.50        -1.9157   3.0000                                                             
     4  0  0.50        -3.7291   1.0000                                                             
     4  1  1.50        -4.0817   0.0000                                                             
     4  3  2.50        -1.3606   0.0000                                                             
   Description                                                                                      
     l       E           TYP  RCUT    TYP  RCUT                                                     
     2     -1.9156924     23  2.800                                                                 
     2     -0.4062961     23  2.800                                                                 
     0     -3.7290832     23  2.800                                                                 
     0     20.4087390     23  2.800                                                                 
     1     -5.4423304     23  2.800                                                                 
  local pseudopotential read in
  partial core-charges read in
  partial kinetic energy density read in
  atomic valenz-charges read in
  non local Contribution for L=           2  read in
    real space projection operators read in
  non local Contribution for L=           2  read in
    real space projection operators read in
  non local Contribution for L=           0  read in
    real space projection operators read in
  non local Contribution for L=           0  read in
    real space projection operators read in
  non local Contribution for L=           1  read in
    real space projection operators read in
    PAW grid and wavefunctions read in
 
   number of l-projection  operators is LMAX  =           5
   number of lm-projection operators is LMMAX =          15
 
 POTCAR:    PAW_PBE O 08Apr2002                   
   VRHFIN =O: s2p4                                                                                  
   LEXCH  = PE                                                                                      
   EATOM  =   432.3788 eV,   31.7789 Ry                                                             
                                                                                                    
   TITEL  = PAW_PBE O 08Apr2002                                                                     
   LULTRA =        F    use ultrasoft PP ?                                                          
   IUNSCR =        1    unscreen: 0-lin 1-nonlin 2-no                                               
   RPACOR =    1.200    partial core radius                                                         
   POMASS =   16.000; ZVAL   =    6.000    mass and valenz                                          
   RCORE  =    1.520    outmost cutoff radius                                                       
   RWIGS  =    1.550; RWIGS  =    0.820    wigner-seitz radius (au A)                               
   ENMAX  =  400.000; ENMIN  =  300.000 eV                                                          
   ICORE  =        2    local potential                                                             
   LCOR   =        T    correct aug charges                                                         
   LPAW   =        T    paw PP                                                                      
   EAUG   =  605.392                                                                                
   DEXC   =    0.000                                                                                
   RMAX   =    1.553    core radius for proj-oper                                                   
   RAUG   =    1.300    factor for augmentation sphere                                              
   RDEP   =    1.550    radius for radial grids                                                     
   RDEPT  =    1.329    core radius for aug-charge                                                  
                                                                                                    
   Atomic configuration                                                                             
    4 entries                                                                                       
     n  l   j            E        occ.                                                              
     1  0  0.50      -514.6923   2.0000                                                             
     2  0  0.50       -23.9615   2.0000                                                             
     2  1  0.50        -9.0305   4.0000                                                             
     3  2  1.50        -9.5241   0.0000                                                             
   Description                                                                                      
     l       E           TYP  RCUT    TYP  RCUT                                                     
     0    -23.9615318     23  1.200                                                                 
     0     -9.5240782     23  1.200                                                                 
     1     -9.0304911     23  1.520                                                                 
     1      8.1634956     23  1.520                                                                 
     2     -9.5240782      7  1.500                                                                 
  local pseudopotential read in
  partial core-charges read in
  partial kinetic energy density read in
  kinetic energy density of atom read in
  atomic valenz-charges read in
  non local Contribution for L=           0  read in
    real space projection operators read in
  non local Contribution for L=           0  read in
    real space projection operators read in
  non local Contribution for L=           1  read in
    real space projection operators read in
  non local Contribution for L=           1  read in
    real space projection operators read in
    PAW grid and wavefunctions read in
 
   number of l-projection  operators is LMAX  =           4
   number of lm-projection operators is LMMAX =           8
 
 Optimization of the real space projectors (new method)

 maximal supplied QI-value         = 15.12
 optimisation between [QCUT,QGAM] = [ 11.34, 22.83] = [ 36.00,145.93] Ry 
 Optimized for a Real-space Cutoff    1.39 Angstroem

   l    n(q)    QCUT    max X(q) W(low)/X(q) W(high)/X(q)  e(spline) 
   2      9    11.338    60.898    0.39E-03    0.42E-03    0.21E-06
   2      9    11.338    58.894    0.40E-03    0.42E-03    0.22E-06
   0      9    11.338   109.617    0.13E-03    0.20E-04    0.13E-06
   0      9    11.338    75.026    0.13E-03    0.20E-04    0.13E-06
   1      9    11.338    16.344    0.33E-04    0.24E-03    0.18E-06
   1      9    11.338    10.160    0.26E-04    0.19E-03    0.15E-06
 Optimization of the real space projectors (new method)

 maximal supplied QI-value         = 13.42
 optimisation between [QCUT,QGAM] = [ 11.40, 22.81] = [ 36.42,145.68] Ry 
 Optimized for a Real-space Cutoff    1.56 Angstroem

   l    n(q)    QCUT    max X(q) W(low)/X(q) W(high)/X(q)  e(spline) 
   2     10    11.404    49.363    0.27E-03    0.67E-03    0.76E-06
   2     10    11.404    47.669    0.26E-03    0.65E-03    0.73E-06
   0     11    11.404    26.374    0.17E-03    0.20E-03    0.34E-06
   0     11    11.404    11.549    0.14E-03    0.16E-03    0.29E-06
   1     10    11.404     9.492    0.33E-04    0.56E-04    0.16E-06
 Optimization of the real space projectors (new method)

 maximal supplied QI-value         = 24.76
 optimisation between [QCUT,QGAM] = [ 11.39, 22.77] = [ 36.31,145.25] Ry 
 Optimized for a Real-space Cutoff    1.00 Angstroem

   l    n(q)    QCUT    max X(q) W(low)/X(q) W(high)/X(q)  e(spline) 
   0      7    11.387    20.381    0.39E-03    0.13E-02    0.15E-06
   0      7    11.387    15.268    0.42E-03    0.14E-02    0.17E-06
   1      6    11.387     5.964    0.41E-03    0.11E-02    0.17E-06
   1      6    11.387     5.382    0.39E-03    0.87E-03    0.15E-06
  PAW_PBE Au 04Oct2007                  :
 energy of atom  1       EATOM= -926.0867
 kinetic energy error for atom=    0.0042 (will be added to EATOM!!)
  PAW_PBE Ti 08Apr2002                  :
 energy of atom  2       EATOM=  -94.7928
 kinetic energy error for atom=    0.0002 (will be added to EATOM!!)
  PAW_PBE O 08Apr2002                   :
 energy of atom  3       EATOM= -432.3788
 kinetic energy error for atom=    0.0224 (will be added to EATOM!!)
 
 
 POSCAR: Au-Ti-O
  positions in direct lattice
  velocities in cartesian coordinates
 exchange correlation table for  LEXCH =        8
   RHO(1)=    0.500       N(1)  =     2000
   RHO(2)=  100.500       N(2)  =     4000

 VTST: version 3.2, (02/03/18)

 CHAIN: initializing optimizer
 
 OPT: Using VASP Conjugate-Gradient optimizer
 CHAIN: Read ICHAIN            0
 
 POSCAR: Au-Ti-O
  positions in direct lattice
  velocities in cartesian coordinates
 


--------------------------------------------------------------------------------------------------------


 ion  position               nearest neighbor table
   1  0.000  0.000  0.238-  16 2.94  12 2.94   6 2.94   8 2.94   7 2.94   3 2.94  10 2.94   4 2.94
                             2 2.94
   2  0.333  0.000  0.238-   9 2.94  11 2.94  17 2.94  10 2.94   8 2.94   4 2.94   5 2.94   1 2.94
                             3 2.94
   3  0.667  0.000  0.238-   7 2.94  18 2.94  12 2.94   1 2.94  11 2.94   5 2.94   6 2.94   9 2.94
                             2 2.94
   4  0.000  0.333  0.238-  10 2.94   6 2.94   5 2.94  13 2.94   2 2.94  15 2.94   9 2.94   1 2.94
                             7 2.94
   5  0.333  0.333  0.238-  13 2.94   7 2.94  11 2.94   4 2.94   2 2.94  14 2.94   3 2.94   8 2.94
                             6 2.94
   6  0.667  0.333  0.238-  15 2.94  14 2.94   1 2.94  12 2.94   4 2.94   9 2.94   8 2.94   3 2.94
                             5 2.94
   7  0.000  0.667  0.238-  18 2.94   3 2.94  16 2.94   5 2.94   1 2.94  13 2.94   8 2.94   4 2.94
                             9 2.94
   8  0.333  0.667  0.238-   9 2.94  17 2.94   1 2.94   2 2.94  14 2.94  16 2.94   6 2.94   7 2.94
                             5 2.94
   9  0.667  0.667  0.238-   2 2.94   8 2.94  17 2.94   6 2.94  15 2.94   4 2.94   3 2.94  18 2.94
                             7 2.94
  10  0.111  0.111  0.346-  26 2.93  19 2.93  20 2.93  11 2.94  17 2.94   2 2.94   4 2.94   1 2.94
                            12 2.94  16 2.94  13 2.94  15 2.94
  11  0.444  0.111  0.346-  20 2.92  21 2.92  27 2.94  13 2.94   2 2.94  10 2.94  17 2.94   5 2.94
                             3 2.94  18 2.94  14 2.94  12 2.94
  12  0.778  0.111  0.346-  25 2.93  19 2.93  21 2.93  16 2.94  18 2.94   1 2.94  14 2.94  15 2.94
                             3 2.94   6 2.94  10 2.94  11 2.94
  13  0.111  0.444  0.346-  23 2.92  20 2.92  22 2.94   5 2.94  18 2.94  11 2.94   7 2.94   4 2.94
                            16 2.94  10 2.94  14 2.94  15 2.94
  14  0.444  0.444  0.346-  21 2.92  23 2.92  24 2.94  15 2.94   6 2.94  12 2.94   8 2.94  17 2.94
                             5 2.94  16 2.94  13 2.94  11 2.94
  15  0.778  0.444  0.346-  24 2.92  22 2.92  19 2.93  14 2.94   6 2.94  17 2.94  12 2.94   9 2.94
                             4 2.94  10 2.94  13 2.94  18 2.94
  16  0.111  0.778  0.346-  25 2.93  26 2.93  23 2.93  18 2.94  12 2.94   7 2.94   1 2.94   8 2.94
                            13 2.94  10 2.94  14 2.94  17 2.94
  17  0.444  0.778  0.346-  27 2.92  24 2.92  26 2.93   9 2.94  15 2.94   2 2.94  10 2.94  11 2.94
                             8 2.94  14 2.94  16 2.94  18 2.94
  18  0.778  0.778  0.346-  22 2.92  27 2.92  25 2.93  16 2.94   7 2.94  13 2.94  12 2.94   3 2.94
                            11 2.94   9 2.94  15 2.94  17 2.94
  19  0.889  0.222  0.454-  10 2.93  12 2.93  15 2.93  26 2.94  25 2.94  24 2.94  22 2.94  21 2.95
                            20 2.95  28 2.95  32 3.03  31 3.03
  20  0.223  0.223  0.453-  36 2.76  23 2.91  21 2.91  11 2.92  13 2.92  10 2.93  27 2.95  22 2.95
                            26 2.95  19 2.95  29 2.96  31 2.96
  21  0.554  0.223  0.453-  36 2.76  20 2.91  23 2.91  14 2.92  11 2.92  12 2.93  27 2.95  24 2.95
                            25 2.95  19 2.95  30 2.96  32 2.96
  22  0.887  0.556  0.454-  24 2.92  27 2.92  18 2.92  15 2.92  13 2.94  25 2.94  19 2.94  23 2.95
                            20 2.95  35 2.96  33 2.99  31 2.99
  23  0.223  0.554  0.453-  36 2.76  20 2.91  21 2.91  13 2.92  14 2.92  16 2.93  22 2.95  24 2.95
                            25 2.95  26 2.95  33 2.96  34 2.96
  24  0.556  0.556  0.454-  27 2.92  22 2.92  15 2.92  17 2.92  14 2.94  26 2.94  19 2.94  21 2.95
                            23 2.95  35 2.96  32 2.99  34 2.99
  25  0.889  0.889  0.454-  16 2.93  12 2.93  18 2.93  19 2.94  26 2.94  22 2.94  27 2.94  23 2.95
                            21 2.95  28 2.95  33 3.03  30 3.03
  26  0.222  0.889  0.454-  10 2.93  16 2.93  17 2.93  19 2.94  25 2.94  27 2.94  24 2.94  20 2.95
                            23 2.95  28 2.95  29 3.03  34 3.03
  27  0.556  0.887  0.454-  24 2.92  22 2.92  17 2.92  18 2.92  11 2.94  26 2.94  25 2.94  20 2.95
                            21 2.95  35 2.96  29 2.99  30 2.99
  28  0.000  0.000  0.563-  25 2.95  19 2.95  26 2.95  34 2.98  32 2.98  33 2.98  30 2.98  31 2.98
                            29 2.98
  29  0.334  0.009  0.564-  30 2.85  31 2.86  36 2.87  20 2.96  35 2.98  28 2.98  27 2.99  26 3.03
                            34 3.10
  30  0.657  0.009  0.564-  29 2.85  32 2.86  36 2.87  21 2.96  35 2.98  28 2.98  27 2.99  25 3.03
                            33 3.10
  31  0.009  0.334  0.564-  33 2.85  29 2.86  36 2.87  20 2.96  35 2.98  28 2.98  22 2.99  19 3.03
                            32 3.10
  32  0.657  0.334  0.564-  34 2.85  30 2.86  36 2.87  21 2.96  35 2.98  28 2.98  24 2.99  19 3.03
                            31 3.10
  33  0.009  0.657  0.564-  31 2.85  34 2.86  36 2.87  23 2.96  35 2.98  28 2.98  22 2.99  25 3.03
                            30 3.10
  34  0.334  0.657  0.564-  32 2.85  33 2.86  36 2.87  23 2.96  35 2.98  28 2.98  24 2.99  26 3.03
                            29 3.10
  35  0.667  0.667  0.563-  24 2.96  27 2.96  22 2.96  29 2.98  34 2.98  32 2.98  31 2.98  30 2.98
                            33 2.98
  36  0.333  0.333  0.552-  37 1.70  20 2.76  23 2.76  21 2.76  33 2.87  31 2.87  29 2.87  30 2.87
                            34 2.87  32 2.87
  37  0.333  0.333  0.629-  36 1.70
 
  LATTYP: Found a hexagonal cell.
 ALAT       =     8.8135128021
 C/A-ratio  =     2.5184286595
  
  Lattice vectors:
  
 A1 = (  -4.4067569092,  -7.6327256898,   0.0000000000)
 A2 = (   8.8135128021,   0.0000000000,   0.0000000000)
 A3 = (   0.0000000000,   0.0000000000,  22.1962032318)


Analysis of symmetry for initial positions (statically):
=====================================================================
 Subroutine PRICEL returns:
 Original cell was already a primitive cell.
 

 Routine SETGRP: Setting up the symmetry group for a 
 hexagonal supercell.


 Subroutine GETGRP returns: Found  6 space group operations
 (whereof  6 operations were pure point group operations)
 out of a pool of 24 trial point group operations.


The static configuration has the point symmetry C_3v.


Analysis of symmetry for dynamics (positions and initial velocities):
=====================================================================
 Subroutine PRICEL returns:
 Original cell was already a primitive cell.
 

 Routine SETGRP: Setting up the symmetry group for a 
 hexagonal supercell.


 Subroutine GETGRP returns: Found  6 space group operations
 (whereof  6 operations were pure point group operations)
 out of a pool of 24 trial point group operations.


The dynamic configuration has the point symmetry C_3v.


Analysis of constrained symmetry for selective dynamics:
=====================================================================
 Subroutine PRICEL returns:
 Original cell was already a primitive cell.
 

 Routine SETGRP: Setting up the symmetry group for a 
 hexagonal supercell.


 Subroutine GETGRP returns: Found  6 space group operations
 (whereof  6 operations were pure point group operations)
 out of a pool of 24 trial point group operations.


The constrained configuration has the point symmetry C_3v.


 Subroutine INISYM returns: Found  6 space group operations
 (whereof  6 operations are pure point group operations),
 and found     1 'primitive' translations


----------------------------------------------------------------------------------------

                                     Primitive cell                                     

  volume of cell :    1493.1636

  direct lattice vectors                    reciprocal lattice vectors
     8.813512802  0.000000000  0.000000000     0.113462137 -0.065507406  0.000000000
     4.406756909  7.632725690  0.000000000     0.000000000  0.131014796  0.000000000
     0.000000000  0.000000000 22.196203232     0.000000000  0.000000000  0.045052750

  length of vectors
     8.813512802  8.813512802 22.196203232     0.131014796  0.131014796  0.045052750

  position of ions in fractional coordinates (direct lattice)
     0.000000000  0.000000000  0.237895638
     0.333333343  0.000000000  0.237895638
     0.666666687  0.000000000  0.237895638
     1.000000000  0.333333343  0.237895638
     0.333333313  0.333333343  0.237895638
     0.666666687  0.333333343  0.237895638
     1.000000000  0.666666687  0.237895638
     0.333333343  0.666666687  0.237895638
     0.666666627  0.666666687  0.237895638
     0.111111119  0.111111112  0.345965207
     0.444444418  0.111111112  0.345965207
     0.777777791  0.111111112  0.345965207
     0.111111127  0.444444448  0.345965207
     0.444444478  0.444444448  0.345965207
     0.777777731  0.444444448  0.345965207
     0.111111090  0.777777791  0.345965207
     0.444444448  0.777777791  0.345965207
     0.777777851  0.777777791  0.345965207
     0.888890335  0.222219346  0.453830343
     0.223104134  0.223104119  0.453411008
     0.553791793  0.223104119  0.453411008
     0.887224075  0.556387993  0.453500620
     0.223104089  0.553791793  0.453411008
     0.556387993  0.556387993  0.453500620
     0.888890335  0.888890335  0.453830343
     0.222219376  0.888890335  0.453830343
     0.556387933  0.887224075  0.453500620
     0.000000000  0.000000000  0.562714781
     0.333746250  0.008952230  0.564495487
     0.657301550  0.008952230  0.564495487
     0.008952230  0.333746250  0.564495487
     0.657301550  0.333746250  0.564495487
     0.008952230  0.657301550  0.564495487
     0.333746250  0.657301550  0.564495487
     0.666666627  0.666666687  0.563240917
     0.333333313  0.333333343  0.552229238
     0.333333313  0.333333343  0.628765804

  ion indices of the primitive-cell ions
   primitive index   ion index
                 1           1
                 2           2
                 3           3
                 4           4
                 5           5
                 6           6
                 7           7
                 8           8
                 9           9
                10          10
                11          11
                12          12
                13          13
                14          14
                15          15
                16          16
                17          17
                18          18
                19          19
                20          20
                21          21
                22          22
                23          23
                24          24
                25          25
                26          26
                27          27
                28          28
                29          29
                30          30
                31          31
                32          32
                33          33
                34          34
                35          35
                36          36
                37          37

----------------------------------------------------------------------------------------

 
 
 KPOINTS: Automatic mesh                          

Automatic generation of k-mesh.
 Grid dimensions read from file:
 generate k-points for:    8    8    1

 Generating k-lattice:

  Cartesian coordinates                     Fractional coordinates (reciprocal lattice)
     0.014182767 -0.008188426  0.000000000     0.125000000 -0.000000000  0.000000000
     0.000000000  0.016376850  0.000000000     0.000000000  0.125000000  0.000000000
     0.000000000  0.000000000  0.045052750     0.000000000  0.000000000  1.000000000

  Length of vectors
     0.016376850  0.016376850  0.045052750

  Shift w.r.t. Gamma in fractional coordinates (k-lattice)
     0.000000000  0.000000000  0.000000000

 TETIRR: Found     36 inequivalent tetrahedra from      384
 
 Subroutine IBZKPT returns following result:
 ===========================================
 
 Found     10 irreducible k-points:
 
 Following reciprocal coordinates:
            Coordinates               Weight
  0.000000  0.000000  0.000000      1.000000
  0.125000 -0.000000  0.000000      6.000000
  0.250000 -0.000000  0.000000      6.000000
  0.375000  0.000000  0.000000      6.000000
  0.500000 -0.000000  0.000000      3.000000
  0.250000  0.125000  0.000000      6.000000
  0.375000  0.125000  0.000000     12.000000
  0.500000  0.125000  0.000000     12.000000
  0.500000  0.250000  0.000000      6.000000
 -0.375000  0.250000  0.000000      6.000000
 
 Following cartesian coordinates:
            Coordinates               Weight
  0.000000  0.000000  0.000000      1.000000
  0.014183 -0.008188  0.000000      6.000000
  0.028366 -0.016377  0.000000      6.000000
  0.042548 -0.024565  0.000000      6.000000
  0.056731 -0.032754  0.000000      3.000000
  0.028366 -0.000000  0.000000      6.000000
  0.042548 -0.008188  0.000000     12.000000
  0.056731 -0.016377  0.000000     12.000000
  0.056731 -0.000000  0.000000      6.000000
 -0.042548  0.057319  0.000000      6.000000
 


--------------------------------------------------------------------------------------------------------




 Dimension of arrays:
   k-points           NKPTS =     10   k-points in BZ     NKDIM =     10   number of bands    NBANDS=    252
   number of dos      NEDOS =    301   number of ions     NIONS =     37
   non local maximal  LDIM  =      6   non local SUM 2l+1 LMDIM =     18
   total plane-waves  NPLWV = 290304
   max r-space proj   IRMAX =   3166   max aug-charges    IRDMAX=  13626
   dimension x,y,z NGX =    48 NGY =   48 NGZ =  126
   dimension x,y,z NGXF=    96 NGYF=   96 NGZF=  252
   support grid    NGXF=    96 NGYF=   96 NGZF=  252
   ions per type =              35   1   1
   NGX,Y,Z   is equivalent  to a cutoff of   9.05,  9.05,  9.44 a.u.
   NGXF,Y,Z  is equivalent  to a cutoff of  18.11, 18.11, 18.87 a.u.

 SYSTEM =  unknown system                          
 POSCAR =  Au-Ti-O                                 

 Startparameter for this run:
   NWRITE =      2    write-flag & timer
   PREC   = normal    normal or accurate (medium, high low for compatibility)
   ISTART =      0    job   : 0-new  1-cont  2-samecut
   ICHARG =     11    charge: 1-file 2-atom 10-const
   ISPIN  =      1    spin polarized calculation?
   LNONCOLLINEAR =      F non collinear calculations
   LSORBIT =      F    spin-orbit coupling
   INIWAV =      1    electr: 0-lowe 1-rand  2-diag
   LASPH  =      F    aspherical Exc in radial PAW
   METAGGA=      F    non-selfconsistent MetaGGA calc.

 Electronic Relaxation 1
   ENCUT  =  500.0 eV  36.75 Ry    6.06 a.u.  16.07 16.07 40.47*2*pi/ulx,y,z
   ENINI  =  500.0     initial cutoff
   ENAUG  =  605.4 eV  augmentation charge cutoff
   NELM   =    150;   NELMIN=  2; NELMDL= -5     # of ELM steps 
   EDIFF  = 0.1E-04   stopping-criterion for ELM
   LREAL  =      T    real-space projection
   NLSPLINE    = F    spline interpolate recip. space projectors
   LCOMPAT=      F    compatible to vasp.4.4
   GGA_COMPAT  = T    GGA compatible to vasp.4.4-vasp.4.6
   LMAXPAW     = -100 max onsite density
   LMAXMIX     =    2 max onsite mixed and CHGCAR
   VOSKOWN=      0    Vosko Wilk Nusair interpolation
   ROPT   =   -0.00050  -0.00050  -0.00050
 Ionic relaxation
   EDIFFG = -.1E-01   stopping-criterion for IOM
   NSW    =      0    number of steps for IOM
   NBLOCK =      1;   KBLOCK =      1    inner block; outer block 
   IBRION =     -1    ionic relax: 0-MD 1-quasi-New 2-CG
   NFREE  =      1    steps in history (QN), initial steepest desc. (CG)
   ISIF   =      2    stress and relaxation
   IWAVPR =     10    prediction:  0-non 1-charg 2-wave 3-comb
   ISYM   =      2    0-nonsym 1-usesym 2-fastsym
   LCORR  =      T    Harris-Foulkes like correction to forces

   POTIM  = 0.5000    time-step for ionic-motion
   TEIN   =    0.0    initial temperature
   TEBEG  =    0.0;   TEEND  =   0.0 temperature during run
   SMASS  =  -3.00    Nose mass-parameter (am)
   estimated Nose-frequenzy (Omega)   =  0.10E-29 period in steps = 0.13E+47 mass=  -0.178E-26a.u.
   SCALEE = 1.0000    scale energy and forces
   NPACO  =    256;   APACO  = 16.0  distance and # of slots for P.C.
   PSTRESS=    0.0 pullay stress

  Mass of Ions in am
   POMASS = 196.97 47.88 16.00
  Ionic Valenz
   ZVAL   =  11.00  4.00  6.00
  Atomic Wigner-Seitz radii
   RWIGS  =  -1.00 -1.00 -1.00
  virtual crystal weights 
   VCA    =   1.00  1.00  1.00
   NELECT =     395.0000    total number of electrons
   NUPDOWN=      -1.0000    fix difference up-down

 DOS related values:
   EMIN   =  10.00;   EMAX   =-10.00  energy-range for DOS
   EFERMI =   0.00
   ISMEAR =    -5;   SIGMA  =   0.10  broadening in eV -4-tet -1-fermi 0-gaus

 Electronic relaxation 2 (details)
   IALGO  =     68    algorithm
   LDIAG  =      T    sub-space diagonalisation (order eigenvalues)
   LSUBROT=      F    optimize rotation matrix (better conditioning)
   TURBO    =      0    0=normal 1=particle mesh
   IRESTART =      0    0=no restart 2=restart with 2 vectors
   NREBOOT  =      0    no. of reboots
   NMIN     =      0    reboot dimension
   EREF     =   0.00    reference energy to select bands
   IMIX   =      4    mixing-type and parameters
     AMIX     =   0.40;   BMIX     =  1.00
     AMIX_MAG =   1.60;   BMIX_MAG =  1.00
     AMIN     =   0.10
     WC   =   100.;   INIMIX=   1;  MIXPRE=   1;  MAXMIX= -45

 Intra band minimization:
   WEIMIN = 0.0000     energy-eigenvalue tresh-hold
   EBREAK =  0.99E-08  absolut break condition
   DEPER  =   0.30     relativ break condition  

   TIME   =   0.40     timestep for ELM

  volume/ion in A,a.u.               =      40.36       272.33
  Fermi-wavevector in a.u.,A,eV,Ry     =   1.050924  1.985959 15.026842  1.104442
  Thomas-Fermi vector in A             =   2.185947
 
 Write flags
   LWAVE        =      F    write WAVECAR
   LDOWNSAMPLE  =      F    k-point downsampling of WAVECAR
   LCHARG       =      F    write CHGCAR
   LVTOT        =      F    write LOCPOT, total local potential
   LVHAR        =      F    write LOCPOT, Hartree potential only
   LELF         =      F    write electronic localiz. function (ELF)
   LORBIT       =     10    0 simple, 1 ext, 2 COOP (PROOUT), +10 PAW based schemes


 Dipole corrections
   LMONO  =      F    monopole corrections only (constant potential shift)
   LDIPOL =      F    correct potential (dipole corrections)
   IDIPOL =      0    1-x, 2-y, 3-z, 4-all directions 
   EPSILON=  1.0000000 bulk dielectric constant

 Exchange correlation treatment:
   GGA     =    --    GGA type
   LEXCH   =     8    internal setting for exchange type
   VOSKOWN=      0    Vosko Wilk Nusair interpolation
   LHFCALC =     F    Hartree Fock is set to
   LHFONE  =     F    Hartree Fock one center treatment
   AEXX    =    0.0000 exact exchange contribution

 Linear response parameters
   LEPSILON=     F    determine dielectric tensor
   LRPA    =     F    only Hartree local field effects (RPA)
   LNABLA  =     F    use nabla operator in PAW spheres
   LVEL    =     F    velocity operator in full k-point grid
   LINTERFAST=   F  fast interpolation
   KINTER  =     0    interpolate to denser k-point grid
   CSHIFT  =0.1000    complex shift for real part using Kramers Kronig
   OMEGAMAX=  -1.0    maximum frequency
   DEG_THRESHOLD= 0.2000000E-02 threshold for treating states as degnerate
   RTIME   =   -0.100 relaxation time in fs
  (WPLASMAI=    0.000 imaginary part of plasma frequency in eV, 0.658/RTIME)
   DFIELD  = 0.0000000 0.0000000 0.0000000 field for delta impulse in time
 
 Orbital magnetization related:
   ORBITALMAG=     F  switch on orbital magnetization
   LCHIMAG   =     F  perturbation theory with respect to B field
   DQ        =  0.001000  dq finite difference perturbation B field
   LLRAUG    =     F  two centre corrections for induced B field



--------------------------------------------------------------------------------------------------------


 Static calculation
 charge density and potential remain constant during run
 non-spin polarized calculation
 RMM-DIIS sequential band-by-band and
  variant of blocked Davidson during initial phase
 perform sub-space diagonalisation
    before iterative eigenvector-optimisation
 no mixing
 using additional bands           54
 real space projection scheme for non local part
 use partial core corrections
 calculate Harris-corrections to forces 
   (improved forces if not selfconsistent)
 use gradient corrections 
 WARNING: stress and forces are not correct
  (second derivative of E(xc) not defined)
 use of overlap-Matrix (Vanderbilt PP)
 Fermi weights with tetrahedron method with Bloechl corrections


--------------------------------------------------------------------------------------------------------


  energy-cutoff  :      500.00
  volume of cell :     1493.16
      direct lattice vectors                 reciprocal lattice vectors
     8.813512802  0.000000000  0.000000000     0.113462137 -0.065507406  0.000000000
     4.406756909  7.632725690  0.000000000     0.000000000  0.131014796  0.000000000
     0.000000000  0.000000000 22.196203232     0.000000000  0.000000000  0.045052750

  length of vectors
     8.813512802  8.813512802 22.196203232     0.131014796  0.131014796  0.045052750


 
 k-points in units of 2pi/SCALE and weight: Automatic mesh                          
   0.00000000  0.00000000  0.00000000       0.016
   0.01418277 -0.00818843  0.00000000       0.094
   0.02836553 -0.01637685  0.00000000       0.094
   0.04254830 -0.02456528  0.00000000       0.094
   0.05673107 -0.03275370  0.00000000       0.047
   0.02836553 -0.00000000  0.00000000       0.094
   0.04254830 -0.00818843  0.00000000       0.188
   0.05673107 -0.01637685  0.00000000       0.188
   0.05673107 -0.00000000  0.00000000       0.094
  -0.04254830  0.05731898  0.00000000       0.094
 
 k-points in reciprocal lattice and weights: Automatic mesh                          
   0.00000000  0.00000000  0.00000000       0.016
   0.12500000 -0.00000000  0.00000000       0.094
   0.25000000 -0.00000000  0.00000000       0.094
   0.37500000  0.00000000  0.00000000       0.094
   0.50000000 -0.00000000  0.00000000       0.047
   0.25000000  0.12500000  0.00000000       0.094
   0.37500000  0.12500000  0.00000000       0.188
   0.50000000  0.12500000  0.00000000       0.188
   0.50000000  0.25000000  0.00000000       0.094
  -0.37500000  0.25000000  0.00000000       0.094
 
 position of ions in fractional coordinates (direct lattice) 
   0.00000000  0.00000000  0.23789564
   0.33333334  0.00000000  0.23789564
   0.66666669  0.00000000  0.23789564
   0.00000000  0.33333334  0.23789564
   0.33333331  0.33333334  0.23789564
   0.66666669  0.33333334  0.23789564
   0.00000000  0.66666669  0.23789564
   0.33333334  0.66666669  0.23789564
   0.66666663  0.66666669  0.23789564
   0.11111112  0.11111111  0.34596521
   0.44444442  0.11111111  0.34596521
   0.77777779  0.11111111  0.34596521
   0.11111113  0.44444445  0.34596521
   0.44444448  0.44444445  0.34596521
   0.77777773  0.44444445  0.34596521
   0.11111109  0.77777779  0.34596521
   0.44444445  0.77777779  0.34596521
   0.77777785  0.77777779  0.34596521
   0.88889034  0.22221935  0.45383034
   0.22310413  0.22310412  0.45341101
   0.55379179  0.22310412  0.45341101
   0.88722407  0.55638799  0.45350062
   0.22310409  0.55379179  0.45341101
   0.55638799  0.55638799  0.45350062
   0.88889034  0.88889034  0.45383034
   0.22221938  0.88889034  0.45383034
   0.55638793  0.88722407  0.45350062
   0.00000000  0.00000000  0.56271478
   0.33374625  0.00895223  0.56449549
   0.65730155  0.00895223  0.56449549
   0.00895223  0.33374625  0.56449549
   0.65730155  0.33374625  0.56449549
   0.00895223  0.65730155  0.56449549
   0.33374625  0.65730155  0.56449549
   0.66666663  0.66666669  0.56324092
   0.33333331  0.33333334  0.55222924
   0.33333331  0.33333334  0.62876580
 
 position of ions in cartesian coordinates  (Angst):
   0.00000000  0.00000000  5.28037993
   2.93783769  0.00000000  5.28037993
   5.87567538  0.00000000  5.28037993
   1.46891901  2.54424197  5.28037993
   4.40675643  2.54424197  5.28037993
   7.34459439  2.54424197  5.28037993
   2.93783803  5.08848395  5.28037993
   5.87567571  5.08848395  5.28037993
   8.81351288  5.08848395  5.28037993
   1.46891893  0.84808064  7.67911405
   4.40675623  0.84808064  7.67911405
   7.34459418  0.84808064  7.67911405
   2.93783798  3.39232256  7.67911405
   5.87567574  3.39232256  7.67911405
   8.81351263  3.39232256  7.67911405
   4.40675667  5.93656453  7.67911405
   7.34459449  5.93656453  7.67911405
  10.28243270  5.93656453  7.67911405
   8.81351299  1.69613931 10.07331052
   2.94949675  1.70289254 10.06400288
   5.86401667  1.70289254 10.06400288
  10.27142737  4.24675692 10.06599193
   4.40675655  4.22694084 10.06400288
   7.35559933  4.24675692 10.06599193
  11.75136997  6.78465610 10.07331052
   5.87565694  6.78465610 10.07331052
   8.81351299  6.77193799 10.06599193
   0.00000000  0.00000000 12.49013164
   2.98092715  0.06832991 12.52965656
   5.83258592  0.06832991 12.52965656
   1.54963919  2.54739358 12.52965656
   7.26387422  2.54739358 12.52965656
   2.97546874  5.01700243 12.52965656
   5.83804500  5.01700243 12.52965656
   8.81351288  5.08848395 12.50180987
   4.40675643  2.54424197 12.25739240
   4.40675643  2.54424197 13.95621357
 


--------------------------------------------------------------------------------------------------------


 k-point   1 :   0.0000 0.0000 0.0000  plane waves:   37827
 k-point   2 :   0.1250-0.0000 0.0000  plane waves:   37876
 k-point   3 :   0.2500-0.0000 0.0000  plane waves:   37924
 k-point   4 :   0.3750 0.0000 0.0000  plane waves:   37904
 k-point   5 :   0.5000-0.0000 0.0000  plane waves:   37912
 k-point   6 :   0.2500 0.1250 0.0000  plane waves:   37858
 k-point   7 :   0.3750 0.1250 0.0000  plane waves:   37928
 k-point   8 :   0.5000 0.1250 0.0000  plane waves:   37924
 k-point   9 :   0.5000 0.2500 0.0000  plane waves:   37926
 k-point  10 :  -0.3750 0.2500 0.0000  plane waves:   37916

 maximum and minimum number of plane-waves per node :     37928    37827

 maximum number of plane-waves:     37928
 maximum index in each direction: 
   IXMAX=   16   IYMAX=   16   IZMAX=   40
   IXMIN=  -16   IYMIN=  -16   IZMIN=  -40


 serial   3D FFT for wavefunctions
 parallel 3D FFT for charge:
    minimum data exchange during FFTs selected (reduces bandwidth)


 total amount of memory used by VASP MPI-rank0   122511. kBytes
=======================================================================

   base      :      30000. kBytes
   nonlr-proj:      14126. kBytes
   fftplans  :       4330. kBytes
   grid      :      17879. kBytes
   one-center:        575. kBytes
   wavefun   :      55601. kBytes
 
     INWAV:  cpu time    0.0000: real time    0.0000
 initial charge density was supplied:
 number of electron     395.0000016 magnetization 
 keeping initial charge density in first step


--------------------------------------------------------------------------------------------------------


 Maximum index for non-local projection operator         3024
 Maximum index for augmentation-charges          858 (set IRDMAX)


--------------------------------------------------------------------------------------------------------


 First call to EWALD:  gamma=   0.155
 Maximum number of real-space cells 4x 4x 2
 Maximum number of reciprocal cells 2x 2x 5

    FEWALD:  cpu time    0.0013: real time    0.0014


--------------------------------------- Iteration      1(   1)  ---------------------------------------


    POTLOK:  cpu time    0.0424: real time    0.0428
    SETDIJ:  cpu time    0.0050: real time    0.0052
     EDDAV:  cpu time    7.1261: real time    7.1281
 BZINTS: Fermi energy:   11.185995;  395.000000 electrons
         Band energy: 0.149191E+04;  BLOECHL correction:   -0.012768
       DOS:  cpu time    0.0105: real time    0.0105
    --------------------------------------------
      LOOP:  cpu time    7.1839: real time    7.1867

 eigenvalue-minimisations  :  5040
 total energy-change (2. order) : 0.2636905E+04  (-0.1783162E+05)
 number of electron     395.0000016 magnetization 
 augmentation part      395.0000016 magnetization 

 Free energy of the ion-electron system (eV)
  ---------------------------------------------------
  alpha Z        PSCENC =      1009.86031971
  Ewald energy   TEWEN  =     94344.51438159
  -Hartree energ DENC   =   -128425.43828146
  -exchange      EXHF   =         0.00000000
  -V(xc)+E(xc)   XCENC  =       508.72505809
  PAW double counting   =     35978.79726468   -35211.49493235
  entropy T*S    EENTRO =         0.00000000
  eigenvalues    EBANDS =      1491.90635469
  atomic energy  EATOM  =     32940.03528348
  Solvation  Ediel_sol  =         0.00000000
  ---------------------------------------------------
  free energy    TOTEN  =      2636.90544842 eV

  energy without entropy =     2636.90544842  energy(sigma->0) =     2636.90544842


--------------------------------------------------------------------------------------------------------




--------------------------------------- Iteration      1(   2)  ---------------------------------------


     EDDAV:  cpu time    7.7187: real time    7.7222
 BZINTS: Fermi energy:    1.283308;  395.000000 electrons
         Band energy:-0.112993E+04;  BLOECHL correction:   -0.055524
       DOS:  cpu time    0.0095: real time    0.0095
    --------------------------------------------
      LOOP:  cpu time    7.7282: real time    7.7317

 eigenvalue-minimisations  :  5600
 total energy-change (2. order) :-0.2621837E+04  (-0.2410095E+04)
 number of electron     395.0000016 magnetization 
 augmentation part      395.0000016 magnetization 

 Free energy of the ion-electron system (eV)
  ---------------------------------------------------
  alpha Z        PSCENC =      1009.86031971
  Ewald energy   TEWEN  =     94344.51438159
  -Hartree energ DENC   =   -128425.43828146
  -exchange      EXHF   =         0.00000000
  -V(xc)+E(xc)   XCENC  =       508.72505809
  PAW double counting   =     35978.79726468   -35211.49493235
  entropy T*S    EENTRO =         0.00000000
  eigenvalues    EBANDS =     -1129.93025547
  atomic energy  EATOM  =     32940.03528348
  Solvation  Ediel_sol  =         0.00000000
  ---------------------------------------------------
  free energy    TOTEN  =        15.06883826 eV

  energy without entropy =       15.06883826  energy(sigma->0) =       15.06883826


--------------------------------------------------------------------------------------------------------




--------------------------------------- Iteration      1(   3)  ---------------------------------------


     EDDAV:  cpu time    8.1785: real time    8.1787
 BZINTS: Fermi energy:    0.614676;  395.000000 electrons
         Band energy:-0.126507E+04;  BLOECHL correction:   -0.081089
       DOS:  cpu time    0.0102: real time    0.0102
    --------------------------------------------
      LOOP:  cpu time    8.1888: real time    8.1890

 eigenvalue-minimisations  :  5992
 total energy-change (2. order) :-0.1351444E+03  (-0.1306664E+03)
 number of electron     395.0000016 magnetization 
 augmentation part      395.0000016 magnetization 

 Free energy of the ion-electron system (eV)
  ---------------------------------------------------
  alpha Z        PSCENC =      1009.86031971
  Ewald energy   TEWEN  =     94344.51438159
  -Hartree energ DENC   =   -128425.43828146
  -exchange      EXHF   =         0.00000000
  -V(xc)+E(xc)   XCENC  =       508.72505809
  PAW double counting   =     35978.79726468   -35211.49493235
  entropy T*S    EENTRO =         0.00000000
  eigenvalues    EBANDS =     -1265.07464591
  atomic energy  EATOM  =     32940.03528348
  Solvation  Ediel_sol  =         0.00000000
  ---------------------------------------------------
  free energy    TOTEN  =      -120.07555218 eV

  energy without entropy =     -120.07555218  energy(sigma->0) =     -120.07555218


--------------------------------------------------------------------------------------------------------




--------------------------------------- Iteration      1(   4)  ---------------------------------------


     EDDAV:  cpu time    7.6395: real time    7.6396
 BZINTS: Fermi energy:    0.599222;  395.000000 electrons
         Band energy:-0.126752E+04;  BLOECHL correction:   -0.080337
       DOS:  cpu time    0.0096: real time    0.0096
    --------------------------------------------
      LOOP:  cpu time    7.6491: real time    7.6492

 eigenvalue-minimisations  :  5516
 total energy-change (2. order) :-0.2440440E+01  (-0.2434518E+01)
 number of electron     395.0000016 magnetization 
 augmentation part      395.0000016 magnetization 

 Free energy of the ion-electron system (eV)
  ---------------------------------------------------
  alpha Z        PSCENC =      1009.86031971
  Ewald energy   TEWEN  =     94344.51438159
  -Hartree energ DENC   =   -128425.43828146
  -exchange      EXHF   =         0.00000000
  -V(xc)+E(xc)   XCENC  =       508.72505809
  PAW double counting   =     35978.79726468   -35211.49493235
  entropy T*S    EENTRO =         0.00000000
  eigenvalues    EBANDS =     -1267.51508552
  atomic energy  EATOM  =     32940.03528348
  Solvation  Ediel_sol  =         0.00000000
  ---------------------------------------------------
  free energy    TOTEN  =      -122.51599178 eV

  energy without entropy =     -122.51599178  energy(sigma->0) =     -122.51599178


--------------------------------------------------------------------------------------------------------




--------------------------------------- Iteration      1(   5)  ---------------------------------------


     EDDAV:  cpu time    8.5629: real time    8.5630
 BZINTS: Fermi energy:    0.598923;  395.000000 electrons
         Band energy:-0.126760E+04;  BLOECHL correction:   -0.080323
       DOS:  cpu time    0.0096: real time    0.0096
    --------------------------------------------
      LOOP:  cpu time    8.5726: real time    8.5726

 eigenvalue-minimisations  :  6328
 total energy-change (2. order) :-0.8051614E-01  (-0.8050775E-01)
 number of electron     395.0000016 magnetization 
 augmentation part      395.0000016 magnetization 

 Free energy of the ion-electron system (eV)
  ---------------------------------------------------
  alpha Z        PSCENC =      1009.86031971
  Ewald energy   TEWEN  =     94344.51438159
  -Hartree energ DENC   =   -128425.43828146
  -exchange      EXHF   =         0.00000000
  -V(xc)+E(xc)   XCENC  =       508.72505809
  PAW double counting   =     35978.79726468   -35211.49493235
  entropy T*S    EENTRO =         0.00000000
  eigenvalues    EBANDS =     -1267.59560166
  atomic energy  EATOM  =     32940.03528348
  Solvation  Ediel_sol  =         0.00000000
  ---------------------------------------------------
  free energy    TOTEN  =      -122.59650792 eV

  energy without entropy =     -122.59650792  energy(sigma->0) =     -122.59650792


--------------------------------------------------------------------------------------------------------




--------------------------------------- Iteration      1(   6)  ---------------------------------------


    EDDIAG:  cpu time    1.4013: real time    1.4017
  RMM-DIIS:  cpu time    3.9134: real time    3.9135
    ORTHCH:  cpu time    0.2609: real time    0.2609
 BZINTS: Fermi energy:    0.598917;  395.000000 electrons
         Band energy:-0.126760E+04;  BLOECHL correction:   -0.080323
       DOS:  cpu time    0.0100: real time    0.0100
    --------------------------------------------
      LOOP:  cpu time    5.5856: real time    5.5860

 eigenvalue-minimisations  :  5088
 total energy-change (2. order) :-0.1499910E-02  (-0.1500187E-02)
 number of electron     395.0000016 magnetization 
 augmentation part      395.0000016 magnetization 

 Free energy of the ion-electron system (eV)
  ---------------------------------------------------
  alpha Z        PSCENC =      1009.86031971
  Ewald energy   TEWEN  =     94344.51438159
  -Hartree energ DENC   =   -128425.43828146
  -exchange      EXHF   =         0.00000000
  -V(xc)+E(xc)   XCENC  =       508.72505809
  PAW double counting   =     35978.79726468   -35211.49493235
  entropy T*S    EENTRO =         0.00000000
  eigenvalues    EBANDS =     -1267.59710157
  atomic energy  EATOM  =     32940.03528348
  Solvation  Ediel_sol  =         0.00000000
  ---------------------------------------------------
  free energy    TOTEN  =      -122.59800783 eV

  energy without entropy =     -122.59800783  energy(sigma->0) =     -122.59800783


--------------------------------------------------------------------------------------------------------




--------------------------------------- Iteration      1(   7)  ---------------------------------------


    EDDIAG:  cpu time    1.4007: real time    1.4008
  RMM-DIIS:  cpu time    5.2308: real time    5.2309
    ORTHCH:  cpu time    0.2607: real time    0.2607
 BZINTS: Fermi energy:    0.598915;  395.000000 electrons
         Band energy:-0.126760E+04;  BLOECHL correction:   -0.080322
       DOS:  cpu time    0.0100: real time    0.0100
    --------------------------------------------
      LOOP:  cpu time    6.9022: real time    6.9024

 eigenvalue-minimisations  :  6796
 total energy-change (2. order) :-0.4766065E-03  (-0.4736424E-03)
 number of electron     395.0000016 magnetization 
 augmentation part      395.0000016 magnetization 

 Free energy of the ion-electron system (eV)
  ---------------------------------------------------
  alpha Z        PSCENC =      1009.86031971
  Ewald energy   TEWEN  =     94344.51438159
  -Hartree energ DENC   =   -128425.43828146
  -exchange      EXHF   =         0.00000000
  -V(xc)+E(xc)   XCENC  =       508.72505809
  PAW double counting   =     35978.79726468   -35211.49493235
  entropy T*S    EENTRO =         0.00000000
  eigenvalues    EBANDS =     -1267.59757817
  atomic energy  EATOM  =     32940.03528348
  Solvation  Ediel_sol  =         0.00000000
  ---------------------------------------------------
  free energy    TOTEN  =      -122.59848444 eV

  energy without entropy =     -122.59848444  energy(sigma->0) =     -122.59848444


--------------------------------------------------------------------------------------------------------




--------------------------------------- Iteration      1(   8)  ---------------------------------------


    EDDIAG:  cpu time    1.4041: real time    1.4043
  RMM-DIIS:  cpu time    4.4976: real time    4.4977
    ORTHCH:  cpu time    0.2608: real time    0.2608
 BZINTS: Fermi energy:    0.598915;  395.000000 electrons
         Band energy:-0.126760E+04;  BLOECHL correction:   -0.080322
       DOS:  cpu time    0.0100: real time    0.0100
    --------------------------------------------
      LOOP:  cpu time    6.1725: real time    6.1727

 eigenvalue-minimisations  :  5793
 total energy-change (2. order) :-0.5213593E-04  (-0.5166651E-04)
 number of electron     395.0000016 magnetization 
 augmentation part      395.0000016 magnetization 

 Free energy of the ion-electron system (eV)
  ---------------------------------------------------
  alpha Z        PSCENC =      1009.86031971
  Ewald energy   TEWEN  =     94344.51438159
  -Hartree energ DENC   =   -128425.43828146
  -exchange      EXHF   =         0.00000000
  -V(xc)+E(xc)   XCENC  =       508.72505809
  PAW double counting   =     35978.79726468   -35211.49493235
  entropy T*S    EENTRO =         0.00000000
  eigenvalues    EBANDS =     -1267.59763031
  atomic energy  EATOM  =     32940.03528348
  Solvation  Ediel_sol  =         0.00000000
  ---------------------------------------------------
  free energy    TOTEN  =      -122.59853658 eV

  energy without entropy =     -122.59853658  energy(sigma->0) =     -122.59853658


--------------------------------------------------------------------------------------------------------




--------------------------------------- Iteration      1(   9)  ---------------------------------------


    EDDIAG:  cpu time    1.4012: real time    1.4014
  RMM-DIIS:  cpu time    3.0665: real time    3.0666
    ORTHCH:  cpu time    0.2605: real time    0.2605
 BZINTS: Fermi energy:    0.598915;  395.000000 electrons
         Band energy:-0.126760E+04;  BLOECHL correction:   -0.080322
       DOS:  cpu time    0.0101: real time    0.0101
    --------------------------------------------
      LOOP:  cpu time    4.7384: real time    4.7386

 eigenvalue-minimisations  :  3310
 total energy-change (2. order) :-0.4497051E-05  (-0.4419651E-05)
 number of electron     395.0000016 magnetization 
 augmentation part      395.0000016 magnetization 

 Free energy of the ion-electron system (eV)
  ---------------------------------------------------
  alpha Z        PSCENC =      1009.86031971
  Ewald energy   TEWEN  =     94344.51438159
  -Hartree energ DENC   =   -128425.43828146
  -exchange      EXHF   =         0.00000000
  -V(xc)+E(xc)   XCENC  =       508.72505809
  PAW double counting   =     35978.79726468   -35211.49493235
  entropy T*S    EENTRO =         0.00000000
  eigenvalues    EBANDS =     -1267.59763481
  atomic energy  EATOM  =     32940.03528348
  Solvation  Ediel_sol  =         0.00000000
  ---------------------------------------------------
  free energy    TOTEN  =      -122.59854107 eV

  energy without entropy =     -122.59854107  energy(sigma->0) =     -122.59854107


--------------------------------------------------------------------------------------------------------




 average (electrostatic) potential at core
  the test charge radii are     1.2098  1.2598  0.7215
  (the norm of the test charge is              1.0000)
       1 -72.4368       2 -72.4296       3 -72.4296       4 -72.4296       5 -72.4420
       6 -72.4293       7 -72.4296       8 -72.4293       9 -72.4300      10 -72.7699
      11 -72.7562      12 -72.7698      13 -72.7562      14 -72.7559      15 -72.7644
      16 -72.7698      17 -72.7644      18 -72.7645      19 -72.7197      20 -73.0269
      21 -73.0269      22 -72.7439      23 -73.0269      24 -72.7437      25 -72.7199
      26 -72.7197      27 -72.7438      28 -72.4243      29 -72.5175      30 -72.5176
      31 -72.5175      32 -72.5174      33 -72.5176      34 -72.5174      35 -72.4034
      36 -29.8396      37 -74.6849
 
 
 
 E-fermi :   0.5989     XC(G=0):  -6.1198     alpha+bet : -5.7433

 Fermi energy:         0.5989148481

 k-point     1 :       0.0000    0.0000    0.0000
  band No.  band energies     occupation 
      1     -16.4200      2.00000
      2      -8.2175      2.00000
      3      -7.0334      2.00000
      4      -6.1021      2.00000
      5      -6.0864      2.00000
      6      -6.0864      2.00000
      7      -6.0815      2.00000
      8      -6.0554      2.00000
      9      -6.0257      2.00000
     10      -6.0256      2.00000
     11      -5.9793      2.00000
     12      -5.6083      2.00000
     13      -5.6083      2.00000
     14      -5.6083      2.00000
     15      -5.5497      2.00000
     16      -5.5373      2.00000
     17      -5.5372      2.00000
     18      -5.2242      2.00000
     19      -5.2242      2.00000
     20      -5.2107      2.00000
     21      -5.1903      2.00000
     22      -5.1602      2.00000
     23      -5.1602      2.00000
     24      -5.0388      2.00000
     25      -5.0329      2.00000
     26      -5.0329      2.00000
     27      -5.0107      2.00000
     28      -5.0107      2.00000
     29      -5.0063      2.00000
     30      -4.8797      2.00000
     31      -4.8650      2.00000
     32      -4.8650      2.00000
     33      -4.8530      2.00000
     34      -4.8529      2.00000
     35      -4.8428      2.00000
     36      -4.8428      2.00000
     37      -4.8299      2.00000
     38      -4.8135      2.00000
     39      -4.7384      2.00000
     40      -4.7384      2.00000
     41      -4.7293      2.00000
     42      -4.3504      2.00000
     43      -4.3504      2.00000
     44      -4.3492      2.00000
     45      -4.3295      2.00000
     46      -4.3295      2.00000
     47      -4.2925      2.00000
     48      -4.2924      2.00000
     49      -4.2849      2.00000
     50      -4.2474      2.00000
     51      -4.2474      2.00000
     52      -4.1870      2.00000
     53      -4.1787      2.00000
     54      -4.1523      2.00000
     55      -4.1155      2.00000
     56      -3.8238      2.00000
     57      -3.7923      2.00000
     58      -3.7923      2.00000
     59      -3.7852      2.00000
     60      -3.7804      2.00000
     61      -3.7804      2.00000
     62      -3.7654      2.00000
     63      -3.7092      2.00000
     64      -3.7092      2.00000
     65      -3.6448      2.00000
     66      -3.6448      2.00000
     67      -3.6246      2.00000
     68      -3.6200      2.00000
     69      -3.6200      2.00000
     70      -3.5794      2.00000
     71      -3.5707      2.00000
     72      -3.5707      2.00000
     73      -3.5188      2.00000
     74      -3.5188      2.00000
     75      -3.5157      2.00000
     76      -3.5064      2.00000
     77      -3.5005      2.00000
     78      -3.5005      2.00000
     79      -3.4958      2.00000
     80      -3.4958      2.00000
     81      -3.4692      2.00000
     82      -3.4692      2.00000
     83      -3.4301      2.00000
     84      -3.3942      2.00000
     85      -3.3942      2.00000
     86      -3.3933      2.00000
     87      -3.3639      2.00000
     88      -3.3638      2.00000
     89      -3.3493      2.00000
     90      -3.3492      2.00000
     91      -3.3236      2.00000
     92      -3.2722      2.00000
     93      -3.2722      2.00000
     94      -3.2216      2.00000
     95      -3.2215      2.00000
     96      -3.0730      2.00000
     97      -3.0730      2.00000
     98      -3.0672      2.00000
     99      -3.0672      2.00000
    100      -2.9382      2.00000
    101      -2.9382      2.00000
    102      -2.9346      2.00000
    103      -2.9187      2.00000
    104      -2.9107      2.00000
    105      -2.9107      2.00000
    106      -2.7509      2.00000
    107      -2.7383      2.00000
    108      -2.7342      2.00000
    109      -2.7342      2.00000
    110      -2.6895      2.00000
    111      -2.6895      2.00000
    112      -2.6752      2.00000
    113      -2.6752      2.00000
    114      -2.6234      2.00000
    115      -2.5964      2.00000
    116      -2.5887      2.00000
    117      -2.5694      2.00000
    118      -2.5693      2.00000
    119      -2.4506      2.00000
    120      -2.4076      2.00000
    121      -2.4076      2.00000
    122      -2.3810      2.00000
    123      -2.3800      2.00000
    124      -2.3800      2.00000
    125      -2.3234      2.00000
    126      -2.3234      2.00000
    127      -2.3027      2.00000
    128      -2.3027      2.00000
    129      -2.2602      2.00000
    130      -2.2602      2.00000
    131      -2.2520      2.00000
    132      -2.1617      2.00000
    133      -2.1552      2.00000
    134      -2.1552      2.00000
    135      -2.1298      2.00000
    136      -2.1294      2.00000
    137      -2.1294      2.00000
    138      -2.1170      2.00000
    139      -2.1092      2.00000
    140      -2.1091      2.00000
    141      -2.0338      2.00000
    142      -2.0338      2.00000
    143      -1.9573      2.00000
    144      -1.9424      2.00000
    145      -1.9424      2.00000
    146      -1.9185      2.00000
    147      -1.9004      2.00000
    148      -1.9004      2.00000
    149      -1.8725      2.00000
    150      -1.8725      2.00000
    151      -1.8660      2.00000
    152      -1.8349      2.00000
    153      -1.8206      2.00000
    154      -1.8205      2.00000
    155      -1.8161      2.00000
    156      -1.7892      2.00000
    157      -1.7892      2.00000
    158      -1.7709      2.00000
    159      -1.7284      2.00000
    160      -1.7284      2.00000
    161      -1.7212      2.00000
    162      -1.7196      2.00000
    163      -1.6709      2.00000
    164      -1.6709      2.00000
    165      -1.6642      2.00000
    166      -1.6642      2.00000
    167      -1.6499      2.00000
    168      -1.6354      2.00000
    169      -1.6353      2.00000
    170      -1.6200      2.00000
    171      -1.5963      2.00000
    172      -1.5734      2.00000
    173      -1.5733      2.00000
    174      -1.5524      2.00000
    175      -1.5488      2.00000
    176      -1.5455      2.00000
    177      -1.5455      2.00000
    178      -1.5317      2.00000
    179      -1.5145      2.00000
    180      -1.5145      2.00000
    181      -1.4711      2.00000
    182      -1.4658      2.00000
    183      -1.4658      2.00000
    184      -1.4344      2.00000
    185      -1.4344      2.00000
    186      -1.4186      2.00000
    187      -1.3184      2.00000
    188      -1.3183      2.00000
    189      -1.2958      2.00000
    190      -1.2722      2.00000
    191      -1.2722      2.00000
    192      -1.2509      2.00000
    193      -1.2509      2.00000
    194      -1.2472      2.00000
    195      -0.4040      2.00000
    196      -0.0212      2.00000
    197      -0.0115      2.00000
    198      -0.0115      2.00000
    199       0.0958      2.00000
    200       0.1256      2.00000
    201       0.1256      2.00000
    202       1.0320      0.00000
    203       1.2856      0.00000
    204       1.2856      0.00000
    205       1.9255      0.00000
    206       1.9761      0.00000
    207       1.9761      0.00000
    208       2.1277      0.00000
    209       2.1744      0.00000
    210       2.1744      0.00000
    211       2.7319      0.00000
    212       2.7319      0.00000
    213       3.3921      0.00000
    214       3.3921      0.00000
    215       3.4061      0.00000
    216       3.5937      0.00000
    217       3.6339      0.00000
    218       3.6339      0.00000
    219       3.9677      0.00000
    220       4.2437      0.00000
    221       4.8572      0.00000
    222       5.2511      0.00000
    223       5.2512      0.00000
    224       5.2514      0.00000
    225       5.2963      0.00000
    226       5.2963      0.00000
    227       5.3567      0.00000
    228       5.4200      0.00000
    229       5.4200      0.00000
    230       5.4983      0.00000
    231       5.4983      0.00000
    232       5.6828      0.00000
    233       5.8091      0.00000
    234       6.0301      0.00000
    235       6.7643      0.00000
    236       6.9213      0.00000
    237       6.9247      0.00000
    238       6.9250      0.00000
    239       6.9733      0.00000
    240       6.9739      0.00000
    241       6.9887      0.00000
    242       7.0190      0.00000
    243       7.0196      0.00000
    244       7.1186      0.00000
    245       7.1192      0.00000
    246       7.1222      0.00000
    247       7.1877      0.00000
    248       7.3216      0.00000
    249       7.3236      0.00000
    250       7.3841      0.00000
    251       7.4472      0.00000
    252       7.4649      0.00000

 k-point     2 :       0.1250   -0.0000    0.0000
  band No.  band energies     occupation 
      1     -16.4201      2.00000
      2      -8.1666      2.00000
      3      -6.9837      2.00000
      4      -6.3155      2.00000
      5      -6.1396      2.00000
      6      -6.1362      2.00000
      7      -6.0408      2.00000
      8      -5.9730      2.00000
      9      -5.9397      2.00000
     10      -5.9377      2.00000
     11      -5.9160      2.00000
     12      -5.6400      2.00000
     13      -5.5843      2.00000
     14      -5.5840      2.00000
     15      -5.5737      2.00000
     16      -5.5198      2.00000
     17      -5.5138      2.00000
     18      -5.2633      2.00000
     19      -5.2145      2.00000
     20      -5.2124      2.00000
     21      -5.1725      2.00000
     22      -5.1448      2.00000
     23      -5.1414      2.00000
     24      -5.0947      2.00000
     25      -5.0466      2.00000
     26      -5.0438      2.00000
     27      -4.9856      2.00000
     28      -4.9748      2.00000
     29      -4.9393      2.00000
     30      -4.9339      2.00000
     31      -4.9329      2.00000
     32      -4.9009      2.00000
     33      -4.8965      2.00000
     34      -4.8495      2.00000
     35      -4.8333      2.00000
     36      -4.8221      2.00000
     37      -4.7318      2.00000
     38      -4.7241      2.00000
     39      -4.7112      2.00000
     40      -4.6969      2.00000
     41      -4.6864      2.00000
     42      -4.4130      2.00000
     43      -4.4116      2.00000
     44      -4.3918      2.00000
     45      -4.3700      2.00000
     46      -4.3574      2.00000
     47      -4.3491      2.00000
     48      -4.3146      2.00000
     49      -4.2474      2.00000
     50      -4.2293      2.00000
     51      -4.1935      2.00000
     52      -4.1561      2.00000
     53      -4.1466      2.00000
     54      -4.1345      2.00000
     55      -4.1100      2.00000
     56      -3.8603      2.00000
     57      -3.8320      2.00000
     58      -3.8191      2.00000
     59      -3.8128      2.00000
     60      -3.7896      2.00000
     61      -3.7815      2.00000
     62      -3.7683      2.00000
     63      -3.7562      2.00000
     64      -3.7283      2.00000
     65      -3.7043      2.00000
     66      -3.6953      2.00000
     67      -3.6921      2.00000
     68      -3.6738      2.00000
     69      -3.6591      2.00000
     70      -3.6425      2.00000
     71      -3.6206      2.00000
     72      -3.6116      2.00000
     73      -3.5807      2.00000
     74      -3.5794      2.00000
     75      -3.5659      2.00000
     76      -3.5572      2.00000
     77      -3.5274      2.00000
     78      -3.4844      2.00000
     79      -3.4791      2.00000
     80      -3.4607      2.00000
     81      -3.4423      2.00000
     82      -3.4127      2.00000
     83      -3.4051      2.00000
     84      -3.3916      2.00000
     85      -3.3737      2.00000
     86      -3.3572      2.00000
     87      -3.3409      2.00000
     88      -3.3148      2.00000
     89      -3.3144      2.00000
     90      -3.2922      2.00000
     91      -3.2872      2.00000
     92      -3.2420      2.00000
     93      -3.2291      2.00000
     94      -3.1977      2.00000
     95      -3.1950      2.00000
     96      -3.1613      2.00000
     97      -3.1572      2.00000
     98      -3.0477      2.00000
     99      -3.0279      2.00000
    100      -3.0179      2.00000
    101      -2.9529      2.00000
    102      -2.9339      2.00000
    103      -2.9279      2.00000
    104      -2.9105      2.00000
    105      -2.8854      2.00000
    106      -2.8756      2.00000
    107      -2.8294      2.00000
    108      -2.7645      2.00000
    109      -2.7431      2.00000
    110      -2.7335      2.00000
    111      -2.7077      2.00000
    112      -2.6958      2.00000
    113      -2.6831      2.00000
    114      -2.6762      2.00000
    115      -2.6558      2.00000
    116      -2.6498      2.00000
    117      -2.6169      2.00000
    118      -2.6144      2.00000
    119      -2.5922      2.00000
    120      -2.5628      2.00000
    121      -2.5003      2.00000
    122      -2.4933      2.00000
    123      -2.4051      2.00000
    124      -2.3821      2.00000
    125      -2.3800      2.00000
    126      -2.3527      2.00000
    127      -2.3376      2.00000
    128      -2.3086      2.00000
    129      -2.3019      2.00000
    130      -2.2790      2.00000
    131      -2.2756      2.00000
    132      -2.2700      2.00000
    133      -2.2461      2.00000
    134      -2.2435      2.00000
    135      -2.2065      2.00000
    136      -2.1487      2.00000
    137      -2.1469      2.00000
    138      -2.1248      2.00000
    139      -2.1082      2.00000
    140      -2.0711      2.00000
    141      -2.0661      2.00000
    142      -2.0504      2.00000
    143      -2.0469      2.00000
    144      -2.0287      2.00000
    145      -1.9788      2.00000
    146      -1.9577      2.00000
    147      -1.9217      2.00000
    148      -1.9077      2.00000
    149      -1.8794      2.00000
    150      -1.8634      2.00000
    151      -1.8543      2.00000
    152      -1.8302      2.00000
    153      -1.8272      2.00000
    154      -1.8138      2.00000
    155      -1.8092      2.00000
    156      -1.7647      2.00000
    157      -1.7376      2.00000
    158      -1.7359      2.00000
    159      -1.7176      2.00000
    160      -1.7037      2.00000
    161      -1.6953      2.00000
    162      -1.6681      2.00000
    163      -1.6461      2.00000
    164      -1.6361      2.00000
    165      -1.6306      2.00000
    166      -1.6136      2.00000
    167      -1.6019      2.00000
    168      -1.5983      2.00000
    169      -1.5901      2.00000
    170      -1.5751      2.00000
    171      -1.5550      2.00000
    172      -1.5540      2.00000
    173      -1.5209      2.00000
    174      -1.5072      2.00000
    175      -1.4921      2.00000
    176      -1.4784      2.00000
    177      -1.4517      2.00000
    178      -1.4446      2.00000
    179      -1.4003      2.00000
    180      -1.3838      2.00000
    181      -1.3833      2.00000
[...]
  0.000   0.000   0.000   0.000   0.000   0.000   0.000   0.000   0.000   0.000   0.000   0.000   0.000   0.000   0.000   0.000
  0.000   0.000   0.000   0.000   0.000   0.000   0.000   0.000   0.000   0.000   0.000   0.000   0.000   0.000   0.000   0.000
  0.000   0.000   0.000   0.000   0.000   0.000   0.000   0.000   0.000   0.000   0.000   0.000   0.000   0.000   0.000   0.000
  0.000   0.000   0.000   0.000   0.000   0.000   0.000   0.000   0.000   0.000   0.000   0.000   0.000   0.000   0.000   0.000
  0.000   0.000   0.000   0.000   0.000   0.000   0.000   0.000   0.000   0.000   0.000   0.000   0.000   0.000   0.000   0.000
  0.000   0.000   0.000   0.000   0.000   0.000   0.000   0.000   0.000   0.000   1.000   0.000   0.000   0.000   0.000   0.000
  0.000   0.000   0.000   0.000   0.000   0.000   0.000   0.000   0.000   0.000   0.000   0.000   0.000   0.000   0.000   0.000
  0.000   0.000   0.000   0.000   0.000   0.000   0.000   0.000   0.000   0.000   0.000   0.000   0.000   0.000   0.000   0.000
  0.000   0.000   0.000   0.000   0.000   0.000   0.000   0.000   0.000   0.000   0.000   0.000   0.000   0.000   0.000   0.000
  0.000   0.000   0.000   0.000   0.000   0.000   0.000   0.000   0.000   0.000   0.000   0.000   0.000   0.000   0.000   0.000
  0.000   0.000   0.000   0.000   0.000   0.000   0.000   0.000   0.000   0.000   0.000   0.000   0.000   0.000   0.000   0.000
  0.000   0.000   0.000   0.000   0.000   0.000   0.000   0.000   0.000   0.000   0.000   0.000   0.000   0.000   0.000   0.000
  0.000   0.000   0.000   0.000   0.000   0.000   0.000   0.000   0.000   0.000   0.000   0.000   0.000   0.000   0.000   0.000


------------------------ aborting loop because EDIFF is reached ----------------------------------------





 total charge

# of ion       s       p       d       tot
------------------------------------------
    1        0.545   0.239   8.766   9.550
    2        0.543   0.241   8.765   9.549
    3        0.543   0.241   8.765   9.549
    4        0.543   0.241   8.765   9.549
    5        0.542   0.240   8.763   9.546
    6        0.543   0.241   8.765   9.549
    7        0.543   0.241   8.765   9.549
    8        0.543   0.241   8.765   9.549
    9        0.541   0.240   8.767   9.549
   10        0.520   0.307   8.773   9.600
   11        0.519   0.308   8.776   9.602
   12        0.520   0.307   8.773   9.600
   13        0.519   0.308   8.776   9.602
   14        0.519   0.308   8.776   9.602
   15        0.515   0.310   8.773   9.598
   16        0.520   0.307   8.773   9.600
   17        0.515   0.310   8.773   9.598
   18        0.515   0.310   8.773   9.598
   19        0.517   0.296   8.775   9.588
   20        0.551   0.327   8.749   9.628
   21        0.551   0.327   8.749   9.628
   22        0.511   0.307   8.773   9.591
   23        0.551   0.327   8.749   9.628
   24        0.511   0.307   8.773   9.591
   25        0.517   0.296   8.775   9.588
   26        0.517   0.296   8.775   9.588
   27        0.511   0.307   8.773   9.591
   28        0.541   0.227   8.758   9.526
   29        0.570   0.231   8.755   9.556
   30        0.570   0.231   8.755   9.556
   31        0.570   0.231   8.755   9.556
   32        0.570   0.231   8.755   9.556
   33        0.570   0.231   8.755   9.556
   34        0.570   0.231   8.755   9.556
   35        0.541   0.229   8.756   9.525
   36        0.515   0.766   2.724   4.005
   37        1.609   3.266   0.000   4.876
--------------------------------------------------
tot         20.914  13.605 309.509 344.028
 
    CHARGE:  cpu time    0.3331: real time    0.3332
    FORLOC:  cpu time    0.0100: real time    0.0100
    FORNL :  cpu time    1.4475: real time    1.4477
    STRESS:  cpu time    4.3389: real time    4.3392
    FORCOR:  cpu time    0.0428: real time    0.0429
    FORHAR:  cpu time    0.0165: real time    0.0166
    OFIELD:  cpu time    0.0002: real time    0.0002

  FORCE on cell =-STRESS in cart. coord.  units (eV):
  Direction    XX          YY          ZZ          XY          YZ          ZX
  --------------------------------------------------------------------------------------
  Alpha Z  1009.86032  1009.86032  1009.86032
  Ewald  116771.34666116771.34705************    -0.00032    -0.00009    -0.00014
  Hartree125388.81380125388.81379************     0.00001    -0.00002    -0.00004
  E(xc)   -1772.26742 -1772.26742 -1781.67845     0.00000     0.00000     0.00000
  Local  ************************254420.43203     0.00198     0.00002     0.00001
  n-local   -95.33028   -52.29169   -54.27636    22.48590    -1.72760     1.55150
  augment  2375.92094  2375.92248  2394.57606    -0.00133     0.00000     0.00002
  Kinetic  5496.89045  5503.58231  5551.69611     5.17907     0.34830     0.26982
  Fock        0.00000     0.00000     0.00000     0.00000     0.00000     0.00000
  -------------------------------------------------------------------------------------
  Total     -19.06367   -19.06367     2.11560    -0.00000     0.00000     0.00000
  in kB     -20.45548   -20.45548     2.27005    -0.00000     0.00000     0.00000
  external pressure =      -12.88 kB  Pullay stress =        0.00 kB


 VOLUME and BASIS-vectors are now :
 -----------------------------------------------------------------------------
  energy-cutoff  :      500.00
  volume of cell :     1493.16
      direct lattice vectors                 reciprocal lattice vectors
     8.813512802  0.000000000  0.000000000     0.113462137 -0.065507406  0.000000000
     4.406756909  7.632725690  0.000000000     0.000000000  0.131014796  0.000000000
     0.000000000  0.000000000 22.196203232     0.000000000  0.000000000  0.045052750

  length of vectors
     8.813512802  8.813512802 22.196203232     0.131014796  0.131014796  0.045052750


 FORCES acting on ions
    electron-ion (+dipol)            ewald-force                    non-local-force                 convergence-correction
 -----------------------------------------------------------------------------------------------
   -.193E-04 -.160E-04 0.246E+04   0.518E-04 0.433E-04 -.246E+04   0.295E-17 -.263E-17 -.563E+00   -.181E-03 -.118E-03 -.254E+00
   0.782E-01 -.360E+00 0.246E+04   -.147E+00 0.223E+00 -.246E+04   -.301E-02 0.428E-01 -.333E+00   0.674E-01 0.910E-01 -.234E+00
   -.783E-01 -.360E+00 0.246E+04   0.147E+00 0.223E+00 -.246E+04   0.301E-02 0.428E-01 -.333E+00   -.672E-01 0.930E-01 -.233E+00
   -.272E+00 0.248E+00 0.246E+04   0.120E+00 -.239E+00 -.246E+04   0.355E-01 -.240E-01 -.333E+00   0.113E+00 0.128E-01 -.234E+00
   0.902E-05 -.229E-04 0.246E+04   0.951E-04 0.172E-05 -.246E+04   0.190E-18 -.875E-18 -.392E+00   0.424E-02 0.258E-02 -.246E+00
   0.272E+00 0.248E+00 0.246E+04   -.120E+00 -.239E+00 -.246E+04   -.355E-01 -.240E-01 -.333E+00   -.114E+00 0.138E-01 -.233E+00
   -.351E+00 0.112E+00 0.246E+04   0.266E+00 0.156E-01 -.246E+04   0.385E-01 -.188E-01 -.333E+00   0.470E-01 -.105E+00 -.233E+00
   0.351E+00 0.112E+00 0.246E+04   -.267E+00 0.156E-01 -.246E+04   -.385E-01 -.188E-01 -.333E+00   -.451E-01 -.106E+00 -.233E+00
   0.194E-04 -.417E-04 0.246E+04   0.166E-03 -.200E-04 -.246E+04   0.267E-17 0.293E-17 -.505E+00   -.461E-02 -.238E-02 -.256E+00
   -.475E-01 -.275E-01 0.807E+03   0.105E+00 0.607E-01 -.807E+03   -.187E+00 -.108E+00 -.416E+00   0.113E+00 0.650E-01 -.709E-01
   0.141E-04 -.876E+00 0.808E+03   0.148E-03 0.654E+00 -.807E+03   0.448E-08 0.672E-01 -.338E+00   0.363E-02 0.108E+00 -.374E-01
   0.475E-01 -.274E-01 0.807E+03   -.105E+00 0.607E-01 -.807E+03   0.187E+00 -.108E+00 -.416E+00   -.114E+00 0.661E-01 -.719E-01
   -.759E+00 0.438E+00 0.808E+03   0.566E+00 -.327E+00 -.807E+03   0.582E-01 -.336E-01 -.338E+00   0.958E-01 -.507E-01 -.374E-01
   0.759E+00 0.438E+00 0.808E+03   -.566E+00 -.327E+00 -.807E+03   -.582E-01 -.336E-01 -.338E+00   -.885E-01 -.512E-01 -.384E-01
   0.318E-04 0.292E+01 0.811E+03   0.235E-03 -.300E+01 -.811E+03   0.108E-08 0.162E-01 -.404E+00   -.207E-02 0.293E-01 -.466E-01
   -.206E-04 0.548E-01 0.807E+03   0.162E-03 -.121E+00 -.807E+03   0.144E-07 0.216E+00 -.416E+00   0.358E-04 -.132E+00 -.719E-01
   0.253E+01 -.146E+01 0.811E+03   -.260E+01 0.150E+01 -.811E+03   0.141E-01 -.812E-02 -.404E+00   0.246E-01 -.160E-01 -.466E-01
   -.253E+01 -.146E+01 0.811E+03   0.260E+01 0.150E+01 -.811E+03   -.141E-01 -.812E-02 -.404E+00   -.246E-01 -.144E-01 -.466E-01
   -.425E-04 -.388E+01 -.861E+03   0.557E-04 0.362E+01 0.860E+03   0.741E-08 0.111E+00 0.843E+00   0.349E-02 0.102E+00 0.148E+00
   -.137E+02 -.791E+01 -.870E+03   0.143E+02 0.827E+01 0.871E+03   -.992E+00 -.573E+00 -.608E+00   0.138E+00 0.796E-01 0.112E+00
   0.137E+02 -.791E+01 -.870E+03   -.143E+02 0.827E+01 0.871E+03   0.992E+00 -.573E+00 -.608E+00   -.139E+00 0.806E-01 0.111E+00
   -.119E+02 0.690E+01 -.853E+03   0.115E+02 -.665E+01 0.852E+03   0.372E+00 -.215E+00 0.714E+00   0.962E-01 -.569E-01 0.910E-01
   -.809E-05 0.158E+02 -.870E+03   0.138E-03 -.165E+02 0.871E+03   0.763E-07 0.115E+01 -.608E+00   0.164E-03 -.160E+00 0.111E+00
   0.119E+02 0.690E+01 -.853E+03   -.115E+02 -.665E+01 0.852E+03   -.372E+00 -.215E+00 0.714E+00   -.965E-01 -.557E-01 0.909E-01
   0.336E+01 0.194E+01 -.861E+03   -.314E+01 -.181E+01 0.860E+03   -.964E-01 -.556E-01 0.843E+00   -.832E-01 -.481E-01 0.148E+00
   -.336E+01 0.194E+01 -.861E+03   0.314E+01 -.181E+01 0.860E+03   0.964E-01 -.556E-01 0.843E+00   0.903E-01 -.479E-01 0.148E+00
   0.845E-05 -.138E+02 -.853E+03   0.198E-03 0.133E+02 0.852E+03   0.286E-07 0.430E+00 0.714E+00   -.176E-02 0.112E+00 0.910E-01
   -.114E-04 -.117E-04 -.243E+04   0.282E-04 0.320E-04 0.243E+04   0.297E-17 0.287E-17 0.462E+00   0.278E-03 0.144E-03 0.354E+00
   0.865E+01 0.901E+01 -.242E+04   -.801E+01 -.807E+01 0.242E+04   -.825E+00 -.125E+01 0.711E+00   0.368E-01 0.141E-01 0.251E+00
   -.865E+01 0.901E+01 -.242E+04   0.801E+01 -.807E+01 0.242E+04   0.825E+00 -.125E+01 0.711E+00   -.370E-01 0.155E-01 0.252E+00
   0.121E+02 0.299E+01 -.242E+04   -.110E+02 -.290E+01 0.242E+04   -.149E+01 -.921E-01 0.711E+00   0.307E-01 0.247E-01 0.251E+00
   -.121E+02 0.299E+01 -.242E+04   0.110E+02 -.290E+01 0.242E+04   0.149E+01 -.921E-01 0.711E+00   -.312E-01 0.259E-01 0.252E+00
   0.348E+01 -.120E+02 -.242E+04   -.298E+01 0.110E+02 0.242E+04   -.666E+00 0.134E+01 0.711E+00   -.500E-02 -.398E-01 0.252E+00
   -.348E+01 -.120E+02 -.242E+04   0.298E+01 0.110E+02 0.242E+04   0.666E+00 0.134E+01 0.711E+00   0.682E-02 -.400E-01 0.252E+00
   0.326E-04 -.312E-04 -.244E+04   0.143E-03 -.473E-04 0.243E+04   -.524E-17 0.500E-17 0.402E+00   -.456E-02 -.234E-02 0.325E+00
   -.564E-05 0.431E-05 -.746E+03   0.413E-04 0.374E-05 0.746E+03   -.183E-17 -.203E-18 0.163E+01   0.431E-03 0.263E-03 0.561E-01
   0.178E-03 -.969E-04 -.153E+04   0.253E-04 0.162E-05 0.156E+04   0.135E-18 0.286E-18 -.244E+02   0.331E-02 0.203E-02 0.252E-01
 -----------------------------------------------------------------------------------------------
   -.601E-03 -.856E-03 0.216E+02   -.863E-13 0.190E-12 0.455E-12   -.693E-17 0.509E-17 -.217E+02   0.165E-01 0.102E-01 0.698E+00
 
 
 POSITION                                       TOTAL-FORCE (eV/Angst)
 -----------------------------------------------------------------------------------
      0.00000      0.00000      5.28038         0.000000      0.000000     -0.121509
      2.93784      0.00000      5.28038        -0.003703     -0.001985     -0.051820
      5.87568      0.00000      5.28038         0.003703     -0.001985     -0.051820
      1.46892      2.54424      5.28038        -0.003571     -0.002215     -0.051820
      4.40676      2.54424      5.28038         0.000000      0.000000     -0.080723
      7.34459      2.54424      5.28038         0.003571     -0.002215     -0.051820
      2.93784      5.08848      5.28038         0.000132      0.004200     -0.051820
      5.87568      5.08848      5.28038        -0.000132      0.004200     -0.051820
      8.81351      5.08848      5.28038         0.000000     -0.000000     -0.057353
      1.46892      0.84808      7.67911        -0.016117     -0.009305      0.075448
      4.40676      0.84808      7.67911        -0.000000     -0.048668      0.046117
      7.34459      0.84808      7.67911         0.016117     -0.009305      0.075448
      2.93784      3.39232      7.67911        -0.042148      0.024334      0.046117
      5.87568      3.39232      7.67911         0.042148      0.024334      0.046117
      8.81351      3.39232      7.67911        -0.000000     -0.027479      0.120235
      4.40676      5.93656      7.67911         0.000000      0.018610      0.075448
      7.34459      5.93656      7.67911        -0.023798      0.013740      0.120235
     10.28243      5.93656      7.67911         0.023798      0.013740      0.120235
      8.81351      1.69614     10.07331        -0.000000     -0.044636      0.025175
      2.94950      1.70289     10.06400        -0.230048     -0.132819     -0.192344
      5.86402      1.70289     10.06400         0.230048     -0.132819     -0.192344
     10.27143      4.24676     10.06599         0.046134     -0.026636      0.040733
      4.40676      4.22694     10.06400         0.000000      0.265637     -0.192344
      7.35560      4.24676     10.06599        -0.046134     -0.026636      0.040733
     11.75137      6.78466     10.07331         0.038656      0.022318      0.025175
      5.87566      6.78466     10.07331        -0.038656      0.022318      0.025175
      8.81351      6.77194     10.06599         0.000000      0.053271      0.040733
      0.00000      0.00000     12.49013         0.000000      0.000000     -0.041746
      2.98093      0.06833     12.52966        -0.149644     -0.290725     -0.218184
      5.83259      0.06833     12.52966         0.149644     -0.290725     -0.218184
      1.54964      2.54739     12.52966        -0.326597      0.015768     -0.218184
      7.26387      2.54739     12.52966         0.326597      0.015768     -0.218184
      2.97547      5.01700     12.52966        -0.176954      0.274958     -0.218184
      5.83804      5.01700     12.52966         0.176954      0.274958     -0.218184
      8.81351      5.08848     12.50181         0.000000     -0.000000      0.005727
      4.40676      2.54424     12.25739         0.000000      0.000000      1.579291
      4.40676      2.54424     13.95621         0.000000     -0.000000     -0.009752
 -----------------------------------------------------------------------------------
    total drift:                                0.015916      0.009349      0.582990


--------------------------------------------------------------------------------------------------------



  FREE ENERGIE OF THE ION-ELECTRON SYSTEM (eV)
  ---------------------------------------------------
  free  energy   TOTEN  =      -122.59854107 eV

  energy  without entropy=     -122.59854107  energy(sigma->0) =     -122.59854107
 


--------------------------------------------------------------------------------------------------------


    POTLOK:  cpu time    0.0420: real time    0.0420


--------------------------------------------------------------------------------------------------------


 stress matrix after NEB project (eV)
    -19.06367     -0.00000      0.00000
     -0.00000    -19.06367      0.00000
     -0.00000      0.00000      2.11560
  FORCES: max atom, RMS     0.009752    0.001603
  FORCE total and by dimension    0.009752    0.009752
  Stress total and by dimension   27.042978   19.063669
     LOOP+:  cpu time   68.9998: real time   69.0131
 -----------------------------------------------------------------------------
|                                                                             |
|           W    W    AA    RRRRR   N    N  II  N    N   GGGG   !!!           |
|           W    W   A  A   R    R  NN   N  II  NN   N  G    G  !!!           |
|           W    W  A    A  R    R  N N  N  II  N N  N  G       !!!           |
|           W WW W  AAAAAA  RRRRR   N  N N  II  N  N N  G  GGG   !            |
|           WW  WW  A    A  R   R   N   NN  II  N   NN  G    G                |
|           W    W  A    A  R    R  N    N  II  N    N   GGGG   !!!           |
|                                                                             |
|     Tetrahedron method does not include variations of the Fermi             |
|     occupations, so forces and stress will be inaccurate. We suggest        |
|     using a different smearing scheme ISMEAR = 1 or 2 for metals in         |
|     relaxations.                                                            |
|                                                                             |
 -----------------------------------------------------------------------------

    4ORBIT:  cpu time    0.0000: real time    0.0000



 total charge

# of ion       s       p       d       tot
------------------------------------------
    1        0.545   0.239   8.766   9.550
    2        0.543   0.241   8.765   9.549
    3        0.543   0.241   8.765   9.549
    4        0.543   0.241   8.765   9.549
    5        0.542   0.240   8.763   9.546
    6        0.543   0.241   8.765   9.549
    7        0.543   0.241   8.765   9.549
    8        0.543   0.241   8.765   9.549
    9        0.541   0.240   8.767   9.549
   10        0.520   0.307   8.773   9.600
   11        0.519   0.308   8.776   9.602
   12        0.520   0.307   8.773   9.600
   13        0.519   0.308   8.776   9.602
   14        0.519   0.308   8.776   9.602
   15        0.515   0.310   8.773   9.598
   16        0.520   0.307   8.773   9.600
   17        0.515   0.310   8.773   9.598
   18        0.515   0.310   8.773   9.598
   19        0.517   0.296   8.775   9.588
   20        0.551   0.327   8.749   9.628
   21        0.551   0.327   8.749   9.628
   22        0.511   0.307   8.773   9.591
   23        0.551   0.327   8.749   9.628
   24        0.511   0.307   8.773   9.591
   25        0.517   0.296   8.775   9.588
   26        0.517   0.296   8.775   9.588
   27        0.511   0.307   8.773   9.591
   28        0.541   0.227   8.758   9.526
   29        0.570   0.231   8.755   9.556
   30        0.570   0.231   8.755   9.556
   31        0.570   0.231   8.755   9.556
   32        0.570   0.231   8.755   9.556
   33        0.570   0.231   8.755   9.556
   34        0.570   0.231   8.755   9.556
   35        0.541   0.229   8.756   9.525
   36        0.515   0.766   2.724   4.005
   37        1.609   3.266   0.000   4.876
--------------------------------------------------
tot         20.914  13.605 309.509 344.028
 
 BZINTS: Fermi energy:    0.598915;  395.000000 electrons
         Band energy:-0.126760E+04;  BLOECHL correction:   -0.080322

 total amount of memory used by VASP MPI-rank0   122511. kBytes
=======================================================================

   base      :      30000. kBytes
   nonlr-proj:      14126. kBytes
   fftplans  :       4330. kBytes
   grid      :      17879. kBytes
   one-center:        575. kBytes
   wavefun   :      55601. kBytes
 
  
  
 General timing and accounting informations for this job:
 ========================================================
  
                  Total CPU time used (sec):       76.342
                            User time (sec):       73.451
                          System time (sec):        2.891
                         Elapsed time (sec):       76.791
  
                   Maximum memory used (kb):      380924.
                   Average memory used (kb):          N/A
  
                          Minor page faults:        73724
                          Major page faults:            0
                 Voluntary context switches:         5431
