PROCAR new format
# of k-points:   10         # of bands:  252         # of ions:   37

 k-point     1 :    0.00000000 0.00000000 0.00000000     weight = 0.01562500

band     1 # energy  -16.42004923 # occ.  2.00000000
 
ion      s      p      d    tot
    1  0.000  0.000  0.000  0.000
    2  0.000  0.000  0.000  0.000
    3  0.000  0.000  0.000  0.000
    4  0.000  0.000  0.000  0.000
    5  0.000  0.000  0.000  0.000
    6  0.000  0.000  0.000  0.000
    7  0.000  0.000  0.000  0.000
    8  0.000  0.000  0.000  0.000
    9  0.000  0.000  0.000  0.000
   10  0.000  0.000  0.000  0.000
   11  0.000  0.000  0.000  0.000
   12  0.000  0.000  0.000  0.000
   13  0.000  0.000  0.000  0.000
   14  0.000  0.000  0.000  0.000
   15  0.000  0.000  0.000  0.000
   16  0.000  0.000  0.000  0.000
   17  0.000  0.000  0.000  0.000
   18  0.000  0.000  0.000  0.000
   19  0.000  0.000  0.000  0.000
   20  0.000  0.000  0.000  0.000
   21  0.000  0.000  0.000  0.000
   22  0.000  0.000  0.000  0.000
   23  0.000  0.000  0.000  0.000
   24  0.000  0.000  0.000  0.000
   25  0.000  0.000  0.000  0.000
   26  0.000  0.000  0.000  0.000
   27  0.000  0.000  0.000  0.000
   28  0.000  0.000  0.000  0.000
   29  0.000  0.000  0.000  0.000
   30  0.000  0.000  0.000  0.000
   31  0.000  0.000  0.000  0.000
   32  0.000  0.000  0.000  0.000
   33  0.000  0.000  0.000  0.000
   34  0.000  0.000  0.000  0.000
   35  0.000  0.000  0.000  0.000
   36  0.053  0.061  0.104  0.217
   37  0.784  0.007  0.000  0.791
tot    0.837  0.068  0.104  1.009
 
band     2 # energy   -8.21747849 # occ.  2.00000000
 
ion      s      p      d    tot
    1  0.007  0.001  0.000  0.007
    2  0.007  0.001  0.000  0.007
    3  0.007  0.001  0.000  0.007
    4  0.007  0.001  0.000  0.007
    5  0.007  0.001  0.000  0.007
    6  0.007  0.001  0.000  0.007
    7  0.007  0.001  0.000  0.007
    8  0.007  0.001  0.000  0.007
    9  0.007  0.001  0.000  0.007
   10  0.027  0.000  0.000  0.027
   11  0.027  0.000  0.000  0.028
   12  0.027  0.000  0.000  0.027
   13  0.027  0.000  0.000  0.028
   14  0.027  0.000  0.000  0.028
   15  0.026  0.000  0.000  0.027
   16  0.027  0.000  0.000  0.027
   17  0.026  0.000  0.000  0.027
   18  0.026  0.000  0.000  0.027
   19  0.023  0.000  0.000  0.024
   20  0.027  0.000  0.000  0.027
   21  0.027  0.000  0.000  0.027
   22  0.024  0.000  0.000  0.025
   23  0.027  0.000  0.000  0.027
   24  0.024  0.000  0.000  0.025
   25  0.023  0.000  0.000  0.024
   26  0.023  0.000  0.000  0.024
   27  0.024  0.000  0.000  0.025
   28  0.005  0.000  0.000  0.005
   29  0.005  0.000  0.000  0.005
   30  0.005  0.000  0.000  0.005
   31  0.005  0.000  0.000  0.005
   32  0.005  0.000  0.000  0.005
   33  0.005  0.000  0.000  0.005
   34  0.005  0.000  0.000  0.005
   35  0.005  0.000  0.000  0.005
   36  0.005  0.001  0.000  0.006
   37  0.000  0.000  0.000  0.000
tot    0.565  0.013  0.004  0.581
 
band     3 # energy   -7.03337134 # occ.  2.00000000
 
ion      s      p      d    tot
    1  0.017  0.000  0.001  0.019
    2  0.017  0.000  0.001  0.018
    3  0.017  0.000  0.001  0.018
    4  0.017  0.000  0.001  0.018
    5  0.017  0.000  0.001  0.018
    6  0.017  0.000  0.001  0.018
    7  0.017  0.000  0.001  0.018
    8  0.017  0.000  0.001  0.018
    9  0.017  0.000  0.001  0.018
   10  0.011  0.001  0.003  0.015
   11  0.010  0.002  0.003  0.014
   12  0.011  0.001  0.003  0.015
   13  0.010  0.002  0.003  0.014
   14  0.010  0.002  0.003  0.014
   15  0.010  0.002  0.002  0.014
   16  0.011  0.001  0.003  0.015
   17  0.010  0.002  0.002  0.014
   18  0.010  0.002  0.002  0.014
   19  0.014  0.001  0.004  0.019
   20  0.016  0.001  0.004  0.022
   21  0.016  0.001  0.004  0.022
   22  0.015  0.001  0.004  0.019
   23  0.016  0.001  0.004  0.022
   24  0.015  0.001  0.004  0.019
   25  0.014  0.001  0.004  0.019
   26  0.014  0.001  0.004  0.019
   27  0.015  0.001  0.004  0.019
   28  0.014  0.000  0.000  0.015
   29  0.013  0.001  0.001  0.014
   30  0.013  0.001  0.001  0.014
   31  0.013  0.001  0.001  0.014
   32  0.013  0.001  0.001  0.014
   33  0.013  0.001  0.001  0.014
   34  0.013  0.001  0.001  0.014
   35  0.014  0.000  0.000  0.015
   36  0.010  0.001  0.000  0.012
   37  0.001  0.000  0.000  0.001
tot    0.494  0.033  0.074  0.601
 
band     4 # energy   -6.10214963 # occ.  2.00000000
 
ion      s      p      d    tot
    1  0.001  0.001  0.012  0.014
    2  0.008  0.000  0.010  0.018
    3  0.008  0.000  0.010  0.018
    4  0.008  0.000  0.010  0.018
    5  0.003  0.000  0.006  0.009
    6  0.008  0.000  0.009  0.018
    7  0.008  0.000  0.010  0.018
    8  0.008  0.000  0.009  0.018
    9  0.030  0.001  0.003  0.034
   10  0.012  0.001  0.018  0.030
   11  0.013  0.002  0.010  0.026
   12  0.012  0.001  0.018  0.030
   13  0.013  0.002  0.010  0.025
   14  0.013  0.002  0.010  0.025
   15  0.007  0.001  0.015  0.023
   16  0.012  0.001  0.018  0.030
   17  0.007  0.001  0.015  0.023
   18  0.007  0.001  0.015  0.023
   19  0.000  0.001  0.016  0.016
   20  0.020  0.002  0.014  0.035
   21  0.020  0.002  0.014  0.035
   22  0.009  0.002  0.003  0.014
   23  0.020  0.002  0.014  0.035
   24  0.009  0.002  0.003  0.014
   25  0.000  0.001  0.016  0.016
   26  0.000  0.001  0.016  0.016
   27  0.009  0.002  0.003  0.014
   28  0.008  0.000  0.001  0.009
   29  0.005  0.000  0.006  0.011
   30  0.005  0.000  0.006  0.011
   31  0.005  0.000  0.006  0.011
   32  0.005  0.000  0.006  0.011
   33  0.005  0.000  0.006  0.011
   34  0.005  0.000  0.006  0.011
   35  0.016  0.000  0.002  0.018
   36  0.001  0.002  0.005  0.008
   37  0.000  0.001  0.000  0.001
tot    0.317  0.034  0.344  0.694
 
band     5 # energy   -6.08642559 # occ.  2.00000000
 
ion      s      p      d    tot
    1  0.000  0.000  0.007  0.008
    2  0.004  0.001  0.004  0.009
    3  0.006  0.001  0.003  0.010
    4  0.004  0.001  0.004  0.009
    5  0.000  0.001  0.007  0.008
    6  0.000  0.000  0.003  0.003
    7  0.006  0.001  0.003  0.010
    8  0.000  0.000  0.003  0.003
    9  0.000  0.000  0.001  0.001
   10  0.000  0.000  0.034  0.034
   11  0.040  0.001  0.015  0.056
   12  0.023  0.002  0.012  0.036
   13  0.040  0.001  0.015  0.056
   14  0.000  0.003  0.026  0.029
   15  0.002  0.001  0.010  0.013
   16  0.023  0.002  0.012  0.036
   17  0.002  0.001  0.010  0.014
   18  0.000  0.004  0.003  0.007
   19  0.006  0.001  0.011  0.017
   20  0.000  0.003  0.036  0.039
   21  0.046  0.002  0.016  0.064
   22  0.016  0.001  0.011  0.028
   23  0.046  0.002  0.017  0.064
   24  0.000  0.000  0.030  0.030
   25  0.000  0.004  0.003  0.006
   26  0.006  0.001  0.011  0.017
   27  0.015  0.001  0.011  0.028
   28  0.000  0.000  0.001  0.001
   29  0.000  0.000  0.002  0.003
   30  0.005  0.001  0.003  0.009
   31  0.000  0.000  0.002  0.003
   32  0.005  0.001  0.004  0.009
   33  0.005  0.001  0.003  0.009
   34  0.005  0.001  0.004  0.009
   35  0.000  0.000  0.005  0.005
   36  0.000  0.003  0.004  0.007
   37  0.000  0.000  0.000  0.000
tot    0.306  0.044  0.344  0.694
 
band     6 # energy   -6.08639731 # occ.  2.00000000
 
ion      s      p      d    tot
    1  0.000  0.000  0.007  0.008
    2  0.003  0.001  0.003  0.006
    3  0.001  0.000  0.003  0.005
    4  0.003  0.001  0.003  0.006
    5  0.000  0.001  0.007  0.008
    6  0.007  0.001  0.003  0.011
    7  0.001  0.000  0.003  0.005
    8  0.007  0.001  0.003  0.011
    9  0.000  0.000  0.001  0.001
   10  0.031  0.002  0.004  0.037
   11  0.014  0.003  0.022  0.039
   12  0.008  0.001  0.026  0.035
   13  0.013  0.003  0.022  0.038
   14  0.053  0.001  0.011  0.065
   15  0.001  0.003  0.006  0.009
   16  0.008  0.001  0.026  0.035
   17  0.001  0.003  0.006  0.009
   18  0.003  0.000  0.013  0.016
   19  0.002  0.003  0.005  0.010
   20  0.062  0.001  0.010  0.073
   21  0.015  0.002  0.030  0.047
   22  0.005  0.001  0.024  0.030
   23  0.016  0.002  0.030  0.048
   24  0.021  0.002  0.005  0.027
   25  0.008  0.000  0.013  0.021
   26  0.002  0.003  0.005  0.010
   27  0.005  0.001  0.024  0.030
   28  0.000  0.000  0.001  0.001
   29  0.007  0.001  0.004  0.012
   30  0.001  0.001  0.003  0.005
   31  0.007  0.001  0.004  0.012
   32  0.002  0.000  0.002  0.005
   33  0.001  0.001  0.003  0.005
   34  0.002  0.000  0.002  0.005
   35  0.000  0.000  0.005  0.005
   36  0.000  0.003  0.004  0.007
   37  0.000  0.000  0.000  0.000
tot    0.306  0.044  0.344  0.694
 
band     7 # energy   -6.08148009 # occ.  2.00000000
 
ion      s      p      d    tot
    1  0.024  0.000  0.010  0.034
    2  0.014  0.000  0.015  0.029
    3  0.014  0.000  0.015  0.029
    4  0.014  0.000  0.015  0.029
    5  0.019  0.000  0.015  0.033
    6  0.014  0.000  0.015  0.029
    7  0.014  0.000  0.015  0.029
    8  0.014  0.000  0.015  0.029
    9  0.003  0.001  0.018  0.022
   10  0.001  0.000  0.032  0.033
   11  0.001  0.001  0.024  0.026
   12  0.001  0.000  0.031  0.033
   13  0.001  0.001  0.024  0.026
   14  0.001  0.001  0.024  0.026
   15  0.027  0.001  0.015  0.043
   16  0.001  0.000  0.031  0.033
   17  0.027  0.001  0.015  0.043
   18  0.027  0.001  0.015  0.043
   19  0.000  0.000  0.013  0.014
   20  0.012  0.000  0.011  0.023
   21  0.012  0.000  0.011  0.023
   22  0.003  0.001  0.007  0.011
   23  0.012  0.000  0.011  0.023
   24  0.003  0.001  0.007  0.011
   25  0.000  0.000  0.013  0.014
   26  0.000  0.000  0.013  0.014
   27  0.003  0.001  0.007  0.011
   28  0.000  0.000  0.000  0.000
   29  0.000  0.000  0.001  0.001
   30  0.000  0.000  0.001  0.001
   31  0.000  0.000  0.001  0.001
   32  0.000  0.000  0.001  0.001
   33  0.000  0.000  0.001  0.001
   34  0.000  0.000  0.001  0.001
   35  0.002  0.000  0.000  0.002
   36  0.003  0.001  0.001  0.005
   37  0.000  0.000  0.000  0.001
tot    0.266  0.017  0.449  0.731
 
band     8 # energy   -6.05542234 # occ.  2.00000000
 
ion      s      p      d    tot
    1  0.009  0.001  0.000  0.011
    2  0.000  0.001  0.006  0.007
    3  0.000  0.001  0.006  0.007
    4  0.000  0.001  0.006  0.007
    5  0.014  0.002  0.001  0.018
    6  0.000  0.001  0.006  0.007
    7  0.000  0.001  0.006  0.007
    8  0.000  0.001  0.006  0.007
    9  0.000  0.000  0.001  0.001
   10  0.024  0.003  0.002  0.029
   11  0.022  0.001  0.021  0.044
   12  0.024  0.003  0.002  0.029
   13  0.022  0.001  0.021  0.044
   14  0.022  0.001  0.021  0.044
   15  0.000  0.001  0.023  0.024
   16  0.024  0.003  0.002  0.029
   17  0.000  0.001  0.023  0.024
   18  0.000  0.001  0.023  0.024
   19  0.026  0.002  0.004  0.033
   20  0.004  0.002  0.020  0.027
   21  0.005  0.002  0.020  0.027
   22  0.009  0.000  0.026  0.035
   23  0.005  0.002  0.020  0.027
   24  0.009  0.000  0.026  0.036
   25  0.026  0.002  0.004  0.033
   26  0.026  0.002  0.004  0.033
   27  0.009  0.000  0.026  0.035
   28  0.012  0.001  0.001  0.014
   29  0.000  0.000  0.004  0.004
   30  0.000  0.000  0.004  0.004
   31  0.000  0.000  0.004  0.004
   32  0.000  0.000  0.004  0.004
   33  0.000  0.000  0.004  0.004
   34  0.000  0.000  0.004  0.004
   35  0.004  0.001  0.002  0.007
   36  0.000  0.000  0.000  0.000
   37  0.000  0.000  0.000  0.000
tot    0.298  0.040  0.357  0.695
 
band     9 # energy   -6.02565456 # occ.  2.00000000
 
ion      s      p      d    tot
    1  0.000  0.001  0.004  0.005
    2  0.005  0.001  0.004  0.010
    3  0.007  0.001  0.004  0.012
    4  0.005  0.001  0.004  0.010
    5  0.000  0.000  0.004  0.004
    6  0.000  0.000  0.003  0.004
    7  0.007  0.001  0.004  0.012
    8  0.000  0.000  0.003  0.004
    9  0.000  0.001  0.011  0.012
   10  0.030  0.000  0.016  0.047
   11  0.001  0.002  0.018  0.021
   12  0.007  0.004  0.008  0.019
   13  0.001  0.002  0.019  0.021
   14  0.005  0.001  0.009  0.015
   15  0.016  0.001  0.034  0.051
   16  0.008  0.003  0.008  0.020
   17  0.015  0.001  0.035  0.050
   18  0.061  0.002  0.005  0.068
   19  0.011  0.001  0.028  0.040
   20  0.001  0.001  0.012  0.014
   21  0.000  0.002  0.014  0.016
   22  0.008  0.003  0.013  0.024
   23  0.000  0.002  0.014  0.016
   24  0.032  0.000  0.012  0.045
   25  0.043  0.002  0.003  0.049
   26  0.010  0.001  0.029  0.040
   27  0.008  0.003  0.013  0.025
   28  0.000  0.000  0.006  0.007
   29  0.000  0.000  0.002  0.002
   30  0.003  0.001  0.002  0.005
   31  0.000  0.000  0.002  0.002
   32  0.004  0.001  0.003  0.007
   33  0.003  0.001  0.002  0.005
   34  0.004  0.001  0.003  0.007
   35  0.000  0.001  0.003  0.004
   36  0.000  0.000  0.001  0.001
   37  0.000  0.000  0.000  0.000
tot    0.298  0.041  0.354  0.693
 
band    10 # energy   -6.02562600 # occ.  2.00000000
 
ion      s      p      d    tot
    1  0.000  0.001  0.004  0.005
    2  0.004  0.001  0.003  0.008
    3  0.001  0.000  0.004  0.005
    4  0.003  0.001  0.003  0.007
    5  0.000  0.000  0.004  0.004
    6  0.008  0.001  0.004  0.014
    7  0.001  0.000  0.004  0.005
    8  0.008  0.001  0.004  0.014
    9  0.000  0.001  0.011  0.012
   10  0.000  0.005  0.006  0.010
   11  0.004  0.001  0.012  0.017
   12  0.023  0.001  0.014  0.038
   13  0.004  0.001  0.012  0.017
   14  0.000  0.002  0.022  0.023
   15  0.045  0.001  0.015  0.062
   16  0.022  0.001  0.014  0.037
   17  0.046  0.002  0.014  0.062
   18  0.000  0.001  0.044  0.045
   19  0.032  0.002  0.012  0.046
   20  0.000  0.002  0.014  0.016
   21  0.001  0.001  0.013  0.015
   22  0.024  0.001  0.013  0.038
   23  0.001  0.001  0.013  0.015
   24  0.000  0.004  0.013  0.017
   25  0.000  0.000  0.037  0.037
   26  0.033  0.002  0.011  0.046
   27  0.024  0.001  0.013  0.038
   28  0.000  0.000  0.006  0.007
   29  0.004  0.001  0.002  0.007
   30  0.002  0.000  0.002  0.004
   31  0.004  0.001  0.002  0.007
   32  0.001  0.000  0.001  0.002
   33  0.002  0.000  0.002  0.005
   34  0.001  0.000  0.001  0.002
   35  0.000  0.001  0.003  0.004
   36  0.000  0.000  0.001  0.001
   37  0.000  0.000  0.000  0.000
tot    0.298  0.041  0.354  0.693
 
band    11 # energy   -5.97934433 # occ.  2.00000000
 
ion      s      p      d    tot
    1  0.002  0.000  0.000  0.002
    2  0.000  0.000  0.001  0.002
    3  0.000  0.000  0.001  0.002
    4  0.000  0.000  0.001  0.002
    5  0.002  0.000  0.000  0.002
    6  0.000  0.000  0.001  0.002
    7  0.000  0.000  0.001  0.002
    8  0.000  0.000  0.001  0.002
    9  0.001  0.000  0.001  0.002
   10  0.001  0.000  0.007  0.008
   11  0.003  0.001  0.003  0.006
   12  0.001  0.000  0.007  0.008
   13  0.003  0.001  0.003  0.006
   14  0.003  0.001  0.003  0.006
   15  0.005  0.001  0.005  0.011
   16  0.001  0.000  0.007  0.008
   17  0.005  0.001  0.005  0.011
   18  0.005  0.001  0.005  0.011
   19  0.005  0.001  0.017  0.023
   20  0.001  0.000  0.032  0.033
   21  0.001  0.000  0.032  0.033
   22  0.013  0.002  0.020  0.034
   23  0.001  0.000  0.032  0.033
   24  0.013  0.002  0.020  0.034
   25  0.005  0.001  0.017  0.023
   26  0.005  0.001  0.017  0.023
   27  0.013  0.002  0.020  0.034
   28  0.022  0.000  0.021  0.044
   29  0.023  0.000  0.019  0.042
   30  0.023  0.000  0.019  0.042
   31  0.023  0.000  0.019  0.042
   32  0.023  0.000  0.019  0.042
   33  0.023  0.000  0.019  0.042
   34  0.023  0.000  0.019  0.042
   35  0.021  0.000  0.021  0.042
   36  0.013  0.000  0.008  0.021
   37  0.000  0.000  0.000  0.000
tot    0.284  0.015  0.427  0.725
 
band    12 # energy   -5.60834144 # occ.  2.00000000
 
ion      s      p      d    tot
    1  0.000  0.001  0.004  0.005
    2  0.000  0.000  0.004  0.005
    3  0.010  0.001  0.004  0.015
    4  0.002  0.001  0.005  0.008
    5  0.000  0.001  0.010  0.012
    6  0.007  0.001  0.004  0.012
    7  0.007  0.001  0.005  0.013
    8  0.003  0.000  0.004  0.007
    9  0.000  0.000  0.008  0.008
   10  0.000  0.001  0.048  0.050
   11  0.011  0.001  0.031  0.042
   12  0.011  0.002  0.010  0.023
   13  0.021  0.001  0.012  0.035
   14  0.001  0.000  0.045  0.047
   15  0.001  0.001  0.018  0.019
   16  0.005  0.001  0.030  0.035
   17  0.001  0.000  0.019  0.021
   18  0.000  0.001  0.012  0.014
   19  0.004  0.000  0.018  0.022
   20  0.001  0.000  0.075  0.076
   21  0.020  0.001  0.011  0.032
   22  0.004  0.001  0.017  0.021
   23  0.010  0.001  0.044  0.055
   24  0.000  0.001  0.029  0.030
   25  0.001  0.001  0.014  0.015
   26  0.006  0.000  0.019  0.025
   27  0.001  0.001  0.022  0.024
   28  0.000  0.000  0.008  0.009
   29  0.001  0.000  0.004  0.005
   30  0.009  0.001  0.004  0.014
   31  0.005  0.001  0.005  0.010
   32  0.005  0.001  0.004  0.010
   33  0.009  0.001  0.004  0.014
   34  0.001  0.000  0.004  0.005
   35  0.000  0.000  0.003  0.004
   36  0.000  0.004  0.003  0.007
   37  0.000  0.000  0.000  0.000
tot    0.157  0.032  0.561  0.750
 
band    13 # energy   -5.60834120 # occ.  2.00000000
 
ion      s      p      d    tot
    1  0.000  0.001  0.004  0.005
    2  0.009  0.001  0.005  0.015
    3  0.000  0.001  0.005  0.006
    4  0.007  0.001  0.004  0.012
    5  0.000  0.001  0.010  0.012
    6  0.002  0.001  0.004  0.007
    7  0.003  0.001  0.004  0.008
    8  0.007  0.001  0.004  0.012
    9  0.001  0.000  0.008  0.008
   10  0.006  0.002  0.011  0.018
   11  0.013  0.001  0.026  0.039
   12  0.002  0.001  0.048  0.051
   13  0.002  0.000  0.044  0.046
   14  0.018  0.001  0.020  0.039
   15  0.000  0.001  0.012  0.013
   16  0.009  0.001  0.029  0.039
   17  0.000  0.001  0.010  0.011
   18  0.003  0.000  0.027  0.030
   19  0.002  0.001  0.013  0.016
   20  0.017  0.002  0.016  0.034
   21  0.002  0.000  0.074  0.076
   22  0.001  0.001  0.029  0.032
   23  0.012  0.001  0.041  0.053
   24  0.001  0.001  0.014  0.016
   25  0.008  0.000  0.025  0.033
   26  0.000  0.001  0.012  0.013
   27  0.003  0.001  0.024  0.028
   28  0.000  0.000  0.008  0.009
   29  0.009  0.001  0.003  0.013
   30  0.001  0.001  0.005  0.006
   31  0.005  0.001  0.003  0.009
   32  0.005  0.001  0.005  0.010
   33  0.001  0.001  0.004  0.006
   34  0.009  0.001  0.005  0.014
   35  0.000  0.000  0.003  0.004
   36  0.000  0.004  0.003  0.007
   37  0.000  0.000  0.000  0.000
tot    0.156  0.032  0.562  0.750
 
band    14 # energy   -5.60826157 # occ.  2.00000000
 
ion      s      p      d    tot
    1  0.012  0.002  0.002  0.016
    2  0.000  0.001  0.008  0.009
    3  0.000  0.001  0.007  0.008
    4  0.000  0.001  0.007  0.009
    5  0.001  0.000  0.002  0.003
    6  0.000  0.001  0.009  0.010
    7  0.000  0.001  0.007  0.008
    8  0.000  0.001  0.009  0.010
    9  0.017  0.002  0.000  0.019
   10  0.015  0.001  0.016  0.032
   11  0.001  0.000  0.048  0.049
   12  0.008  0.001  0.016  0.026
   13  0.001  0.000  0.048  0.049
   14  0.005  0.000  0.039  0.044
   15  0.005  0.001  0.021  0.028
   16  0.009  0.001  0.016  0.026
   17  0.005  0.001  0.022  0.028
   18  0.004  0.001  0.012  0.017
   19  0.003  0.001  0.017  0.022
   20  0.004  0.000  0.051  0.055
   21  0.001  0.000  0.057  0.058
   22  0.009  0.001  0.015  0.025
   23  0.001  0.000  0.057  0.058
   24  0.012  0.001  0.018  0.032
   25  0.001  0.001  0.010  0.012
   26  0.004  0.001  0.018  0.022
   27  0.009  0.001  0.015  0.025
   28  0.010  0.001  0.000  0.012
   29  0.000  0.000  0.006  0.007
   30  0.000  0.000  0.005  0.005
   31  0.000  0.000  0.006  0.007
   32  0.000  0.001  0.005  0.006
   33  0.000  0.000  0.005  0.005
   34  0.000  0.001  0.005  0.006
   35  0.007  0.001  0.002  0.011
   36  0.000  0.000  0.001  0.002
   37  0.000  0.000  0.000  0.000
tot    0.146  0.027  0.584  0.757
 
band    15 # energy   -5.54968968 # occ.  2.00000000
 
ion      s      p      d    tot
    1  0.010  0.000  0.001  0.011
    2  0.000  0.001  0.009  0.009
    3  0.000  0.001  0.009  0.009
    4  0.000  0.001  0.009  0.009
    5  0.017  0.002  0.001  0.020
    6  0.000  0.001  0.009  0.009
    7  0.000  0.001  0.009  0.009
    8  0.000  0.001  0.009  0.009
    9  0.002  0.000  0.002  0.004
   10  0.000  0.000  0.041  0.041
   11  0.007  0.002  0.008  0.017
   12  0.000  0.000  0.041  0.041
   13  0.007  0.002  0.008  0.017
   14  0.007  0.002  0.008  0.017
   15  0.006  0.001  0.029  0.037
   16  0.000  0.000  0.041  0.041
   17  0.006  0.001  0.029  0.037
   18  0.006  0.001  0.029  0.037
   19  0.012  0.001  0.039  0.051
   20  0.008  0.002  0.009  0.019
   21  0.008  0.002  0.009  0.019
   22  0.000  0.000  0.039  0.039
   23  0.008  0.002  0.009  0.019
   24  0.000  0.000  0.039  0.039
   25  0.012  0.001  0.039  0.051
   26  0.012  0.001  0.039  0.051
   27  0.000  0.000  0.039  0.039
   28  0.001  0.001  0.007  0.009
   29  0.000  0.000  0.005  0.006
   30  0.000  0.000  0.005  0.006
   31  0.000  0.000  0.005  0.006
   32  0.000  0.000  0.005  0.006
   33  0.000  0.000  0.005  0.006
   34  0.000  0.000  0.005  0.006
   35  0.001  0.000  0.000  0.001
   36  0.014  0.004  0.001  0.018
   37  0.000  0.001  0.000  0.002
tot    0.150  0.031  0.585  0.766
 
band    16 # energy   -5.53725299 # occ.  2.00000000
 
ion      s      p      d    tot
    1  0.000  0.001  0.014  0.015
    2  0.010  0.001  0.005  0.016
    3  0.002  0.000  0.005  0.007
    4  0.010  0.001  0.005  0.016
    5  0.000  0.000  0.005  0.005
    6  0.003  0.001  0.005  0.010
    7  0.002  0.000  0.005  0.007
    8  0.003  0.001  0.005  0.010
    9  0.000  0.001  0.007  0.009
   10  0.000  0.001  0.028  0.029
   11  0.001  0.001  0.020  0.022
   12  0.007  0.000  0.022  0.029
   13  0.001  0.001  0.020  0.022
   14  0.000  0.001  0.020  0.021
   15  0.011  0.002  0.021  0.034
   16  0.007  0.000  0.022  0.029
   17  0.011  0.002  0.020  0.033
   18  0.000  0.000  0.064  0.064
   19  0.012  0.001  0.020  0.034
   20  0.000  0.002  0.020  0.022
   21  0.000  0.001  0.024  0.025
   22  0.018  0.001  0.020  0.039
   23  0.000  0.001  0.024  0.025
   24  0.000  0.000  0.033  0.034
   25  0.000  0.000  0.067  0.067
   26  0.013  0.001  0.020  0.033
   27  0.018  0.001  0.021  0.039
   28  0.000  0.001  0.005  0.005
   29  0.005  0.001  0.004  0.010
   30  0.000  0.000  0.004  0.005
   31  0.005  0.001  0.004  0.010
   32  0.003  0.001  0.002  0.006
   33  0.000  0.000  0.004  0.005
   34  0.003  0.001  0.002  0.006
   35  0.000  0.001  0.008  0.009
   36  0.000  0.000  0.001  0.001
   37  0.000  0.000  0.000  0.000
tot    0.147  0.028  0.576  0.751
 
band    17 # energy   -5.53723736 # occ.  2.00000000
 
ion      s      p      d    tot
    1  0.000  0.001  0.014  0.015
    2  0.000  0.000  0.005  0.006
    3  0.008  0.001  0.005  0.014
    4  0.000  0.000  0.005  0.006
    5  0.000  0.000  0.005  0.005
    6  0.007  0.001  0.005  0.012
    7  0.008  0.001  0.005  0.014
    8  0.007  0.001  0.005  0.012
    9  0.000  0.001  0.007  0.009
   10  0.009  0.000  0.020  0.030
   11  0.000  0.001  0.020  0.021
   12  0.002  0.001  0.026  0.029
   13  0.000  0.001  0.020  0.021
   14  0.001  0.001  0.020  0.022
   15  0.004  0.001  0.049  0.054
   16  0.002  0.001  0.026  0.029
   17  0.004  0.001  0.050  0.054
   18  0.015  0.002  0.006  0.023
   19  0.004  0.001  0.051  0.056
   20  0.000  0.000  0.025  0.026
   21  0.000  0.001  0.021  0.023
   22  0.006  0.000  0.029  0.035
   23  0.000  0.001  0.021  0.023
   24  0.024  0.001  0.016  0.040
   25  0.017  0.001  0.004  0.022
   26  0.004  0.001  0.051  0.056
   27  0.006  0.000  0.029  0.035
   28  0.000  0.001  0.005  0.005
   29  0.001  0.000  0.003  0.004
   30  0.006  0.001  0.002  0.009
   31  0.001  0.000  0.003  0.004
   32  0.003  0.001  0.005  0.008
   33  0.006  0.001  0.002  0.009
   34  0.003  0.001  0.005  0.008
   35  0.000  0.001  0.008  0.009
   36  0.000  0.000  0.001  0.001
   37  0.000  0.000  0.000  0.000
tot    0.147  0.028  0.576  0.751
 
band    18 # energy   -5.22424260 # occ.  2.00000000
 
ion      s      p      d    tot
    1  0.000  0.000  0.014  0.015
    2  0.007  0.000  0.011  0.019
    3  0.003  0.001  0.007  0.011
    4  0.007  0.000  0.011  0.019
    5  0.000  0.001  0.024  0.024
    6  0.001  0.000  0.012  0.013
    7  0.003  0.001  0.007  0.011
    8  0.001  0.000  0.011  0.012
    9  0.000  0.001  0.004  0.005
   10  0.000  0.000  0.009  0.010
   11  0.000  0.000  0.048  0.048
   12  0.000  0.000  0.014  0.015
   13  0.000  0.000  0.048  0.048
   14  0.000  0.000  0.049  0.049
   15  0.000  0.000  0.029  0.029
   16  0.000  0.000  0.014  0.015
   17  0.000  0.000  0.028  0.029
   18  0.000  0.000  0.013  0.013
   19  0.000  0.000  0.012  0.013
   20  0.000  0.000  0.044  0.044
   21  0.001  0.000  0.061  0.062
   22  0.000  0.000  0.029  0.030
   23  0.001  0.000  0.062  0.063
   24  0.000  0.000  0.032  0.032
   25  0.000  0.000  0.010  0.010
   26  0.000  0.000  0.012  0.012
   27  0.000  0.000  0.029  0.030
   28  0.000  0.001  0.013  0.013
   29  0.003  0.001  0.007  0.010
   30  0.012  0.001  0.011  0.024
   31  0.002  0.001  0.007  0.010
   32  0.003  0.001  0.014  0.018
   33  0.012  0.001  0.011  0.024
   34  0.004  0.001  0.014  0.019
   35  0.000  0.000  0.022  0.022
   36  0.000  0.004  0.002  0.006
   37  0.000  0.000  0.000  0.000
tot    0.063  0.018  0.749  0.829
 
band    19 # energy   -5.22424124 # occ.  2.00000000
 
ion      s      p      d    tot
    1  0.000  0.000  0.014  0.015
    2  0.000  0.000  0.009  0.009
    3  0.004  0.000  0.013  0.017
    4  0.000  0.000  0.009  0.009
    5  0.000  0.001  0.024  0.024
    6  0.006  0.001  0.008  0.015
    7  0.004  0.000  0.013  0.017
    8  0.007  0.000  0.009  0.016
    9  0.000  0.001  0.004  0.005
   10  0.000  0.000  0.016  0.016
   11  0.000  0.000  0.049  0.049
   12  0.000  0.000  0.011  0.011
   13  0.000  0.000  0.049  0.049
   14  0.000  0.000  0.048  0.048
   15  0.000  0.000  0.018  0.018
   16  0.000  0.000  0.011  0.011
   17  0.000  0.000  0.018  0.019
   18  0.000  0.000  0.034  0.035
   19  0.000  0.000  0.010  0.011
   20  0.001  0.000  0.068  0.069
   21  0.000  0.000  0.050  0.051
   22  0.000  0.000  0.031  0.032
   23  0.000  0.000  0.049  0.050
   24  0.000  0.001  0.028  0.029
   25  0.000  0.000  0.013  0.014
   26  0.000  0.000  0.010  0.011
   27  0.000  0.000  0.031  0.032
   28  0.000  0.001  0.013  0.013
   29  0.009  0.001  0.015  0.025
   30  0.000  0.001  0.011  0.011
   31  0.010  0.001  0.014  0.025
   32  0.009  0.001  0.007  0.017
   33  0.000  0.001  0.010  0.011
   34  0.009  0.001  0.007  0.016
   35  0.000  0.000  0.022  0.022
   36  0.000  0.004  0.002  0.006
   37  0.000  0.000  0.000  0.000
tot    0.063  0.018  0.749  0.829
 
band    20 # energy   -5.21066906 # occ.  2.00000000
 
ion      s      p      d    tot
    1  0.010  0.000  0.004  0.014
    2  0.000  0.001  0.008  0.009
    3  0.000  0.001  0.008  0.009
    4  0.000  0.001  0.008  0.009
    5  0.000  0.000  0.012  0.012
    6  0.000  0.001  0.008  0.009
    7  0.000  0.001  0.008  0.009
    8  0.000  0.001  0.008  0.009
    9  0.008  0.001  0.001  0.009
   10  0.000  0.000  0.024  0.024
   11  0.000  0.000  0.047  0.048
   12  0.000  0.000  0.024  0.024
   13  0.000  0.000  0.047  0.048
   14  0.000  0.000  0.047  0.048
   15  0.000  0.000  0.029  0.030
   16  0.000  0.000  0.024  0.024
   17  0.000  0.000  0.029  0.030
   18  0.000  0.000  0.029  0.030
   19  0.000  0.000  0.022  0.023
   20  0.001  0.000  0.048  0.050
   21  0.001  0.000  0.048  0.050
   22  0.001  0.000  0.030  0.031
   23  0.001  0.000  0.048  0.050
   24  0.001  0.000  0.030  0.031
   25  0.000  0.000  0.022  0.022
   26  0.000  0.000  0.022  0.023
   27  0.001  0.000  0.030  0.031
   28  0.009  0.001  0.000  0.010
   29  0.000  0.001  0.015  0.015
   30  0.000  0.001  0.015  0.015
   31  0.000  0.001  0.015  0.015
   32  0.000  0.001  0.015  0.015
   33  0.000  0.001  0.015  0.015
   34  0.000  0.001  0.015  0.015
   35  0.017  0.001  0.003  0.020
   36  0.000  0.000  0.006  0.006
   37  0.000  0.001  0.000  0.001
tot    0.050  0.015  0.767  0.832
 
band    21 # energy   -5.19032452 # occ.  2.00000000
 
ion      s      p      d    tot
    1  0.002  0.000  0.005  0.007
    2  0.000  0.001  0.020  0.021
    3  0.000  0.001  0.020  0.021
    4  0.000  0.001  0.020  0.021
    5  0.027  0.001  0.001  0.029
    6  0.000  0.001  0.020  0.021
    7  0.000  0.001  0.020  0.021
    8  0.000  0.001  0.020  0.021
    9  0.016  0.000  0.011  0.027
   10  0.000  0.000  0.036  0.037
   11  0.000  0.001  0.029  0.030
   12  0.000  0.000  0.036  0.037
   13  0.000  0.001  0.029  0.030
   14  0.000  0.001  0.029  0.030
   15  0.000  0.000  0.031  0.032
   16  0.000  0.000  0.036  0.037
   17  0.000  0.000  0.031  0.032
   18  0.000  0.000  0.031  0.032
   19  0.001  0.000  0.024  0.025
   20  0.000  0.000  0.027  0.028
   21  0.000  0.000  0.027  0.028
   22  0.001  0.000  0.016  0.017
   23  0.000  0.000  0.027  0.028
   24  0.001  0.000  0.016  0.017
   25  0.001  0.000  0.024  0.025
   26  0.001  0.000  0.024  0.025
   27  0.001  0.000  0.016  0.017
   28  0.011  0.000  0.008  0.018
   29  0.000  0.000  0.016  0.016
   30  0.000  0.000  0.016  0.016
   31  0.000  0.000  0.016  0.016
   32  0.000  0.000  0.016  0.016
   33  0.000  0.000  0.016  0.016
   34  0.000  0.000  0.016  0.016
   35  0.001  0.000  0.004  0.005
   36  0.006  0.001  0.000  0.007