PROCAR new format
# of k-points:   10         # of bands:  252         # of ions:   36

 k-point     1 :    0.00000000 0.00000000 0.00000000     weight = 0.01562500

band     1 # energy   -8.15821905 # occ.  2.00000000
 
ion      s      p      d    tot
    1  0.007  0.001  0.000  0.007
    2  0.007  0.001  0.000  0.007
    3  0.007  0.001  0.000  0.007
    4  0.007  0.001  0.000  0.007
    5  0.007  0.001  0.000  0.007
    6  0.007  0.001  0.000  0.007
    7  0.007  0.001  0.000  0.007
    8  0.007  0.001  0.000  0.007
    9  0.007  0.001  0.000  0.007
   10  0.027  0.000  0.000  0.027
   11  0.027  0.000  0.000  0.028
   12  0.027  0.000  0.000  0.027
   13  0.027  0.000  0.000  0.028
   14  0.027  0.000  0.000  0.028
   15  0.027  0.000  0.000  0.027
   16  0.027  0.000  0.000  0.027
   17  0.027  0.000  0.000  0.027
   18  0.027  0.000  0.000  0.027
   19  0.023  0.000  0.000  0.024
   20  0.026  0.000  0.000  0.026
   21  0.026  0.000  0.000  0.026
   22  0.025  0.000  0.000  0.025
   23  0.026  0.000  0.000  0.026
   24  0.025  0.000  0.000  0.025
   25  0.023  0.000  0.000  0.024
   26  0.023  0.000  0.000  0.024
   27  0.025  0.000  0.000  0.025
   28  0.005  0.000  0.000  0.005
   29  0.005  0.000  0.000  0.005
   30  0.005  0.000  0.000  0.005
   31  0.005  0.000  0.000  0.005
   32  0.005  0.000  0.000  0.005
   33  0.005  0.000  0.000  0.005
   34  0.005  0.000  0.000  0.005
   35  0.005  0.000  0.000  0.005
   36  0.003  0.000  0.000  0.004
tot    0.565  0.012  0.003  0.580
 
band     2 # energy   -6.96984719 # occ.  2.00000000
 
ion      s      p      d    tot
    1  0.017  0.000  0.001  0.019
    2  0.017  0.000  0.001  0.018
    3  0.017  0.000  0.001  0.018
    4  0.017  0.000  0.001  0.018
    5  0.017  0.000  0.001  0.018
    6  0.017  0.000  0.001  0.018
    7  0.017  0.000  0.001  0.018
    8  0.017  0.000  0.001  0.018
    9  0.017  0.000  0.001  0.018
   10  0.010  0.002  0.002  0.014
   11  0.010  0.002  0.003  0.014
   12  0.010  0.002  0.002  0.014
   13  0.010  0.002  0.003  0.014
   14  0.010  0.002  0.003  0.014
   15  0.010  0.002  0.003  0.014
   16  0.010  0.002  0.002  0.014
   17  0.010  0.002  0.003  0.014
   18  0.010  0.002  0.003  0.014
   19  0.014  0.001  0.004  0.019
   20  0.015  0.001  0.004  0.020
   21  0.015  0.001  0.004  0.020
   22  0.015  0.001  0.004  0.020
   23  0.015  0.001  0.004  0.020
   24  0.015  0.001  0.004  0.020
   25  0.014  0.001  0.004  0.019
   26  0.014  0.001  0.004  0.019
   27  0.015  0.001  0.004  0.020
   28  0.014  0.001  0.000  0.014
   29  0.014  0.001  0.000  0.015
   30  0.014  0.001  0.000  0.015
   31  0.014  0.001  0.000  0.015
   32  0.014  0.001  0.000  0.015
   33  0.014  0.001  0.000  0.015
   34  0.014  0.001  0.000  0.015
   35  0.014  0.001  0.000  0.015
   36  0.007  0.000  0.000  0.007
tot    0.492  0.032  0.070  0.594
 
band     3 # energy   -6.03209488 # occ.  2.00000000
 
ion      s      p      d    tot
    1  0.008  0.000  0.020  0.028
    2  0.015  0.000  0.016  0.031
    3  0.015  0.000  0.016  0.031
    4  0.015  0.000  0.016  0.031
    5  0.008  0.000  0.014  0.022
    6  0.015  0.000  0.016  0.031
    7  0.015  0.000  0.016  0.031
    8  0.015  0.000  0.016  0.031
    9  0.035  0.000  0.010  0.045
   10  0.012  0.001  0.022  0.035
   11  0.018  0.002  0.016  0.036
   12  0.012  0.001  0.022  0.035
   13  0.018  0.002  0.016  0.036
   14  0.018  0.002  0.016  0.036
   15  0.000  0.001  0.025  0.027
   16  0.012  0.001  0.022  0.035
   17  0.000  0.001  0.025  0.027
   18  0.000  0.001  0.025  0.027
   19  0.001  0.000  0.008  0.009
   20  0.007  0.001  0.008  0.016
   21  0.007  0.001  0.008  0.016
   22  0.006  0.001  0.002  0.009
   23  0.007  0.001  0.008  0.016
   24  0.006  0.001  0.002  0.009
   25  0.001  0.000  0.008  0.009
   26  0.001  0.000  0.008  0.009
   27  0.006  0.001  0.002  0.009
   28  0.004  0.000  0.000  0.004
   29  0.001  0.000  0.002  0.004
   30  0.002  0.000  0.002  0.004
   31  0.001  0.000  0.002  0.004
   32  0.002  0.000  0.002  0.004
   33  0.002  0.000  0.002  0.004
   34  0.002  0.000  0.002  0.004
   35  0.006  0.000  0.000  0.006
   36  0.000  0.000  0.000  0.001
tot    0.294  0.021  0.395  0.710
 
band     4 # energy   -6.01585626 # occ.  2.00000000
 
ion      s      p      d    tot
    1  0.021  0.000  0.002  0.023
    2  0.006  0.000  0.010  0.017
    3  0.006  0.000  0.010  0.017
    4  0.006  0.000  0.010  0.017
    5  0.012  0.000  0.007  0.019
    6  0.006  0.000  0.010  0.017
    7  0.006  0.000  0.010  0.017
    8  0.006  0.000  0.010  0.017
    9  0.000  0.002  0.011  0.013
   10  0.001  0.000  0.033  0.034
   11  0.000  0.002  0.018  0.020
   12  0.001  0.000  0.033  0.034
   13  0.000  0.002  0.018  0.020
   14  0.000  0.002  0.018  0.020
   15  0.039  0.002  0.007  0.048
   16  0.001  0.000  0.033  0.034
   17  0.039  0.002  0.007  0.048
   18  0.039  0.002  0.007  0.048
   19  0.000  0.001  0.018  0.018
   20  0.019  0.000  0.013  0.033
   21  0.019  0.000  0.014  0.033
   22  0.012  0.003  0.006  0.021
   23  0.019  0.000  0.014  0.033
   24  0.012  0.003  0.006  0.021
   25  0.000  0.001  0.017  0.018
   26  0.000  0.001  0.018  0.018
   27  0.012  0.003  0.006  0.021
   28  0.000  0.000  0.000  0.000
   29  0.000  0.000  0.003  0.003
   30  0.000  0.000  0.003  0.003
   31  0.000  0.000  0.003  0.003
   32  0.000  0.000  0.003  0.003
   33  0.000  0.000  0.003  0.003
   34  0.000  0.000  0.003  0.003
   35  0.003  0.000  0.000  0.004
   36  0.005  0.001  0.001  0.007
tot    0.291  0.032  0.384  0.708
 
band     5 # energy   -6.00609058 # occ.  2.00000000
 
ion      s      p      d    tot
    1  0.000  0.000  0.006  0.006
    2  0.000  0.000  0.003  0.004
    3  0.001  0.000  0.003  0.005
    4  0.003  0.001  0.003  0.006
    5  0.000  0.001  0.009  0.010
    6  0.007  0.001  0.003  0.011
    7  0.004  0.001  0.004  0.008
    8  0.007  0.001  0.004  0.012
    9  0.000  0.001  0.002  0.002
   10  0.018  0.002  0.007  0.026
   11  0.007  0.002  0.033  0.041
   12  0.008  0.001  0.020  0.029
   13  0.025  0.002  0.024  0.051
   14  0.059  0.001  0.009  0.069
   15  0.001  0.004  0.004  0.009
   16  0.002  0.001  0.028  0.030
   17  0.005  0.003  0.008  0.015
   18  0.012  0.000  0.015  0.027
   19  0.000  0.003  0.005  0.008
   20  0.049  0.001  0.012  0.062
   21  0.022  0.002  0.019  0.043
   22  0.014  0.001  0.022  0.037
   23  0.006  0.003  0.023  0.032
   24  0.031  0.002  0.004  0.037
   25  0.001  0.000  0.012  0.014
   26  0.001  0.002  0.007  0.010
   27  0.004  0.000  0.032  0.036
   28  0.000  0.000  0.001  0.001
   29  0.006  0.001  0.003  0.010
   30  0.001  0.001  0.003  0.005
   31  0.007  0.001  0.003  0.011
   32  0.005  0.001  0.002  0.008
   33  0.000  0.000  0.003  0.003
   34  0.002  0.000  0.002  0.005
   35  0.000  0.000  0.006  0.006
   36  0.000  0.001  0.002  0.003
tot    0.307  0.043  0.343  0.693
 
band     6 # energy   -6.00608970 # occ.  2.00000000
 
ion      s      p      d    tot
    1  0.000  0.000  0.006  0.006
    2  0.007  0.001  0.004  0.012
    3  0.006  0.001  0.003  0.010
    4  0.005  0.001  0.004  0.010
    5  0.000  0.001  0.009  0.010
    6  0.001  0.000  0.003  0.004
    7  0.004  0.001  0.003  0.007
    8  0.000  0.000  0.003  0.003
    9  0.000  0.001  0.002  0.002
   10  0.001  0.001  0.029  0.031
   11  0.054  0.001  0.011  0.066
   12  0.011  0.001  0.016  0.028
   13  0.035  0.002  0.019  0.056
   14  0.002  0.002  0.035  0.039
   15  0.010  0.001  0.014  0.025
   16  0.016  0.002  0.009  0.027
   17  0.007  0.002  0.010  0.019
   18  0.000  0.004  0.003  0.007
   19  0.001  0.001  0.011  0.013
   20  0.002  0.003  0.024  0.029
   21  0.030  0.002  0.017  0.048
   22  0.019  0.001  0.017  0.037
   23  0.045  0.001  0.013  0.059
   24  0.001  0.000  0.035  0.036
   25  0.000  0.003  0.004  0.008
   26  0.001  0.002  0.009  0.011
   27  0.029  0.002  0.007  0.037
   28  0.000  0.000  0.001  0.001
   29  0.001  0.000  0.002  0.004
   30  0.006  0.001  0.002  0.009
   31  0.000  0.000  0.002  0.003
   32  0.002  0.001  0.003  0.006
   33  0.007  0.001  0.003  0.011
   34  0.005  0.001  0.004  0.009
   35  0.000  0.000  0.006  0.006
   36  0.000  0.001  0.002  0.003
tot    0.307  0.043  0.343  0.693
 
band     7 # energy   -5.98964961 # occ.  2.00000000
 
ion      s      p      d    tot
    1  0.008  0.001  0.001  0.010
    2  0.000  0.001  0.006  0.007
    3  0.000  0.001  0.006  0.007
    4  0.000  0.001  0.006  0.007
    5  0.017  0.002  0.001  0.019
    6  0.000  0.001  0.006  0.007
    7  0.000  0.001  0.006  0.007
    8  0.000  0.001  0.006  0.007
    9  0.000  0.000  0.002  0.002
   10  0.026  0.003  0.002  0.031
   11  0.020  0.001  0.023  0.044
   12  0.026  0.003  0.002  0.030
   13  0.020  0.001  0.023  0.044
   14  0.021  0.001  0.023  0.044
   15  0.000  0.001  0.024  0.025
   16  0.026  0.003  0.002  0.030
   17  0.000  0.001  0.024  0.025
   18  0.000  0.001  0.024  0.025
   19  0.025  0.002  0.006  0.033
   20  0.005  0.002  0.016  0.024
   21  0.005  0.002  0.016  0.024
   22  0.009  0.000  0.026  0.035
   23  0.005  0.002  0.016  0.024
   24  0.009  0.000  0.026  0.035
   25  0.025  0.002  0.006  0.033
   26  0.025  0.002  0.006  0.033
   27  0.009  0.000  0.026  0.035
   28  0.011  0.001  0.001  0.013
   29  0.000  0.000  0.004  0.004
   30  0.000  0.000  0.004  0.004
   31  0.000  0.000  0.004  0.004
   32  0.000  0.000  0.004  0.004
   33  0.000  0.000  0.004  0.004
   34  0.000  0.000  0.004  0.004
   35  0.004  0.001  0.002  0.007
   36  0.000  0.000  0.000  0.000
tot    0.300  0.040  0.355  0.695
 
band     8 # energy   -5.96620747 # occ.  2.00000000
 
ion      s      p      d    tot
    1  0.000  0.001  0.006  0.007
    2  0.007  0.001  0.004  0.012
    3  0.006  0.001  0.003  0.010
    4  0.007  0.001  0.004  0.012
    5  0.000  0.000  0.002  0.002
    6  0.000  0.000  0.003  0.004
    7  0.006  0.001  0.003  0.011
    8  0.000  0.000  0.003  0.004
    9  0.000  0.001  0.011  0.012
   10  0.045  0.000  0.014  0.060
   11  0.000  0.002  0.012  0.014
   12  0.010  0.003  0.014  0.027
   13  0.000  0.002  0.012  0.015
   14  0.000  0.001  0.013  0.013
   15  0.014  0.001  0.036  0.051
   16  0.012  0.003  0.014  0.029
   17  0.012  0.001  0.037  0.050
   18  0.053  0.002  0.003  0.058
   19  0.013  0.001  0.026  0.041
   20  0.007  0.001  0.008  0.017
   21  0.002  0.001  0.017  0.020
   22  0.005  0.003  0.009  0.017
   23  0.002  0.001  0.017  0.020
   24  0.021  0.000  0.014  0.035
   25  0.049  0.002  0.004  0.055
   26  0.011  0.001  0.028  0.040
   27  0.006  0.003  0.009  0.018
   28  0.000  0.001  0.006  0.007
   29  0.000  0.000  0.002  0.002
   30  0.004  0.001  0.002  0.006
   31  0.000  0.000  0.002  0.002
   32  0.003  0.001  0.003  0.006
   33  0.003  0.001  0.002  0.006
   34  0.002  0.001  0.003  0.006
   35  0.000  0.000  0.002  0.002
   36  0.000  0.000  0.001  0.001
tot    0.300  0.042  0.351  0.693
 
band     9 # energy   -5.96619435 # occ.  2.00000000
 
ion      s      p      d    tot
    1  0.000  0.001  0.006  0.007
    2  0.002  0.001  0.003  0.006
    3  0.003  0.001  0.004  0.007
    4  0.002  0.001  0.003  0.005
    5  0.000  0.000  0.002  0.002
    6  0.009  0.001  0.004  0.014
    7  0.002  0.001  0.004  0.007
    8  0.008  0.001  0.004  0.014
    9  0.000  0.001  0.011  0.012
   10  0.000  0.004  0.013  0.018
   11  0.000  0.001  0.012  0.014
   12  0.035  0.001  0.014  0.050
   13  0.000  0.001  0.012  0.014
   14  0.000  0.003  0.012  0.015
   15  0.038  0.001  0.015  0.055
   16  0.033  0.001  0.014  0.048
   17  0.041  0.002  0.013  0.056
   18  0.000  0.000  0.048  0.048
   19  0.036  0.002  0.012  0.050
   20  0.000  0.001  0.020  0.021
   21  0.006  0.001  0.011  0.018
   22  0.016  0.001  0.013  0.030
   23  0.005  0.001  0.011  0.018
   24  0.000  0.004  0.008  0.012
   25  0.000  0.001  0.035  0.036
   26  0.037  0.002  0.011  0.051
   27  0.015  0.001  0.012  0.029
   28  0.000  0.001  0.006  0.007
   29  0.004  0.001  0.002  0.007
   30  0.001  0.000  0.002  0.003
   31  0.004  0.001  0.002  0.007
   32  0.001  0.000  0.002  0.003
   33  0.001  0.000  0.002  0.003
   34  0.002  0.000  0.002  0.004
   35  0.000  0.000  0.002  0.002
   36  0.000  0.000  0.001  0.001
tot    0.300  0.042  0.351  0.693
 
band    10 # energy   -5.86651773 # occ.  2.00000000
 
ion      s      p      d    tot
    1  0.000  0.000  0.000  0.000
    2  0.000  0.000  0.000  0.001
    3  0.000  0.000  0.000  0.001
    4  0.000  0.000  0.000  0.001
    5  0.001  0.000  0.000  0.001
    6  0.000  0.000  0.000  0.001
    7  0.000  0.000  0.000  0.001
    8  0.000  0.000  0.000  0.001
    9  0.000  0.000  0.000  0.000
   10  0.000  0.000  0.003  0.003
   11  0.001  0.000  0.002  0.004
   12  0.000  0.000  0.003  0.003
   13  0.001  0.000  0.002  0.004
   14  0.001  0.000  0.002  0.004
   15  0.000  0.000  0.003  0.004
   16  0.000  0.000  0.003  0.003
   17  0.000  0.000  0.003  0.004
   18  0.000  0.000  0.003  0.004
   19  0.006  0.001  0.020  0.027
   20  0.004  0.000  0.027  0.032
   21  0.004  0.000  0.027  0.032
   22  0.007  0.001  0.027  0.035
   23  0.004  0.000  0.027  0.032
   24  0.007  0.001  0.027  0.035
   25  0.006  0.001  0.020  0.027
   26  0.006  0.001  0.020  0.027
   27  0.007  0.001  0.027  0.035
   28  0.026  0.000  0.022  0.048
   29  0.025  0.000  0.022  0.048
   30  0.025  0.000  0.022  0.048
   31  0.025  0.000  0.022  0.048
   32  0.025  0.000  0.022  0.048
   33  0.025  0.000  0.022  0.048
   34  0.025  0.000  0.022  0.048
   35  0.029  0.000  0.022  0.052
   36  0.007  0.000  0.004  0.011
tot    0.274  0.011  0.432  0.716
 
band    11 # energy   -5.53157349 # occ.  2.00000000
 
ion      s      p      d    tot
    1  0.016  0.002  0.002  0.020
    2  0.000  0.001  0.008  0.009
    3  0.000  0.001  0.008  0.009
    4  0.000  0.001  0.008  0.009
    5  0.000  0.000  0.002  0.002
    6  0.000  0.001  0.008  0.009
    7  0.000  0.001  0.008  0.009
    8  0.000  0.001  0.008  0.009
    9  0.016  0.001  0.000  0.017
   10  0.010  0.002  0.012  0.023
   11  0.003  0.000  0.041  0.045
   12  0.010  0.002  0.012  0.023
   13  0.003  0.000  0.041  0.045
   14  0.003  0.000  0.041  0.045
   15  0.002  0.001  0.027  0.030
   16  0.010  0.002  0.012  0.023
   17  0.002  0.001  0.027  0.030
   18  0.002  0.001  0.027  0.030
   19  0.006  0.001  0.011  0.018
   20  0.001  0.000  0.048  0.049
   21  0.001  0.000  0.048  0.049
   22  0.011  0.001  0.022  0.034
   23  0.001  0.000  0.048  0.049
   24  0.011  0.001  0.022  0.034
   25  0.006  0.001  0.011  0.018
   26  0.006  0.001  0.011  0.018
   27  0.011  0.001  0.022  0.034
   28  0.011  0.001  0.001  0.013
   29  0.000  0.001  0.006  0.006
   30  0.000  0.001  0.006  0.006
   31  0.000  0.001  0.006  0.006
   32  0.000  0.001  0.006  0.006
   33  0.000  0.001  0.006  0.006
   34  0.000  0.001  0.006  0.006
   35  0.008  0.001  0.002  0.011
   36  0.001  0.000  0.000  0.001
tot    0.150  0.028  0.575  0.753
 
band    12 # energy   -5.51775696 # occ.  2.00000000
 
ion      s      p      d    tot
    1  0.000  0.001  0.004  0.005
    2  0.000  0.001  0.005  0.006
    3  0.009  0.001  0.005  0.015
    4  0.000  0.001  0.005  0.006
    5  0.000  0.001  0.011  0.012
    6  0.005  0.001  0.004  0.010
    7  0.009  0.001  0.005  0.015
    8  0.005  0.001  0.004  0.010
    9  0.000  0.000  0.009  0.009
   10  0.000  0.001  0.050  0.050
   11  0.015  0.001  0.021  0.037
   12  0.007  0.002  0.019  0.027
   13  0.015  0.001  0.021  0.037
   14  0.000  0.000  0.052  0.052
   15  0.002  0.000  0.020  0.022
   16  0.007  0.002  0.019  0.027
   17  0.002  0.000  0.020  0.022
   18  0.000  0.001  0.010  0.012
   19  0.007  0.000  0.019  0.025
   20  0.000  0.000  0.069  0.069
   21  0.018  0.001  0.022  0.041
   22  0.003  0.001  0.019  0.023
   23  0.018  0.001  0.022  0.041
   24  0.000  0.001  0.034  0.035
   25  0.000  0.001  0.013  0.014
   26  0.007  0.000  0.019  0.025
   27  0.003  0.001  0.019  0.023
   28  0.000  0.000  0.008  0.009
   29  0.002  0.001  0.004  0.007
   30  0.010  0.001  0.004  0.015
   31  0.002  0.001  0.004  0.007
   32  0.003  0.001  0.004  0.008
   33  0.010  0.001  0.004  0.015
   34  0.003  0.001  0.004  0.008
   35  0.000  0.000  0.004  0.004
   36  0.000  0.002  0.002  0.003
tot    0.161  0.031  0.554  0.746
 
band    13 # energy   -5.51774358 # occ.  2.00000000
 
ion      s      p      d    tot
    1  0.000  0.001  0.004  0.005
    2  0.009  0.001  0.004  0.014
    3  0.001  0.000  0.004  0.006
    4  0.009  0.001  0.004  0.014
    5  0.000  0.001  0.011  0.012
    6  0.004  0.001  0.005  0.011
    7  0.001  0.000  0.004  0.006
    8  0.004  0.001  0.005  0.011
    9  0.000  0.000  0.009  0.009
   10  0.009  0.002  0.009  0.019
   11  0.005  0.000  0.042  0.047
   12  0.002  0.001  0.039  0.042
   13  0.005  0.000  0.042  0.047
   14  0.021  0.001  0.011  0.032
   15  0.001  0.001  0.014  0.015
   16  0.002  0.001  0.039  0.042
   17  0.001  0.001  0.014  0.015
   18  0.002  0.000  0.023  0.026
   19  0.002  0.001  0.015  0.018
   20  0.024  0.002  0.006  0.031
   21  0.006  0.000  0.053  0.059
   22  0.001  0.001  0.029  0.031
   23  0.006  0.000  0.053  0.059
   24  0.003  0.001  0.014  0.018
   25  0.009  0.000  0.020  0.029
   26  0.002  0.001  0.015  0.018
   27  0.001  0.001  0.029  0.031
   28  0.000  0.000  0.008  0.009
   29  0.008  0.001  0.004  0.014
   30  0.000  0.001  0.004  0.005
   31  0.008  0.001  0.004  0.014
   32  0.007  0.001  0.004  0.012
   33  0.000  0.001  0.004  0.005
   34  0.007  0.001  0.004  0.012
   35  0.000  0.000  0.004  0.004
   36  0.000  0.002  0.002  0.003
tot    0.161  0.031  0.553  0.746
 
band    14 # energy   -5.49165910 # occ.  2.00000000
 
ion      s      p      d    tot
    1  0.006  0.000  0.001  0.007
    2  0.000  0.001  0.009  0.009
    3  0.000  0.001  0.009  0.009
    4  0.000  0.001  0.009  0.009
    5  0.019  0.002  0.000  0.021
    6  0.000  0.001  0.009  0.009
    7  0.000  0.001  0.009  0.009
    8  0.000  0.001  0.009  0.009
    9  0.004  0.001  0.002  0.007
   10  0.000  0.000  0.044  0.044
   11  0.006  0.001  0.013  0.020
   12  0.000  0.000  0.044  0.044
   13  0.006  0.001  0.013  0.020
   14  0.006  0.001  0.013  0.020
   15  0.008  0.001  0.024  0.032
   16  0.000  0.000  0.044  0.044
   17  0.008  0.001  0.024  0.032
   18  0.008  0.001  0.024  0.032
   19  0.008  0.000  0.042  0.051
   20  0.011  0.002  0.009  0.022
   21  0.011  0.002  0.009  0.022
   22  0.001  0.000  0.033  0.034
   23  0.011  0.002  0.009  0.022
   24  0.001  0.000  0.033  0.034
   25  0.008  0.000  0.042  0.051
   26  0.008  0.000  0.042  0.051
   27  0.001  0.000  0.033  0.034
   28  0.000  0.000  0.005  0.005
   29  0.000  0.000  0.005  0.006
   30  0.000  0.000  0.005  0.006
   31  0.000  0.000  0.005  0.006
   32  0.000  0.000  0.005  0.006
   33  0.000  0.000  0.005  0.006
   34  0.000  0.000  0.005  0.006
   35  0.004  0.001  0.000  0.005
   36  0.008  0.002  0.000  0.010
tot    0.145  0.029  0.583  0.756
 
band    15 # energy   -5.47542335 # occ.  2.00000000
 
ion      s      p      d    tot
    1  0.000  0.001  0.015  0.016
    2  0.010  0.001  0.005  0.016
    3  0.002  0.000  0.005  0.007
    4  0.010  0.001  0.005  0.016
    5  0.000  0.000  0.005  0.005
    6  0.003  0.001  0.006  0.010
    7  0.002  0.000  0.005  0.007
    8  0.003  0.001  0.006  0.010
    9  0.000  0.001  0.007  0.009
   10  0.000  0.001  0.029  0.030
   11  0.001  0.001  0.020  0.022
   12  0.007  0.000  0.023  0.030
   13  0.001  0.001  0.020  0.022
   14  0.000  0.001  0.020  0.021
   15  0.011  0.002  0.021  0.034
   16  0.007  0.000  0.023  0.030
   17  0.011  0.002  0.021  0.034
   18  0.000  0.000  0.065  0.065
   19  0.013  0.001  0.020  0.034
   20  0.000  0.002  0.018  0.020
   21  0.000  0.001  0.021  0.022
   22  0.018  0.001  0.021  0.039
   23  0.000  0.001  0.021  0.022
   24  0.000  0.000  0.033  0.034
   25  0.000  0.000  0.066  0.067
   26  0.013  0.001  0.020  0.034
   27  0.018  0.001  0.021  0.039
   28  0.000  0.001  0.005  0.005
   29  0.005  0.001  0.004  0.010
   30  0.000  0.000  0.004  0.005
   31  0.005  0.001  0.004  0.010
   32  0.003  0.001  0.002  0.006
   33  0.000  0.000  0.004  0.005
   34  0.003  0.001  0.002  0.006
   35  0.000  0.001  0.008  0.009
   36  0.000  0.000  0.000  0.001
tot    0.149  0.029  0.574  0.751
 
band    16 # energy   -5.47541318 # occ.  2.00000000
 
ion      s      p      d    tot
    1  0.000  0.001  0.015  0.016
    2  0.000  0.000  0.006  0.006
    3  0.008  0.001  0.005  0.015
    4  0.000  0.000  0.006  0.006
    5  0.000  0.000  0.005  0.005
    6  0.007  0.001  0.005  0.012
    7  0.008  0.001  0.005  0.015
    8  0.007  0.001  0.005  0.012
    9  0.000  0.001  0.007  0.009
   10  0.009  0.000  0.020  0.030
   11  0.000  0.001  0.020  0.021
   12  0.002  0.001  0.027  0.030
   13  0.000  0.001  0.020  0.021
   14  0.001  0.001  0.020  0.022
   15  0.004  0.001  0.050  0.054
   16  0.002  0.001  0.027  0.030
   17  0.004  0.001  0.050  0.055
   18  0.015  0.002  0.006  0.023
   19  0.004  0.001  0.050  0.056
   20  0.000  0.000  0.022  0.023
   21  0.000  0.001  0.019  0.021
   22  0.006  0.001  0.029  0.036
   23  0.000  0.001  0.019  0.021
   24  0.024  0.001  0.017  0.041
   25  0.018  0.001  0.004  0.023
   26  0.004  0.001  0.051  0.056
   27  0.006  0.001  0.029  0.036
   28  0.000  0.001  0.005  0.005
   29  0.001  0.000  0.003  0.004
   30  0.006  0.001  0.003  0.010
   31  0.001  0.000  0.003  0.004
   32  0.003  0.001  0.005  0.008
   33  0.006  0.001  0.003  0.010
   34  0.002  0.001  0.005  0.008
   35  0.000  0.001  0.008  0.009
   36  0.000  0.000  0.000  0.001
tot    0.148  0.029  0.574  0.751
 
band    17 # energy   -5.14073716 # occ.  2.00000000
 
ion      s      p      d    tot
    1  0.000  0.000  0.016  0.017
    2  0.000  0.000  0.012  0.012
    3  0.007  0.000  0.015  0.023
    4  0.000  0.000  0.012  0.012
    5  0.000  0.000  0.030  0.031
    6  0.008  0.001  0.010  0.018
    7  0.007  0.000  0.015  0.023
    8  0.008  0.001  0.009  0.018
    9  0.000  0.001  0.007  0.009
   10  0.000  0.000  0.017  0.017
   11  0.000  0.000  0.046  0.046
   12  0.000  0.000  0.010  0.010
   13  0.000  0.000  0.046  0.046
   14  0.000  0.000  0.042  0.042
   15  0.000  0.000  0.031  0.031
   16  0.000  0.000  0.010  0.010
   17  0.000  0.000  0.031  0.031
   18  0.000  0.000  0.046  0.046
   19  0.000  0.000  0.011  0.011
   20  0.001  0.000  0.048  0.049
   21  0.000  0.000  0.033  0.034
   22  0.000  0.000  0.035  0.035
   23  0.000  0.000  0.034  0.034
   24  0.000  0.000  0.035  0.035
   25  0.001  0.000  0.011  0.012
   26  0.000  0.000  0.011  0.011
   27  0.000  0.000  0.035  0.035
   28  0.000  0.000  0.013  0.013
   29  0.008  0.001  0.013  0.021
   30  0.000  0.001  0.008  0.009
   31  0.007  0.001  0.013  0.021
   32  0.009  0.001  0.007  0.016
   33  0.000  0.001  0.009  0.009
   34  0.009  0.001  0.007  0.017
   35  0.000  0.000  0.019  0.019
   36  0.000  0.002  0.001  0.002
tot    0.066  0.015  0.745  0.825
 
band    18 # energy   -5.14073213 # occ.  2.00000000
 
ion      s      p      d    tot
    1  0.000  0.000  0.016  0.016
    2  0.010  0.001  0.013  0.023
    3  0.003  0.001  0.009  0.013
    4  0.010  0.001  0.013  0.023
    5  0.000  0.000  0.030  0.031
    6  0.002  0.000  0.015  0.017
    7  0.003  0.001  0.009  0.013
    8  0.002  0.000  0.015  0.017
    9  0.000  0.001  0.007  0.009
   10  0.000  0.000  0.007  0.007
   11  0.000  0.000  0.043  0.044
   12  0.000  0.000  0.014  0.015
   13  0.000  0.000  0.043  0.044
   14  0.000  0.000  0.047  0.047
   15  0.000  0.000  0.041  0.041
   16  0.000  0.000  0.014  0.015
   17  0.000  0.000  0.041  0.041
   18  0.000  0.000  0.026  0.026
   19  0.000  0.000  0.011  0.012
   20  0.000  0.000  0.029  0.029
   21  0.001  0.000  0.043  0.044
   22  0.000  0.000  0.035  0.035
   23  0.001  0.000  0.043  0.044
   24  0.000  0.000  0.034  0.035
   25  0.000  0.000  0.010  0.011
   26  0.000  0.000  0.011  0.012
   27  0.000  0.000  0.035  0.035
   28  0.000  0.000  0.013  0.013
   29  0.003  0.001  0.006  0.010
   30  0.011  0.001  0.010  0.022
   31  0.003  0.001  0.006  0.010
   32  0.002  0.001  0.012  0.014
   33  0.011  0.001  0.010  0.022
   34  0.002  0.001  0.012  0.014
   35  0.000  0.000  0.019  0.019
   36  0.000  0.002  0.001  0.002
tot    0.066  0.015  0.745  0.825
 
band    19 # energy   -5.12421097 # occ.  2.00000000
 
ion      s      p      d    tot
    1  0.018  0.001  0.001  0.019
    2  0.000  0.001  0.017  0.018
    3  0.000  0.001  0.017  0.018
    4  0.000  0.001  0.017  0.018
    5  0.013  0.000  0.013  0.026
    6  0.000  0.001  0.017  0.018
    7  0.000  0.001  0.017  0.018
    8  0.000  0.001  0.017  0.018
    9  0.000  0.000  0.007  0.008
   10  0.000  0.000  0.028  0.029
   11  0.000  0.000  0.035  0.035
   12  0.000  0.000  0.028  0.028
   13  0.000  0.000  0.035  0.035
   14  0.000  0.000  0.035  0.035
   15  0.000  0.000  0.037  0.038
   16  0.000  0.000  0.028  0.028
   17  0.000  0.000  0.037  0.038
   18  0.000  0.000  0.037  0.038
   19  0.000  0.000  0.025  0.025
   20  0.000  0.000  0.024  0.024
   21  0.000  0.000  0.024  0.024
   22  0.001  0.000  0.028  0.029
   23  0.000  0.000  0.024  0.024
   24  0.001  0.000  0.028  0.030
   25  0.000  0.000  0.025  0.025
   26  0.000  0.000  0.025  0.025
   27  0.001  0.000  0.028  0.029
   28  0.015  0.001  0.001  0.017
   29  0.000  0.000  0.015  0.015
   30  0.000  0.000  0.015  0.015
   31  0.000  0.000  0.015  0.015
   32  0.000  0.000  0.015  0.015
   33  0.000  0.000  0.015  0.015
   34  0.000  0.000  0.015  0.015
   35  0.010  0.000  0.005  0.015
   36  0.000  0.000  0.001  0.001
tot    0.062  0.014  0.749  0.824
 
band    20 # energy   -5.11697581 # occ.  2.00000000
 
ion      s      p      d    tot
    1  0.001  0.000  0.013  0.014
    2  0.000  0.001  0.018  0.019
    3  0.000  0.001  0.018  0.019
    4  0.000  0.001  0.018  0.019
    5  0.014  0.001  0.002  0.017
    6  0.000  0.001  0.018  0.019
    7  0.000  0.001  0.018  0.019
    8  0.000  0.001  0.018  0.019
    9  0.025  0.001  0.006  0.032
   10  0.000  0.000  0.043  0.044
   11  0.000  0.001  0.040  0.041
   12  0.000  0.000  0.043  0.044
   13  0.000  0.001  0.040  0.041
   14  0.000  0.001  0.040  0.041
   15  0.000  0.000  0.030  0.031
   16  0.000  0.000  0.043  0.044
   17  0.000  0.000  0.030  0.031
   18  0.000  0.000  0.031  0.031
   19  0.001  0.000  0.022  0.024
   20  0.001  0.000  0.037  0.038
   21  0.001  0.000  0.037  0.038
   22  0.000  0.000  0.017  0.017
   23  0.001  0.000  0.037  0.038
   24  0.000  0.000  0.017  0.017
   25  0.001  0.000  0.022  0.024
   26  0.001  0.000  0.022  0.024
   27  0.000  0.000  0.017  0.017
   28  0.001  0.000  0.004  0.005
   29  0.000  0.000  0.009  0.009
   30  0.000  0.000  0.009  0.009
   31  0.000  0.000  0.009  0.009
   32  0.000  0.000  0.009  0.009
   33  0.000  0.000  0.009  0.009
   34  0.000  0.000  0.009  0.009
   35  0.002  0.000  0.001  0.003
   36  0.004  0.000  0.002  0.006
tot    0.053  0.016  0.759  0.828
 
band    21 # energy   -5.08729678 # occ.  2.00000000
 
ion      s      p      d    tot
    1  0.000  0.002  0.016  0.017
    2  0.001  0.001  0.014  0.017
    3  0.006  0.001  0.019  0.025
    4  0.001  0.001  0.014  0.017
    5  0.000  0.001  0.013  0.014
    6  0.014  0.001  0.011  0.026
    7  0.006  0.001  0.019  0.025
    8  0.014  0.001  0.011  0.026
    9  0.000  0.000  0.036  0.036
   10  0.000  0.000  0.068  0.068
   11  0.000  0.000  0.035  0.036
   12  0.000  0.001  0.059  0.059
   13  0.000  0.000  0.035  0.036
   14  0.000  0.000  0.024  0.024
   15  0.000  0.001  0.027  0.028
   16  0.000  0.001  0.059  0.059
   17  0.000  0.001  0.027  0.028
   18  0.000  0.000  0.030  0.031
   19  0.001  0.000  0.033  0.034
   20  0.000  0.001  0.019  0.019
   21  0.000  0.000  0.021  0.022
   22  0.003  0.000  0.016  0.019
   23  0.000  0.000  0.021  0.022
   24  0.000  0.000  0.006  0.006
   25  0.000  0.000  0.021  0.021
   26  0.001  0.000  0.033  0.034
   27  0.003  0.000  0.016  0.019
   28  0.000  0.000  0.009  0.010
   29  0.003  0.000  0.005  0.008
   30  0.000  0.000  0.007  0.007
   31  0.003  0.000  0.005  0.008
   32  0.002  0.000  0.003  0.005
   33  0.000  0.000  0.007  0.007
   34  0.002  0.000  0.003  0.005
   35  0.000  0.001  0.005  0.006
   36  0.000  0.000  0.001  0.001
tot    0.061  0.017  0.747  0.825
 
band    22 # energy   -5.08729029 # occ.  2.00000000
 
ion      s      p      d    tot
    1  0.000  0.002  0.016  0.017
    2  0.013  0.001  0.015  0.029
    3  0.008  0.001  0.011  0.020
    4  0.013  0.001  0.015  0.029
    5  0.000  0.001  0.013  0.014
    6  0.001  0.001  0.018  0.019
    7  0.008  0.001  0.011  0.020
    8  0.001  0.001  0.018  0.019
    9  0.000  0.000  0.036  0.036
   10  0.000  0.001  0.055  0.056
   11  0.000  0.000  0.028  0.028
   12  0.000  0.000  0.065  0.065
   13  0.000  0.000  0.028  0.028
   14  0.000  0.000  0.039  0.040
   15  0.000  0.001  0.029  0.030
   16  0.000  0.000  0.065  0.065