 vasp.6.2.0 18Jan21 (build Jun 12 2021 23:27:24) complex                        
  
 executed on             LinuxIFC date 2022.05.27  05:25:09
 running on   16 total cores
 distrk:  each k-point on   16 cores,    1 groups
 distr:  one band on NCORE=   1 cores,   16 groups


--------------------------------------------------------------------------------------------------------


 INCAR:
   ISMEAR = -5
   SIGMA = 0.1
   ISPIN = 1
   EDIFF = 1.d-5
   EDIFFG = -0.01
   NSW = 0
   NELM = 150
   ENCUT = 500
   ISIF = 2
   IBRION = 2
   LREAL = Auto
   ALGO = Fast
   ICHARG = 11
   LORBIT = 10
   LCHARG = .F.
   LWAVE = .F.

 POTCAR:    PAW_PBE Au 04Oct2007                  
 POTCAR:    PAW_PBE Pt 04Feb2005                  
 POTCAR:    PAW_PBE H 15Jun2001                   
 -----------------------------------------------------------------------------
|                                                                             |
|           W    W    AA    RRRRR   N    N  II  N    N   GGGG   !!!           |
|           W    W   A  A   R    R  NN   N  II  NN   N  G    G  !!!           |
|           W    W  A    A  R    R  N N  N  II  N N  N  G       !!!           |
|           W WW W  AAAAAA  RRRRR   N  N N  II  N  N N  G  GGG   !            |
|           WW  WW  A    A  R   R   N   NN  II  N   NN  G    G                |
|           W    W  A    A  R    R  N    N  II  N    N   GGGG   !!!           |
|                                                                             |
|     For optimal performance we recommend to set                             |
|       NCORE = 2 up to number-of-cores-per-socket                            |
|     NCORE specifies how many cores store one orbital (NPAR=cpu/NCORE).      |
|     This setting can greatly improve the performance of VASP for DFT.       |
|     The default, NCORE=1 might be grossly inefficient on modern             |
|     multi-core architectures or massively parallel machines. Do your        |
|     own testing! More info at https://www.vasp.at/wiki/index.php/NCORE      |
|     Unfortunately you need to use the default for GW and RPA                |
|     calculations (for HF NCORE is supported but not extensively tested      |
|     yet).                                                                   |
|                                                                             |
 -----------------------------------------------------------------------------

 POTCAR:    PAW_PBE Au 04Oct2007                  
   VRHFIN =Au: s1d10                                                                                
   LEXCH  = PE                                                                                      
   EATOM  =   926.0867 eV,   68.0654 Ry                                                             
                                                                                                    
   TITEL  = PAW_PBE Au 04Oct2007                                                                    
   LULTRA =        F    use ultrasoft PP ?                                                          
   IUNSCR =        1    unscreen: 0-lin 1-nonlin 2-no                                               
   RPACOR =    2.330    partial core radius                                                         
   POMASS =  196.966; ZVAL   =   11.000    mass and valenz                                          
   RCORE  =    2.500    outmost cutoff radius                                                       
   RWIGS  =    2.840; RWIGS  =    1.503    wigner-seitz radius (au A)                               
   ENMAX  =  229.943; ENMIN  =  172.457 eV                                                          
   ICORE  =        3    local potential                                                             
   LCOR   =        T    correct aug charges                                                         
   LPAW   =        T    paw PP                                                                      
   EAUG   =  356.670                                                                                
   DEXC   =    0.000                                                                                
   RMAX   =    2.562    core radius for proj-oper                                                   
   RAUG   =    1.300    factor for augmentation sphere                                              
   RDEP   =    2.598    radius for radial grids                                                     
   RDEPT  =    2.193    core radius for aug-charge                                                  
                                                                                                    
   Atomic configuration                                                                             
   16 entries                                                                                       
     n  l   j            E        occ.                                                              
     1  0  0.50    -80748.5001   2.0000                                                             
     2  0  0.50    -14244.7466   2.0000                                                             
     2  1  1.50    -12310.9591   6.0000                                                             
     3  0  0.50     -3362.1768   2.0000                                                             
     3  1  1.50     -2801.5463   6.0000                                                             
     3  2  2.50     -2203.8206  10.0000                                                             
     4  0  0.50      -729.8168   2.0000                                                             
     4  1  1.50      -546.0527   6.0000                                                             
     4  2  2.50      -325.7302  10.0000                                                             
     4  3  3.50       -81.1472  14.0000                                                             
     5  0  0.50      -108.3201   2.0000                                                             
     5  1  1.50       -59.7479   6.0000                                                             
     5  2  2.50        -6.8783  10.0000                                                             
     6  0  0.50        -5.7602   1.0000                                                             
     6  1  1.50        -6.8029   0.0000                                                             
     5  3  2.50        -1.3606   0.0000                                                             
   Description                                                                                      
     l       E           TYP  RCUT    TYP  RCUT                                                     
     2     -6.8782861     23  2.500                                                                 
     2     -8.2388687     23  2.500                                                                 
     0     -5.7601759     23  2.500                                                                 
     0     -0.8493231     23  2.500                                                                 
     1     -2.7211652     23  2.500                                                                 
     1     27.2116520     23  2.500                                                                 
     3     -1.3605826     23  2.500                                                                 
  local pseudopotential read in
  partial core-charges read in
  partial kinetic energy density read in
  atomic valenz-charges read in
  non local Contribution for L=           2  read in
    real space projection operators read in
  non local Contribution for L=           2  read in
    real space projection operators read in
  non local Contribution for L=           0  read in
    real space projection operators read in
  non local Contribution for L=           0  read in
    real space projection operators read in
  non local Contribution for L=           1  read in
    real space projection operators read in
  non local Contribution for L=           1  read in
    real space projection operators read in
    PAW grid and wavefunctions read in
 
   number of l-projection  operators is LMAX  =           6
   number of lm-projection operators is LMMAX =          18
 
 POTCAR:    PAW_PBE Pt 04Feb2005                  
   VRHFIN =Pt: s1d9                                                                                 
   LEXCH  = PE                                                                                      
   EATOM  =   729.1176 eV,   53.5886 Ry                                                             
                                                                                                    
   TITEL  = PAW_PBE Pt 04Feb2005                                                                    
   LULTRA =        F    use ultrasoft PP ?                                                          
   IUNSCR =        1    unscreen: 0-lin 1-nonlin 2-no                                               
   RPACOR =    2.330    partial core radius                                                         
   POMASS =  195.080; ZVAL   =   10.000    mass and valenz                                          
   RCORE  =    2.600    outmost cutoff radius                                                       
   RWIGS  =    2.750; RWIGS  =    1.455    wigner-seitz radius (au A)                               
   ENMAX  =  230.283; ENMIN  =  172.712 eV                                                          
   ICORE  =        3    local potential                                                             
   LCOR   =        T    correct aug charges                                                         
   LPAW   =        T    paw PP                                                                      
   EAUG   =  358.966                                                                                
   DEXC   =    0.000                                                                                
   RMAX   =    2.658    core radius for proj-oper                                                   
   RAUG   =    1.300    factor for augmentation sphere                                              
   RDEP   =    2.761    radius for radial grids                                                     
   RDEPT  =    2.203    core radius for aug-charge                                                  
                                                                                                    
   Atomic configuration                                                                             
   16 entries                                                                                       
     n  l   j            E        occ.                                                              
     1  0  0.50    -78401.1885   2.0000                                                             
     2  0  0.50    -13770.7750   2.0000                                                             
     2  1  1.50    -11931.0468   6.0000                                                             
     3  0  0.50     -3234.7234   2.0000                                                             
     3  1  1.50     -2699.2216   6.0000                                                             
     3  2  2.50     -2119.5714  10.0000                                                             
     4  0  0.50      -695.1528   2.0000                                                             
     4  1  1.50      -519.6034   6.0000                                                             
     4  2  2.50      -306.6786  10.0000                                                             
     4  3  3.50       -70.1041  14.0000                                                             
     5  0  0.50      -101.7747   2.0000                                                             
     5  1  1.50       -55.9873   6.0000                                                             
     5  2  2.50        -6.1423   9.0000                                                             
     6  0  0.50        -5.6573   1.0000                                                             
     6  1  1.50        -6.8029   0.0000                                                             
     5  3  2.50        -1.3606   0.0000                                                             
   Description                                                                                      
     l       E           TYP  RCUT    TYP  RCUT                                                     
     2     -6.1423404     23  2.500                                                                 
     2     -7.5029230     23  2.500                                                                 
     0     -5.6573207     23  2.500                                                                 
     0      0.7416693     23  2.500                                                                 
     1     -2.7211652     23  2.600                                                                 
     1     20.4087390     23  2.600                                                                 
     3     -1.3605826     23  2.500                                                                 
  local pseudopotential read in
  partial core-charges read in
  partial kinetic energy density read in
  atomic valenz-charges read in
  non local Contribution for L=           2  read in
    real space projection operators read in
  non local Contribution for L=           2  read in
    real space projection operators read in
  non local Contribution for L=           0  read in
    real space projection operators read in
  non local Contribution for L=           0  read in
    real space projection operators read in
  non local Contribution for L=           1  read in
    real space projection operators read in
  non local Contribution for L=           1  read in
    real space projection operators read in
    PAW grid and wavefunctions read in
 
   number of l-projection  operators is LMAX  =           6
   number of lm-projection operators is LMMAX =          18
 
 POTCAR:    PAW_PBE H 15Jun2001                   
   VRHFIN =H: ultrasoft test                                                                        
   LEXCH  = PE                                                                                      
   EATOM  =    12.4884 eV,    0.9179 Ry                                                             
                                                                                                    
   TITEL  = PAW_PBE H 15Jun2001                                                                     
   LULTRA =        F    use ultrasoft PP ?                                                          
   IUNSCR =        0    unscreen: 0-lin 1-nonlin 2-no                                               
   RPACOR =    0.000    partial core radius                                                         
   POMASS =    1.000; ZVAL   =    1.000    mass and valenz                                          
   RCORE  =    1.100    outmost cutoff radius                                                       
   RWIGS  =    0.700; RWIGS  =    0.370    wigner-seitz radius (au A)                               
   ENMAX  =  250.000; ENMIN  =  200.000 eV                                                          
   RCLOC  =    0.701    cutoff for local pot                                                        
   LCOR   =        T    correct aug charges                                                         
   LPAW   =        T    paw PP                                                                      
   EAUG   =  400.000                                                                                
   RMAX   =    1.123    core radius for proj-oper                                                   
   RAUG   =    1.200    factor for augmentation sphere                                              
   RDEP   =    1.112    radius for radial grids                                                     
   RDEPT  =    0.926    core radius for aug-charge                                                  
                                                                                                    
   Atomic configuration                                                                             
    2 entries                                                                                       
     n  l   j            E        occ.                                                              
     1  0  0.50        -6.4927   1.0000                                                             
     2  1  0.50        -3.4015   0.0000                                                             
   Description                                                                                      
     l       E           TYP  RCUT    TYP  RCUT                                                     
     0     -6.4927494     23  1.100                                                                 
     0      6.8029130     23  1.100                                                                 
     1     -4.0817478     23  1.100                                                                 
  local pseudopotential read in
  atomic valenz-charges read in
  non local Contribution for L=           0  read in
    real space projection operators read in
  non local Contribution for L=           0  read in
    real space projection operators read in
  non local Contribution for L=           1  read in
    real space projection operators read in
    PAW grid and wavefunctions read in
 
   number of l-projection  operators is LMAX  =           3
   number of lm-projection operators is LMMAX =           5
 
 Optimization of the real space projectors (new method)

 maximal supplied QI-value         = 15.12
 optimisation between [QCUT,QGAM] = [ 11.34, 22.83] = [ 36.00,145.93] Ry 
 Optimized for a Real-space Cutoff    1.39 Angstroem

   l    n(q)    QCUT    max X(q) W(low)/X(q) W(high)/X(q)  e(spline) 
   2      9    11.338    60.898    0.39E-03    0.42E-03    0.21E-06
   2      9    11.338    58.894    0.40E-03    0.42E-03    0.22E-06
   0      9    11.338   109.617    0.13E-03    0.20E-04    0.13E-06
   0      9    11.338    75.026    0.13E-03    0.20E-04    0.13E-06
   1      9    11.338    16.344    0.33E-04    0.24E-03    0.18E-06
   1      9    11.338    10.160    0.26E-04    0.19E-03    0.15E-06
 Optimization of the real space projectors (new method)

 maximal supplied QI-value         = 14.36
 optimisation between [QCUT,QGAM] = [ 11.35, 22.84] = [ 36.05,146.02] Ry 
 Optimized for a Real-space Cutoff    1.47 Angstroem

   l    n(q)    QCUT    max X(q) W(low)/X(q) W(high)/X(q)  e(spline) 
   2      9    11.346    66.195    0.31E-03    0.12E-04    0.29E-06
   2      9    11.346    64.643    0.32E-03    0.12E-04    0.29E-06
   0     10    11.346    95.520    0.90E-04    0.16E-04    0.19E-06
   0     10    11.346    63.403    0.87E-04    0.15E-04    0.19E-06
   1     10    11.346    19.961    0.17E-03    0.21E-03    0.11E-06
   1     10    11.346    13.289    0.14E-03    0.18E-03    0.89E-07
 Optimization of the real space projectors (new method)

 maximal supplied QI-value         = 34.20
 optimisation between [QCUT,QGAM] = [ 11.29, 22.57] = [ 35.68,142.71] Ry 
 Optimized for a Real-space Cutoff    1.16 Angstroem

   l    n(q)    QCUT    max X(q) W(low)/X(q) W(high)/X(q)  e(spline) 
   0      8    11.287    19.460    0.40E-03    0.73E-03    0.16E-06
   0      8    11.287    12.209    0.38E-03    0.70E-03    0.15E-06
   1      7    11.287     4.655    0.22E-03    0.25E-04    0.22E-06
  PAW_PBE Au 04Oct2007                  :
 energy of atom  1       EATOM= -926.0867
 kinetic energy error for atom=    0.0042 (will be added to EATOM!!)
  PAW_PBE Pt 04Feb2005                  :
 energy of atom  2       EATOM= -729.1176
 kinetic energy error for atom=    0.0039 (will be added to EATOM!!)
  PAW_PBE H 15Jun2001                   :
 energy of atom  3       EATOM=  -12.4884
 kinetic energy error for atom=    0.0020 (will be added to EATOM!!)
 
 
 POSCAR: Au-Pt-H2
  positions in direct lattice
  velocities in cartesian coordinates
 exchange correlation table for  LEXCH =        8
   RHO(1)=    0.500       N(1)  =     2000
   RHO(2)=  100.500       N(2)  =     4000

 VTST: version 3.2, (02/03/18)

 CHAIN: initializing optimizer
 
 OPT: Using VASP Conjugate-Gradient optimizer
 CHAIN: Read ICHAIN            0
 
 POSCAR: Au-Pt-H2
  positions in direct lattice
  velocities in cartesian coordinates
 


--------------------------------------------------------------------------------------------------------


 ion  position               nearest neighbor table
   1  0.000  0.000  0.224-  16 2.94  12 2.94   6 2.94   8 2.94   7 2.94   3 2.94  10 2.94   4 2.94
                             2 2.94
   2  0.333  0.000  0.224-   9 2.94  11 2.94  17 2.94  10 2.94   8 2.94   4 2.94   5 2.94   1 2.94
                             3 2.94
   3  0.667  0.000  0.224-   7 2.94  18 2.94  12 2.94   1 2.94  11 2.94   5 2.94   6 2.94   9 2.94
                             2 2.94
   4  0.000  0.333  0.224-  10 2.94   6 2.94   5 2.94  13 2.94   2 2.94  15 2.94   9 2.94   1 2.94
                             7 2.94
   5  0.333  0.333  0.224-  13 2.94   7 2.94  11 2.94   4 2.94   2 2.94  14 2.94   3 2.94   8 2.94
                             6 2.94
   6  0.667  0.333  0.224-  15 2.94  14 2.94   1 2.94  12 2.94   4 2.94   9 2.94   8 2.94   3 2.94
                             5 2.94
   7  0.000  0.667  0.224-  18 2.94   3 2.94  16 2.94   5 2.94   1 2.94  13 2.94   8 2.94   4 2.94
                             9 2.94
   8  0.333  0.667  0.224-   9 2.94  17 2.94   1 2.94   2 2.94  14 2.94  16 2.94   6 2.94   7 2.94
                             5 2.94
   9  0.667  0.667  0.224-   2 2.94   8 2.94  17 2.94   6 2.94  15 2.94   4 2.94   3 2.94  18 2.94
                             7 2.94
  10  0.111  0.111  0.325-  20 2.91  26 2.93  19 2.93  11 2.94  17 2.94   2 2.94   4 2.94   1 2.94
                            12 2.94  16 2.94  13 2.94  15 2.94
  11  0.444  0.111  0.325-  20 2.92  21 2.92  27 2.93  13 2.94   2 2.94  10 2.94  17 2.94   5 2.94
                             3 2.94  18 2.94  14 2.94  12 2.94
  12  0.778  0.111  0.325-  21 2.91  25 2.93  19 2.93  16 2.94  18 2.94   1 2.94  14 2.94  15 2.94
                             3 2.94   6 2.94  10 2.94  11 2.94
  13  0.111  0.444  0.325-  23 2.92  20 2.92  22 2.93   5 2.94  18 2.94  11 2.94   7 2.94   4 2.94
                            16 2.94  10 2.94  14 2.94  15 2.94
  14  0.444  0.444  0.325-  21 2.92  23 2.92  24 2.93  15 2.94   6 2.94  12 2.94   8 2.94  17 2.94
                             5 2.94  16 2.94  13 2.94  11 2.94
  15  0.778  0.444  0.325-  24 2.93  22 2.93  19 2.93  14 2.94   6 2.94  17 2.94  12 2.94   9 2.94
                             4 2.94  10 2.94  13 2.94  18 2.94
  16  0.111  0.778  0.325-  23 2.91  25 2.93  26 2.93  18 2.94  12 2.94   7 2.94   1 2.94   8 2.94
                            13 2.94  10 2.94  14 2.94  17 2.94
  17  0.444  0.778  0.325-  27 2.93  24 2.93  26 2.93   9 2.94  15 2.94   2 2.94  10 2.94  11 2.94
                             8 2.94  14 2.94  16 2.94  18 2.94
  18  0.778  0.778  0.325-  22 2.93  27 2.93  25 2.93  16 2.94   7 2.94  13 2.94  12 2.94   3 2.94
                            11 2.94   9 2.94  15 2.94  17 2.94
  19  0.889  0.222  0.426-  21 2.93  20 2.93  15 2.93  10 2.93  12 2.93  24 2.94  22 2.94  26 2.94
                            25 2.94  28 2.96  32 2.96  31 2.96
  20  0.221  0.221  0.425-  36 2.82  10 2.91  11 2.92  13 2.92  26 2.93  19 2.93  27 2.94  22 2.94
                            23 2.96  21 2.96  29 2.96  31 2.96
  21  0.557  0.221  0.425-  36 2.82  12 2.91  14 2.92  11 2.92  25 2.93  19 2.93  24 2.94  27 2.94
                            20 2.96  23 2.96  30 2.96  32 2.96
  22  0.888  0.556  0.426-  18 2.93  15 2.93  24 2.93  27 2.93  13 2.93  25 2.94  19 2.94  23 2.94
                            20 2.94  35 2.96  33 2.96  31 2.96
  23  0.221  0.557  0.425-  36 2.82  16 2.91  13 2.92  14 2.92  25 2.93  26 2.93  22 2.94  24 2.94
                            20 2.96  21 2.96  33 2.96  34 2.96
  24  0.556  0.556  0.426-  15 2.93  17 2.93  27 2.93  22 2.93  14 2.93  26 2.94  19 2.94  21 2.94
                            23 2.94  35 2.96  32 2.96  34 2.96
  25  0.889  0.889  0.426-  23 2.93  21 2.93  18 2.93  16 2.93  12 2.93  22 2.94  27 2.94  19 2.94
                            26 2.94  28 2.96  33 2.96  30 2.96
  26  0.222  0.889  0.426-  20 2.93  23 2.93  17 2.93  10 2.93  16 2.93  27 2.94  24 2.94  19 2.94
                            25 2.94  28 2.96  29 2.96  34 2.96
  27  0.556  0.888  0.426-  17 2.93  18 2.93  24 2.93  22 2.93  11 2.93  26 2.94  25 2.94  20 2.94
                            21 2.94  35 2.96  29 2.96  30 2.96
  28  0.000  0.000  0.529-  34 2.95  32 2.95  33 2.95  30 2.95  31 2.95  29 2.95  25 2.96  19 2.96
                            26 2.96
  29  0.333  0.002  0.529-  30 2.92  31 2.92  36 2.93  35 2.95  28 2.95  27 2.96  20 2.96  26 2.96
                            34 2.98
  30  0.664  0.002  0.529-  29 2.92  32 2.92  36 2.93  35 2.95  28 2.95  27 2.96  21 2.96  25 2.96
                            33 2.98
  31  0.002  0.333  0.529-  33 2.92  29 2.92  36 2.93  35 2.95  28 2.95  22 2.96  20 2.96  19 2.96
                            32 2.98
  32  0.664  0.333  0.529-  34 2.92  30 2.92  36 2.93  35 2.95  28 2.95  24 2.96  21 2.96  19 2.96
                            31 2.98
  33  0.002  0.664  0.529-  31 2.92  34 2.92  36 2.93  35 2.95  28 2.95  22 2.96  23 2.96  25 2.96
                            30 2.98
  34  0.333  0.664  0.529-  32 2.92  33 2.92  36 2.93  35 2.95  28 2.95  24 2.96  23 2.96  26 2.96
                            29 2.98
  35  0.667  0.667  0.529-  29 2.95  34 2.95  32 2.95  31 2.95  30 2.95  33 2.95  24 2.96  27 2.96
                            22 2.96
  36  0.333  0.333  0.521-  38 1.69  37 1.69  20 2.82  23 2.82  21 2.82  33 2.93  31 2.93  29 2.93
                            30 2.93  34 2.93  32 2.93
  37  0.279  0.332  0.589-  36 1.69
  38  0.388  0.332  0.589-  36 1.69
 
  LATTYP: Found a hexagonal cell.
 ALAT       =     8.8135128021
 C/A-ratio  =     2.6805310532
  
  Lattice vectors:
  
 A1 = (  -4.4067569092,  -7.6327256898,   0.0000000000)
 A2 = (   8.8135128021,   0.0000000000,   0.0000000000)
 A3 = (   0.0000000000,   0.0000000000,  23.6248947541)


Analysis of symmetry for initial positions (statically):
=====================================================================
 Subroutine PRICEL returns:
 Original cell was already a primitive cell.
 

 Routine SETGRP: Setting up the symmetry group for a 
 hexagonal supercell.


 Subroutine GETGRP returns: Found  2 space group operations
 (whereof  2 operations were pure point group operations)
 out of a pool of 24 trial point group operations.


The static configuration has the point symmetry C_1h.


Analysis of symmetry for dynamics (positions and initial velocities):
=====================================================================
 Subroutine PRICEL returns:
 Original cell was already a primitive cell.
 

 Routine SETGRP: Setting up the symmetry group for a 
 hexagonal supercell.


 Subroutine GETGRP returns: Found  2 space group operations
 (whereof  2 operations were pure point group operations)
 out of a pool of 24 trial point group operations.


The dynamic configuration has the point symmetry C_1h.


Analysis of constrained symmetry for selective dynamics:
=====================================================================
 Subroutine PRICEL returns:
 Original cell was already a primitive cell.
 

 Routine SETGRP: Setting up the symmetry group for a 
 hexagonal supercell.


 Subroutine GETGRP returns: Found  2 space group operations
 (whereof  2 operations were pure point group operations)
 out of a pool of 24 trial point group operations.


The constrained configuration has the point symmetry C_1h.


 Subroutine INISYM returns: Found  2 space group operations
 (whereof  2 operations are pure point group operations),
 and found     1 'primitive' translations


----------------------------------------------------------------------------------------

                                     Primitive cell                                     

  volume of cell :    1589.2733

  direct lattice vectors                    reciprocal lattice vectors
     8.813512802  0.000000000  0.000000000     0.113462137 -0.065507406  0.000000000
     4.406756909  7.632725690  0.000000000     0.000000000  0.131014796  0.000000000
     0.000000000  0.000000000 23.624894754     0.000000000  0.000000000  0.042328231

  length of vectors
     8.813512802  8.813512802 23.624894754     0.131014796  0.131014796  0.042328231

  position of ions in fractional coordinates (direct lattice)
     0.000000000  0.000000000  0.223509141
     0.333333343  0.000000000  0.223509141
     0.666666687  0.000000000  0.223509141
     1.000000000  0.333333343  0.223509141
     0.333333313  0.333333343  0.223509141
     0.666666687  0.333333343  0.223509141
     1.000000000  0.666666687  0.223509141
     0.333333343  0.666666687  0.223509141
     0.666666627  0.666666687  0.223509141
     0.111111119  0.111111112  0.325043312
     0.444444418  0.111111112  0.325043312
     0.777777791  0.111111112  0.325043312
     0.111111127  0.444444448  0.325043312
     0.444444478  0.444444448  0.325043312
     0.777777731  0.444444448  0.325043312
     0.111111090  0.777777791  0.325043312
     0.444444448  0.777777791  0.325043312
     0.777777851  0.777777791  0.325043312
     0.888828178  0.222343660  0.426386520
     0.221445935  0.221445920  0.425324236
     0.557108191  0.221445920  0.425324236
     0.888066827  0.555966617  0.426106065
     0.221445890  0.557108191  0.425324236
     0.555966617  0.555966617  0.426106065
     0.888828178  0.888828178  0.426386520
     0.222343690  0.888828178  0.426386520
     0.555966557  0.888066827  0.426106065
     0.000000000  0.000000000  0.529062683
     0.333456755  0.002060750  0.528813810
     0.664482524  0.002060750  0.528813810
     0.002060750  0.333456755  0.528813810
     0.664482524  0.333456755  0.528813810
     0.002060750  0.664482524  0.528813810
     0.333456755  0.664482524  0.528813810
     0.666666627  0.666666687  0.528958994
     0.333333313  0.333333343  0.520559665
     0.279196777  0.332497721  0.589057717
     0.388305471  0.332497721  0.589057717

  ion indices of the primitive-cell ions
   primitive index   ion index
                 1           1
                 2           2
                 3           3
                 4           4
                 5           5
                 6           6
                 7           7
                 8           8
                 9           9
                10          10
                11          11
                12          12
                13          13
                14          14
                15          15
                16          16
                17          17
                18          18
                19          19
                20          20
                21          21
                22          22
                23          23
                24          24
                25          25
                26          26
                27          27
                28          28
                29          29
                30          30
                31          31
                32          32
                33          33
                34          34
                35          35
                36          36
                37          37
                38          38

----------------------------------------------------------------------------------------

 
 
 KPOINTS: Automatic mesh                          

Automatic generation of k-mesh.
 Grid dimensions read from file:
 generate k-points for:    8    8    1

 Generating k-lattice:

  Cartesian coordinates                     Fractional coordinates (reciprocal lattice)
     0.014182767 -0.008188426  0.000000000     0.125000000 -0.000000000  0.000000000
     0.000000000  0.016376850  0.000000000     0.000000000  0.125000000  0.000000000
     0.000000000  0.000000000  0.042328231     0.000000000  0.000000000  1.000000000

  Length of vectors
     0.016376850  0.016376850  0.042328231

  Shift w.r.t. Gamma in fractional coordinates (k-lattice)
     0.000000000  0.000000000  0.000000000

 TETIRR: Found    100 inequivalent tetrahedra from      384
 
 Subroutine IBZKPT returns following result:
 ===========================================
 
 Found     21 irreducible k-points:
 
 Following reciprocal coordinates:
            Coordinates               Weight
  0.000000  0.000000  0.000000      1.000000
  0.125000 -0.000000  0.000000      4.000000
  0.000000  0.125000  0.000000      2.000000
  0.250000 -0.000000  0.000000      4.000000
  0.000000  0.250000  0.000000      2.000000
  0.375000  0.000000  0.000000      4.000000
  0.000000  0.375000  0.000000      2.000000
  0.500000 -0.000000  0.000000      2.000000
  0.000000  0.500000  0.000000      1.000000
  0.250000  0.125000  0.000000      2.000000
  0.125000  0.250000  0.000000      4.000000
  0.375000  0.125000  0.000000      4.000000
  0.250000  0.375000  0.000000      4.000000
 -0.125000  0.250000  0.000000      4.000000
  0.500000  0.125000  0.000000      4.000000
  0.375000  0.500000  0.000000      4.000000
 -0.125000  0.375000  0.000000      4.000000
  0.500000  0.250000  0.000000      2.000000
  0.250000  0.500000  0.000000      4.000000
 -0.375000  0.250000  0.000000      4.000000
 -0.250000  0.375000  0.000000      2.000000
 
 Following cartesian coordinates:
            Coordinates               Weight
  0.000000  0.000000  0.000000      1.000000
  0.014183 -0.008188  0.000000      4.000000
  0.000000  0.016377  0.000000      2.000000
  0.028366 -0.016377  0.000000      4.000000
  0.000000  0.032754  0.000000      2.000000
  0.042548 -0.024565  0.000000      4.000000
  0.000000  0.049131  0.000000      2.000000
  0.056731 -0.032754  0.000000      2.000000
  0.000000  0.065507  0.000000      1.000000
  0.028366 -0.000000  0.000000      2.000000
  0.014183  0.024565  0.000000      4.000000
  0.042548 -0.008188  0.000000      4.000000
  0.028366  0.032754  0.000000      4.000000
 -0.014183  0.040942  0.000000      4.000000
  0.056731 -0.016377  0.000000      4.000000
  0.042548  0.040942  0.000000      4.000000
 -0.014183  0.057319  0.000000      4.000000
  0.056731 -0.000000  0.000000      2.000000
  0.028366  0.049131  0.000000      4.000000
 -0.042548  0.057319  0.000000      4.000000
 -0.028366  0.065507  0.000000      2.000000
 


--------------------------------------------------------------------------------------------------------




 Dimension of arrays:
   k-points           NKPTS =     21   k-points in BZ     NKDIM =     21   number of bands    NBANDS=    240
   number of dos      NEDOS =    301   number of ions     NIONS =     38
   non local maximal  LDIM  =      6   non local SUM 2l+1 LMDIM =     18
   total plane-waves  NPLWV = 322560
   max r-space proj   IRMAX =   2774   max aug-charges    IRDMAX=  12610
   dimension x,y,z NGX =    48 NGY =   48 NGZ =  140
   dimension x,y,z NGXF=    96 NGYF=   96 NGZF=  280
   support grid    NGXF=    96 NGYF=   96 NGZF=  280
   ions per type =              35   1   2
   NGX,Y,Z   is equivalent  to a cutoff of   9.05,  9.05,  9.85 a.u.
   NGXF,Y,Z  is equivalent  to a cutoff of  18.11, 18.11, 19.70 a.u.

 SYSTEM =  unknown system                          
 POSCAR =  Au-Pt-H2                                

 Startparameter for this run:
   NWRITE =      2    write-flag & timer
   PREC   = normal    normal or accurate (medium, high low for compatibility)
   ISTART =      0    job   : 0-new  1-cont  2-samecut
   ICHARG =     11    charge: 1-file 2-atom 10-const
   ISPIN  =      1    spin polarized calculation?
   LNONCOLLINEAR =      F non collinear calculations
   LSORBIT =      F    spin-orbit coupling
   INIWAV =      1    electr: 0-lowe 1-rand  2-diag
   LASPH  =      F    aspherical Exc in radial PAW
   METAGGA=      F    non-selfconsistent MetaGGA calc.

 Electronic Relaxation 1
   ENCUT  =  500.0 eV  36.75 Ry    6.06 a.u.  16.07 16.07 43.07*2*pi/ulx,y,z
   ENINI  =  500.0     initial cutoff
   ENAUG  =  400.0 eV  augmentation charge cutoff
   NELM   =    150;   NELMIN=  2; NELMDL= -5     # of ELM steps 
   EDIFF  = 0.1E-04   stopping-criterion for ELM
   LREAL  =      T    real-space projection
   NLSPLINE    = F    spline interpolate recip. space projectors
   LCOMPAT=      F    compatible to vasp.4.4
   GGA_COMPAT  = T    GGA compatible to vasp.4.4-vasp.4.6
   LMAXPAW     = -100 max onsite density
   LMAXMIX     =    2 max onsite mixed and CHGCAR
   VOSKOWN=      0    Vosko Wilk Nusair interpolation
   ROPT   =   -0.00050  -0.00050  -0.00050
 Ionic relaxation
   EDIFFG = -.1E-01   stopping-criterion for IOM
   NSW    =      0    number of steps for IOM
   NBLOCK =      1;   KBLOCK =      1    inner block; outer block 
   IBRION =     -1    ionic relax: 0-MD 1-quasi-New 2-CG
   NFREE  =      1    steps in history (QN), initial steepest desc. (CG)
   ISIF   =      2    stress and relaxation
   IWAVPR =     10    prediction:  0-non 1-charg 2-wave 3-comb
   ISYM   =      2    0-nonsym 1-usesym 2-fastsym
   LCORR  =      T    Harris-Foulkes like correction to forces

   POTIM  = 0.5000    time-step for ionic-motion
   TEIN   =    0.0    initial temperature
   TEBEG  =    0.0;   TEEND  =   0.0 temperature during run
   SMASS  =  -3.00    Nose mass-parameter (am)
   estimated Nose-frequenzy (Omega)   =  0.10E-29 period in steps = 0.13E+47 mass=  -0.178E-26a.u.
   SCALEE = 1.0000    scale energy and forces
   NPACO  =    256;   APACO  = 16.0  distance and # of slots for P.C.
   PSTRESS=    0.0 pullay stress

  Mass of Ions in am
   POMASS = 196.97195.08  1.00
  Ionic Valenz
   ZVAL   =  11.00 10.00  1.00
  Atomic Wigner-Seitz radii
   RWIGS  =  -1.00 -1.00 -1.00
  virtual crystal weights 
   VCA    =   1.00  1.00  1.00
   NELECT =     397.0000    total number of electrons
   NUPDOWN=      -1.0000    fix difference up-down

 DOS related values:
   EMIN   =  10.00;   EMAX   =-10.00  energy-range for DOS
   EFERMI =   0.00
   ISMEAR =    -5;   SIGMA  =   0.10  broadening in eV -4-tet -1-fermi 0-gaus

 Electronic relaxation 2 (details)
   IALGO  =     68    algorithm
   LDIAG  =      T    sub-space diagonalisation (order eigenvalues)
   LSUBROT=      F    optimize rotation matrix (better conditioning)
   TURBO    =      0    0=normal 1=particle mesh
   IRESTART =      0    0=no restart 2=restart with 2 vectors
   NREBOOT  =      0    no. of reboots
   NMIN     =      0    reboot dimension
   EREF     =   0.00    reference energy to select bands
   IMIX   =      4    mixing-type and parameters
     AMIX     =   0.40;   BMIX     =  1.00
     AMIX_MAG =   1.60;   BMIX_MAG =  1.00
     AMIN     =   0.10
     WC   =   100.;   INIMIX=   1;  MIXPRE=   1;  MAXMIX= -45

 Intra band minimization:
   WEIMIN = 0.0000     energy-eigenvalue tresh-hold
   EBREAK =  0.10E-07  absolut break condition
   DEPER  =   0.30     relativ break condition  

   TIME   =   0.40     timestep for ELM

  volume/ion in A,a.u.               =      41.82       282.24
  Fermi-wavevector in a.u.,A,eV,Ry     =   1.031032  1.948368 14.463360  1.063027
  Thomas-Fermi vector in A             =   2.165160
 
 Write flags
   LWAVE        =      F    write WAVECAR
   LDOWNSAMPLE  =      F    k-point downsampling of WAVECAR
   LCHARG       =      F    write CHGCAR
   LVTOT        =      F    write LOCPOT, total local potential
   LVHAR        =      F    write LOCPOT, Hartree potential only
   LELF         =      F    write electronic localiz. function (ELF)
   LORBIT       =     10    0 simple, 1 ext, 2 COOP (PROOUT), +10 PAW based schemes


 Dipole corrections
   LMONO  =      F    monopole corrections only (constant potential shift)
   LDIPOL =      F    correct potential (dipole corrections)
   IDIPOL =      0    1-x, 2-y, 3-z, 4-all directions 
   EPSILON=  1.0000000 bulk dielectric constant

 Exchange correlation treatment:
   GGA     =    --    GGA type
   LEXCH   =     8    internal setting for exchange type
   VOSKOWN=      0    Vosko Wilk Nusair interpolation
   LHFCALC =     F    Hartree Fock is set to
   LHFONE  =     F    Hartree Fock one center treatment
   AEXX    =    0.0000 exact exchange contribution

 Linear response parameters
   LEPSILON=     F    determine dielectric tensor
   LRPA    =     F    only Hartree local field effects (RPA)
   LNABLA  =     F    use nabla operator in PAW spheres
   LVEL    =     F    velocity operator in full k-point grid
   LINTERFAST=   F  fast interpolation
   KINTER  =     0    interpolate to denser k-point grid
   CSHIFT  =0.1000    complex shift for real part using Kramers Kronig
   OMEGAMAX=  -1.0    maximum frequency
   DEG_THRESHOLD= 0.2000000E-02 threshold for treating states as degnerate
   RTIME   =   -0.100 relaxation time in fs
  (WPLASMAI=    0.000 imaginary part of plasma frequency in eV, 0.658/RTIME)
   DFIELD  = 0.0000000 0.0000000 0.0000000 field for delta impulse in time
 
 Orbital magnetization related:
   ORBITALMAG=     F  switch on orbital magnetization
   LCHIMAG   =     F  perturbation theory with respect to B field
   DQ        =  0.001000  dq finite difference perturbation B field
   LLRAUG    =     F  two centre corrections for induced B field



--------------------------------------------------------------------------------------------------------


 Static calculation
 charge density and potential remain constant during run
 non-spin polarized calculation
 RMM-DIIS sequential band-by-band and
  variant of blocked Davidson during initial phase
 perform sub-space diagonalisation
    before iterative eigenvector-optimisation
 no mixing
 using additional bands           41
 real space projection scheme for non local part
 use partial core corrections
 calculate Harris-corrections to forces 
   (improved forces if not selfconsistent)
 use gradient corrections 
 WARNING: stress and forces are not correct
  (second derivative of E(xc) not defined)
 use of overlap-Matrix (Vanderbilt PP)
 Fermi weights with tetrahedron method with Bloechl corrections


--------------------------------------------------------------------------------------------------------


  energy-cutoff  :      500.00
  volume of cell :     1589.27
      direct lattice vectors                 reciprocal lattice vectors
     8.813512802  0.000000000  0.000000000     0.113462137 -0.065507406  0.000000000
     4.406756909  7.632725690  0.000000000     0.000000000  0.131014796  0.000000000
     0.000000000  0.000000000 23.624894754     0.000000000  0.000000000  0.042328231

  length of vectors
     8.813512802  8.813512802 23.624894754     0.131014796  0.131014796  0.042328231


 
 k-points in units of 2pi/SCALE and weight: Automatic mesh                          
   0.00000000  0.00000000  0.00000000       0.016
   0.01418277 -0.00818843  0.00000000       0.062
   0.00000000  0.01637685  0.00000000       0.031
   0.02836553 -0.01637685  0.00000000       0.062
   0.00000000  0.03275370  0.00000000       0.031
   0.04254830 -0.02456528  0.00000000       0.062
   0.00000000  0.04913055  0.00000000       0.031
   0.05673107 -0.03275370  0.00000000       0.031
   0.00000000  0.06550740  0.00000000       0.016
   0.02836553 -0.00000000  0.00000000       0.031
   0.01418277  0.02456527  0.00000000       0.062
   0.04254830 -0.00818843  0.00000000       0.062
   0.02836553  0.03275370  0.00000000       0.062
  -0.01418277  0.04094212  0.00000000       0.062
   0.05673107 -0.01637685  0.00000000       0.062
   0.04254830  0.04094212  0.00000000       0.062
  -0.01418277  0.05731897  0.00000000       0.062
   0.05673107 -0.00000000  0.00000000       0.031
   0.02836553  0.04913055  0.00000000       0.062
  -0.04254830  0.05731898  0.00000000       0.062
  -0.02836553  0.06550740  0.00000000       0.031
 
 k-points in reciprocal lattice and weights: Automatic mesh                          
   0.00000000  0.00000000  0.00000000       0.016
   0.12500000 -0.00000000  0.00000000       0.062
   0.00000000  0.12500000  0.00000000       0.031
   0.25000000 -0.00000000  0.00000000       0.062
   0.00000000  0.25000000  0.00000000       0.031
   0.37500000  0.00000000  0.00000000       0.062
   0.00000000  0.37500000  0.00000000       0.031
   0.50000000 -0.00000000  0.00000000       0.031
   0.00000000  0.50000000  0.00000000       0.016
   0.25000000  0.12500000  0.00000000       0.031
   0.12500000  0.25000000  0.00000000       0.062
   0.37500000  0.12500000  0.00000000       0.062
   0.25000000  0.37500000  0.00000000       0.062
  -0.12500000  0.25000000  0.00000000       0.062
   0.50000000  0.12500000  0.00000000       0.062
   0.37500000  0.50000000  0.00000000       0.062
  -0.12500000  0.37500000  0.00000000       0.062
   0.50000000  0.25000000  0.00000000       0.031
   0.25000000  0.50000000  0.00000000       0.062
  -0.37500000  0.25000000  0.00000000       0.062
  -0.25000000  0.37500000  0.00000000       0.031
 
 position of ions in fractional coordinates (direct lattice) 
   0.00000000  0.00000000  0.22350914
   0.33333334  0.00000000  0.22350914
   0.66666669  0.00000000  0.22350914
   0.00000000  0.33333334  0.22350914
   0.33333331  0.33333334  0.22350914
   0.66666669  0.33333334  0.22350914
   0.00000000  0.66666669  0.22350914
   0.33333334  0.66666669  0.22350914
   0.66666663  0.66666669  0.22350914
   0.11111112  0.11111111  0.32504331
   0.44444442  0.11111111  0.32504331
   0.77777779  0.11111111  0.32504331
   0.11111113  0.44444445  0.32504331
   0.44444448  0.44444445  0.32504331
   0.77777773  0.44444445  0.32504331
   0.11111109  0.77777779  0.32504331
   0.44444445  0.77777779  0.32504331
   0.77777785  0.77777779  0.32504331
   0.88882818  0.22234366  0.42638652
   0.22144593  0.22144592  0.42532424
   0.55710819  0.22144592  0.42532424
   0.88806683  0.55596662  0.42610606
   0.22144589  0.55710819  0.42532424
   0.55596662  0.55596662  0.42610606
   0.88882818  0.88882818  0.42638652
   0.22234369  0.88882818  0.42638652
   0.55596656  0.88806683  0.42610606
   0.00000000  0.00000000  0.52906268
   0.33345676  0.00206075  0.52881381
   0.66448252  0.00206075  0.52881381
   0.00206075  0.33345676  0.52881381
   0.66448252  0.33345676  0.52881381
   0.00206075  0.66448252  0.52881381
   0.33345676  0.66448252  0.52881381
   0.66666663  0.66666669  0.52895899
   0.33333331  0.33333334  0.52055966
   0.27919678  0.33249772  0.58905772
   0.38830547  0.33249772  0.58905772
 
 position of ions in cartesian coordinates  (Angst):
   0.00000000  0.00000000  5.28037993
   2.93783769  0.00000000  5.28037993
   5.87567538  0.00000000  5.28037993
   1.46891901  2.54424197  5.28037993
   4.40675643  2.54424197  5.28037993
   7.34459439  2.54424197  5.28037993
   2.93783803  5.08848395  5.28037993
   5.87567571  5.08848395  5.28037993
   8.81351288  5.08848395  5.28037993
   1.46891893  0.84808064  7.67911405
   4.40675623  0.84808064  7.67911405
   7.34459418  0.84808064  7.67911405
   2.93783798  3.39232256  7.67911405
   5.87567574  3.39232256  7.67911405
   8.81351263  3.39232256  7.67911405
   4.40675667  5.93656453  7.67911405
   7.34459449  5.93656453  7.67911405
  10.28243270  5.93656453  7.67911405
   8.81351299  1.69708816 10.07333666
   2.92757492  1.69023596 10.04824031
   5.88593851  1.69023596 10.04824031
  10.27699808  4.24354068 10.06671093
   4.40675655  4.25225400 10.04824031
   7.35002862  4.24354068 10.06671093
  11.75054824  6.78418167 10.07333666
   5.87647867  6.78418167 10.07333666
   8.81351299  6.77837048 10.06671093
   0.00000000  0.00000000 12.49905020
   2.94800661  0.01572914 12.49317060
   5.86550646  0.01572914 12.49317060
   1.48762531  2.54518394 12.49317060
   7.32588810  2.54518394 12.49317060
   2.94637541  5.07181283 12.49317060
   5.86713834  5.07181283 12.49317060
   8.81351288  5.08848395 12.49660056
   4.40675643  2.54424197 12.29816729
   3.92594100  2.53786390 13.91642656
   4.88757187  2.53786390 13.91642656
 


--------------------------------------------------------------------------------------------------------


 k-point   1 :   0.0000 0.0000 0.0000  plane waves:   40269
 k-point   2 :   0.1250-0.0000 0.0000  plane waves:   40270
 k-point   3 :   0.0000 0.1250 0.0000  plane waves:   40270
 k-point   4 :   0.2500-0.0000 0.0000  plane waves:   40308
 k-point   5 :   0.0000 0.2500 0.0000  plane waves:   40308
 k-point   6 :   0.3750 0.0000 0.0000  plane waves:   40358
 k-point   7 :   0.0000 0.3750 0.0000  plane waves:   40358
 k-point   8 :   0.5000-0.0000 0.0000  plane waves:   40396
 k-point   9 :   0.0000 0.5000 0.0000  plane waves:   40396
 k-point  10 :   0.2500 0.1250 0.0000  plane waves:   40274
 k-point  11 :   0.1250 0.2500 0.0000  plane waves:   40274
 k-point  12 :   0.3750 0.1250 0.0000  plane waves:   40366
 k-point  13 :   0.2500 0.3750 0.0000  plane waves:   40366
 k-point  14 :  -0.1250 0.2500 0.0000  plane waves:   40366
 k-point  15 :   0.5000 0.1250 0.0000  plane waves:   40356
 k-point  16 :   0.3750 0.5000 0.0000  plane waves:   40356
 k-point  17 :  -0.1250 0.3750 0.0000  plane waves:   40356
 k-point  18 :   0.5000 0.2500 0.0000  plane waves:   40400
 k-point  19 :   0.2500 0.5000 0.0000  plane waves:   40400
 k-point  20 :  -0.3750 0.2500 0.0000  plane waves:   40372
 k-point  21 :  -0.2500 0.3750 0.0000  plane waves:   40372

 maximum and minimum number of plane-waves per node :     40400    40269

 maximum number of plane-waves:     40400
 maximum index in each direction: 
   IXMAX=   16   IYMAX=   16   IZMAX=   43
   IXMIN=  -16   IYMIN=  -16   IZMIN=  -43


 serial   3D FFT for wavefunctions
 parallel 3D FFT for charge:
    minimum data exchange during FFTs selected (reduces bandwidth)


 total amount of memory used by VASP MPI-rank0   282205. kBytes
=======================================================================

   base      :      30000. kBytes
   nonlr-proj:      14542. kBytes
   fftplans  :       6755. kBytes
   grid      :      23316. kBytes
   one-center:        590. kBytes
   wavefun   :     207002. kBytes
 
     INWAV:  cpu time    0.0000: real time    0.0000
 initial charge density was supplied:
 number of electron     397.0000154 magnetization 
 keeping initial charge density in first step


--------------------------------------------------------------------------------------------------------


 Maximum index for non-local projection operator         2639
 Maximum index for augmentation-charges          832 (set IRDMAX)


--------------------------------------------------------------------------------------------------------


 First call to EWALD:  gamma=   0.152
 Maximum number of real-space cells 4x 4x 2
 Maximum number of reciprocal cells 2x 2x 5

    FEWALD:  cpu time    0.0015: real time    0.0015


--------------------------------------- Iteration      1(   1)  ---------------------------------------


    POTLOK:  cpu time    0.0666: real time    0.0668
    SETDIJ:  cpu time    0.0062: real time    0.0062
     EDDAV:  cpu time   20.1989: real time   20.1997
 BZINTS: Fermi energy:   11.501201;  397.000000 electrons
         Band energy: 0.152276E+04;  BLOECHL correction:   -0.030724
       DOS:  cpu time    0.0293: real time    0.0294
    --------------------------------------------
      LOOP:  cpu time   20.3011: real time   20.3021

 eigenvalue-minimisations  : 10080
 total energy-change (2. order) : 0.2682299E+04  (-0.1777249E+05)
 number of electron     397.0000154 magnetization 
 augmentation part      397.0000154 magnetization 

 Free energy of the ion-electron system (eV)
  ---------------------------------------------------
  alpha Z        PSCENC =       950.76263944
  Ewald energy   TEWEN  =    118175.92828220
  -Hartree energ DENC   =   -152415.94323496
  -exchange      EXHF   =         0.00000000
  -V(xc)+E(xc)   XCENC  =       526.26657742
  PAW double counting   =     36120.41758465   -35364.86225604
  entropy T*S    EENTRO =         0.00000000
  eigenvalues    EBANDS =      1522.75674402
  atomic energy  EATOM  =     33166.97273054
  Solvation  Ediel_sol  =         0.00000000
  ---------------------------------------------------
  free energy    TOTEN  =      2682.29906726 eV

  energy without entropy =     2682.29906726  energy(sigma->0) =     2682.29906726


--------------------------------------------------------------------------------------------------------




--------------------------------------- Iteration      1(   2)  ---------------------------------------


     EDDAV:  cpu time   22.3239: real time   22.3241
 BZINTS: Fermi energy:    1.319030;  397.000000 electrons
         Band energy:-0.112623E+04;  BLOECHL correction:   -0.073953
       DOS:  cpu time    0.0269: real time    0.0269
    --------------------------------------------
      LOOP:  cpu time   22.3509: real time   22.3510

 eigenvalue-minimisations  : 11488
 total energy-change (2. order) :-0.2648987E+04  (-0.2469786E+04)
 number of electron     397.0000154 magnetization 
 augmentation part      397.0000154 magnetization 

 Free energy of the ion-electron system (eV)
  ---------------------------------------------------
  alpha Z        PSCENC =       950.76263944
  Ewald energy   TEWEN  =    118175.92828220
  -Hartree energ DENC   =   -152415.94323496
  -exchange      EXHF   =         0.00000000
  -V(xc)+E(xc)   XCENC  =       526.26657742
  PAW double counting   =     36120.41758465   -35364.86225604
  entropy T*S    EENTRO =         0.00000000
  eigenvalues    EBANDS =     -1126.23008952
  atomic energy  EATOM  =     33166.97273054
  Solvation  Ediel_sol  =         0.00000000
  ---------------------------------------------------
  free energy    TOTEN  =        33.31223372 eV

  energy without entropy =       33.31223372  energy(sigma->0) =       33.31223372


--------------------------------------------------------------------------------------------------------




--------------------------------------- Iteration      1(   3)  ---------------------------------------


     EDDAV:  cpu time   22.1332: real time   22.1332
 BZINTS: Fermi energy:    0.514131;  397.000000 electrons
         Band energy:-0.127529E+04;  BLOECHL correction:   -0.085212
       DOS:  cpu time    0.0290: real time    0.0290
    --------------------------------------------
      LOOP:  cpu time   22.1622: real time   22.1622

 eigenvalue-minimisations  : 11360
 total energy-change (2. order) :-0.1490618E+03  (-0.1439495E+03)
 number of electron     397.0000154 magnetization 
 augmentation part      397.0000154 magnetization 

 Free energy of the ion-electron system (eV)
  ---------------------------------------------------
  alpha Z        PSCENC =       950.76263944
  Ewald energy   TEWEN  =    118175.92828220
  -Hartree energ DENC   =   -152415.94323496
  -exchange      EXHF   =         0.00000000
  -V(xc)+E(xc)   XCENC  =       526.26657742
  PAW double counting   =     36120.41758465   -35364.86225604
  entropy T*S    EENTRO =         0.00000000
  eigenvalues    EBANDS =     -1275.29183996
  atomic energy  EATOM  =     33166.97273054
  Solvation  Ediel_sol  =         0.00000000
  ---------------------------------------------------
  free energy    TOTEN  =      -115.74951672 eV

  energy without entropy =     -115.74951672  energy(sigma->0) =     -115.74951672


--------------------------------------------------------------------------------------------------------




--------------------------------------- Iteration      1(   4)  ---------------------------------------


     EDDAV:  cpu time   22.7001: real time   22.7001
 BZINTS: Fermi energy:    0.484034;  397.000000 electrons
         Band energy:-0.127888E+04;  BLOECHL correction:   -0.081178
       DOS:  cpu time    0.0286: real time    0.0286
    --------------------------------------------
      LOOP:  cpu time   22.7287: real time   22.7286

 eigenvalue-minimisations  : 11728
 total energy-change (2. order) :-0.3587135E+01  (-0.3569980E+01)
 number of electron     397.0000154 magnetization 
 augmentation part      397.0000154 magnetization 

 Free energy of the ion-electron system (eV)
  ---------------------------------------------------
  alpha Z        PSCENC =       950.76263944
  Ewald energy   TEWEN  =    118175.92828220
  -Hartree energ DENC   =   -152415.94323496
  -exchange      EXHF   =         0.00000000
  -V(xc)+E(xc)   XCENC  =       526.26657742
  PAW double counting   =     36120.41758465   -35364.86225604
  entropy T*S    EENTRO =         0.00000000
  eigenvalues    EBANDS =     -1278.87897493
  atomic energy  EATOM  =     33166.97273054
  Solvation  Ediel_sol  =         0.00000000
  ---------------------------------------------------
  free energy    TOTEN  =      -119.33665169 eV

  energy without entropy =     -119.33665169  energy(sigma->0) =     -119.33665169


--------------------------------------------------------------------------------------------------------




--------------------------------------- Iteration      1(   5)  ---------------------------------------


     EDDAV:  cpu time   22.2445: real time   22.2444
 BZINTS: Fermi energy:    0.483471;  397.000000 electrons
         Band energy:-0.127898E+04;  BLOECHL correction:   -0.080864
       DOS:  cpu time    0.0286: real time    0.0286
    --------------------------------------------
      LOOP:  cpu time   22.2730: real time   22.2730

 eigenvalue-minimisations  : 11440
 total energy-change (2. order) :-0.1048519E+00  (-0.1050616E+00)
 number of electron     397.0000154 magnetization 
 augmentation part      397.0000154 magnetization 

 Free energy of the ion-electron system (eV)
  ---------------------------------------------------
  alpha Z        PSCENC =       950.76263944
  Ewald energy   TEWEN  =    118175.92828220
  -Hartree energ DENC   =   -152415.94323496
  -exchange      EXHF   =         0.00000000
  -V(xc)+E(xc)   XCENC  =       526.26657742
  PAW double counting   =     36120.41758465   -35364.86225604
  entropy T*S    EENTRO =         0.00000000
  eigenvalues    EBANDS =     -1278.98382684
  atomic energy  EATOM  =     33166.97273054
  Solvation  Ediel_sol  =         0.00000000
  ---------------------------------------------------
  free energy    TOTEN  =      -119.44150360 eV

  energy without entropy =     -119.44150360  energy(sigma->0) =     -119.44150360


--------------------------------------------------------------------------------------------------------




--------------------------------------- Iteration      1(   6)  ---------------------------------------


    EDDIAG:  cpu time    3.7287: real time    3.7289
  RMM-DIIS:  cpu time   10.4865: real time   10.4865
    ORTHCH:  cpu time    0.7916: real time    0.7916
 BZINTS: Fermi energy:    0.483454;  397.000000 electrons
         Band energy:-0.127899E+04;  BLOECHL correction:   -0.080838
       DOS:  cpu time    0.0292: real time    0.0292
    --------------------------------------------
      LOOP:  cpu time   15.0360: real time   15.0361

 eigenvalue-minimisations  : 10277
 total energy-change (2. order) :-0.3625648E-02  (-0.3649188E-02)
 number of electron     397.0000154 magnetization 
 augmentation part      397.0000154 magnetization 

 Free energy of the ion-electron system (eV)
  ---------------------------------------------------
  alpha Z        PSCENC =       950.76263944
  Ewald energy   TEWEN  =    118175.92828220
  -Hartree energ DENC   =   -152415.94323496
  -exchange      EXHF   =         0.00000000
  -V(xc)+E(xc)   XCENC  =       526.26657742
  PAW double counting   =     36120.41758465   -35364.86225604
  entropy T*S    EENTRO =         0.00000000
  eigenvalues    EBANDS =     -1278.98745248
  atomic energy  EATOM  =     33166.97273054
  Solvation  Ediel_sol  =         0.00000000
  ---------------------------------------------------
  free energy    TOTEN  =      -119.44512925 eV

  energy without entropy =     -119.44512925  energy(sigma->0) =     -119.44512925


--------------------------------------------------------------------------------------------------------




--------------------------------------- Iteration      1(   7)  ---------------------------------------


    EDDIAG:  cpu time    3.7328: real time    3.7329
  RMM-DIIS:  cpu time   15.1101: real time   15.1101
    ORTHCH:  cpu time    0.7922: real time    0.7922
 BZINTS: Fermi energy:    0.483447;  397.000000 electrons
         Band energy:-0.127899E+04;  BLOECHL correction:   -0.080827
       DOS:  cpu time    0.0291: real time    0.0291
    --------------------------------------------
      LOOP:  cpu time   19.6642: real time   19.6643

 eigenvalue-minimisations  : 14948
 total energy-change (2. order) :-0.1347681E-02  (-0.1355942E-02)
 number of electron     397.0000154 magnetization 
 augmentation part      397.0000154 magnetization 

 Free energy of the ion-electron system (eV)
  ---------------------------------------------------
  alpha Z        PSCENC =       950.76263944
  Ewald energy   TEWEN  =    118175.92828220
  -Hartree energ DENC   =   -152415.94323496
  -exchange      EXHF   =         0.00000000
  -V(xc)+E(xc)   XCENC  =       526.26657742
  PAW double counting   =     36120.41758465   -35364.86225604
  entropy T*S    EENTRO =         0.00000000
  eigenvalues    EBANDS =     -1278.98880016
  atomic energy  EATOM  =     33166.97273054
  Solvation  Ediel_sol  =         0.00000000
  ---------------------------------------------------
  free energy    TOTEN  =      -119.44647693 eV

  energy without entropy =     -119.44647693  energy(sigma->0) =     -119.44647693


--------------------------------------------------------------------------------------------------------




--------------------------------------- Iteration      1(   8)  ---------------------------------------


    EDDIAG:  cpu time    3.7283: real time    3.7284
  RMM-DIIS:  cpu time   11.3229: real time   11.3228
    ORTHCH:  cpu time    0.7927: real time    0.7927
 BZINTS: Fermi energy:    0.483447;  397.000000 electrons
         Band energy:-0.127899E+04;  BLOECHL correction:   -0.080826
       DOS:  cpu time    0.0279: real time    0.0279
    --------------------------------------------
      LOOP:  cpu time   15.8718: real time   15.8718

 eigenvalue-minimisations  : 11141
 total energy-change (2. order) :-0.4161871E-04  (-0.4017997E-04)
 number of electron     397.0000154 magnetization 
 augmentation part      397.0000154 magnetization 

 Free energy of the ion-electron system (eV)
  ---------------------------------------------------
  alpha Z        PSCENC =       950.76263944
  Ewald energy   TEWEN  =    118175.92828220
  -Hartree energ DENC   =   -152415.94323496
  -exchange      EXHF   =         0.00000000
  -V(xc)+E(xc)   XCENC  =       526.26657742
  PAW double counting   =     36120.41758465   -35364.86225604
  entropy T*S    EENTRO =         0.00000000
  eigenvalues    EBANDS =     -1278.98884178
  atomic energy  EATOM  =     33166.97273054
  Solvation  Ediel_sol  =         0.00000000
  ---------------------------------------------------
  free energy    TOTEN  =      -119.44651855 eV

  energy without entropy =     -119.44651855  energy(sigma->0) =     -119.44651855


--------------------------------------------------------------------------------------------------------




--------------------------------------- Iteration      1(   9)  ---------------------------------------


    EDDIAG:  cpu time    3.7275: real time    3.7276
  RMM-DIIS:  cpu time    9.8990: real time    9.8990
    ORTHCH:  cpu time    0.7920: real time    0.7920
 BZINTS: Fermi energy:    0.483447;  397.000000 electrons
         Band energy:-0.127899E+04;  BLOECHL correction:   -0.080826
       DOS:  cpu time    0.0285: real time    0.0285
    --------------------------------------------
      LOOP:  cpu time   14.4471: real time   14.4471

 eigenvalue-minimisations  :  9105
 total energy-change (2. order) :-0.1145306E-04  (-0.1150999E-04)
 number of electron     397.0000154 magnetization 
 augmentation part      397.0000154 magnetization 

 Free energy of the ion-electron system (eV)
  ---------------------------------------------------
  alpha Z        PSCENC =       950.76263944
  Ewald energy   TEWEN  =    118175.92828220
  -Hartree energ DENC   =   -152415.94323496
  -exchange      EXHF   =         0.00000000
  -V(xc)+E(xc)   XCENC  =       526.26657742
  PAW double counting   =     36120.41758465   -35364.86225604
  entropy T*S    EENTRO =         0.00000000
  eigenvalues    EBANDS =     -1278.98885324
  atomic energy  EATOM  =     33166.97273054
  Solvation  Ediel_sol  =         0.00000000
  ---------------------------------------------------
  free energy    TOTEN  =      -119.44653000 eV

  energy without entropy =     -119.44653000  energy(sigma->0) =     -119.44653000


--------------------------------------------------------------------------------------------------------




--------------------------------------- Iteration      1(  10)  ---------------------------------------


    EDDIAG:  cpu time    3.7262: real time    3.7295
  RMM-DIIS:  cpu time    7.6612: real time    7.6614
    ORTHCH:  cpu time    0.7916: real time    0.7916
 BZINTS: Fermi energy:    0.483447;  397.000000 electrons
         Band energy:-0.127899E+04;  BLOECHL correction:   -0.080826
       DOS:  cpu time    0.0291: real time    0.0291
    --------------------------------------------
      LOOP:  cpu time   12.2082: real time   12.2117

 eigenvalue-minimisations  :  6308
 total energy-change (2. order) :-0.6353366E-06  (-0.6278089E-06)
 number of electron     397.0000154 magnetization 
 augmentation part      397.0000154 magnetization 

 Free energy of the ion-electron system (eV)
  ---------------------------------------------------
  alpha Z        PSCENC =       950.76263944
  Ewald energy   TEWEN  =    118175.92828220
  -Hartree energ DENC   =   -152415.94323496
  -exchange      EXHF   =         0.00000000
  -V(xc)+E(xc)   XCENC  =       526.26657742
  PAW double counting   =     36120.41758465   -35364.86225604
  entropy T*S    EENTRO =         0.00000000
  eigenvalues    EBANDS =     -1278.98885387
  atomic energy  EATOM  =     33166.97273054
  Solvation  Ediel_sol  =         0.00000000
  ---------------------------------------------------
  free energy    TOTEN  =      -119.44653064 eV

  energy without entropy =     -119.44653064  energy(sigma->0) =     -119.44653064


--------------------------------------------------------------------------------------------------------




 average (electrostatic) potential at core
  the test charge radii are     1.2098  1.2059  0.5201
  (the norm of the test charge is              1.0000)
       1 -72.5840       2 -72.5092       3 -72.5091       4 -72.5089       5 -72.5109
       6 -72.5086       7 -72.5075       8 -72.5072       9 -72.5219      10 -72.8907
      11 -72.8328      12 -72.8905      13 -72.8304      14 -72.8301      15 -72.8642
      16 -72.8873      17 -72.8649      18 -72.8651      19 -72.8104      20 -72.9013
      21 -72.9011      22 -72.8472      23 -72.8934      24 -72.8469      25 -72.8098
      26 -72.8096      27 -72.8466      28 -72.4586      29 -72.4518      30 -72.4518
      31 -72.4776      32 -72.4774      33 -72.4485      34 -72.4482      35 -72.4349
      36 -73.5428      37 -38.1006      38 -38.1004
 
 
 
 E-fermi :   0.4834     XC(G=0):  -5.7741     alpha+bet : -5.4217

 Fermi energy:         0.4834467672

 k-point     1 :       0.0000    0.0000    0.0000
  band No.  band energies     occupation 
      1      -8.6556      2.00000
      2      -8.1912      2.00000
      3      -7.0847      2.00000
      4      -6.1916      2.00000
      5      -6.1662      2.00000
      6      -6.1630      2.00000
      7      -6.1498      2.00000
      8      -6.1335      2.00000
      9      -6.1334      2.00000
     10      -6.1289      2.00000
     11      -6.0892      2.00000
     12      -5.6729      2.00000
     13      -5.6693      2.00000
     14      -5.6631      2.00000
     15      -5.6510      2.00000
     16      -5.6503      2.00000
     17      -5.6300      2.00000
     18      -5.2922      2.00000
     19      -5.2844      2.00000
     20      -5.2819      2.00000
     21      -5.2717      2.00000
     22      -5.2686      2.00000
     23      -5.2677      2.00000
     24      -5.1169      2.00000
     25      -5.1086      2.00000
     26      -5.1022      2.00000
     27      -5.1010      2.00000
     28      -5.1002      2.00000
     29      -5.0562      2.00000
     30      -4.9582      2.00000
     31      -4.9513      2.00000
     32      -4.9348      2.00000
     33      -4.9337      2.00000
     34      -4.9202      2.00000
     35      -4.9182      2.00000
     36      -4.9156      2.00000
     37      -4.9095      2.00000
     38      -4.9047      2.00000
     39      -4.8880      2.00000
     40      -4.8857      2.00000
     41      -4.8848      2.00000
     42      -4.4695      2.00000
     43      -4.4356      2.00000
     44      -4.4324      2.00000
     45      -4.4121      2.00000
     46      -4.3841      2.00000
     47      -4.3816      2.00000
     48      -4.3794      2.00000
     49      -4.3738      2.00000
     50      -4.3731      2.00000
     51      -4.3692      2.00000
     52      -4.2749      2.00000
     53      -4.2698      2.00000
     54      -4.2061      2.00000
     55      -4.2010      2.00000
     56      -3.9102      2.00000
     57      -3.8588      2.00000
     58      -3.8540      2.00000
     59      -3.8462      2.00000
     60      -3.8287      2.00000
     61      -3.8275      2.00000
     62      -3.8263      2.00000
     63      -3.7807      2.00000
     64      -3.7803      2.00000
     65      -3.7330      2.00000
     66      -3.7165      2.00000
     67      -3.6900      2.00000
     68      -3.6846      2.00000
     69      -3.6679      2.00000
     70      -3.6414      2.00000
     71      -3.6193      2.00000
     72      -3.6185      2.00000
     73      -3.5960      2.00000
     74      -3.5905      2.00000
     75      -3.5881      2.00000
     76      -3.5818      2.00000
     77      -3.5771      2.00000
     78      -3.5657      2.00000
     79      -3.5652      2.00000
     80      -3.5604      2.00000
     81      -3.5556      2.00000
     82      -3.5383      2.00000
     83      -3.4885      2.00000
     84      -3.4848      2.00000
     85      -3.4739      2.00000
     86      -3.4644      2.00000
     87      -3.4457      2.00000
     88      -3.4455      2.00000
     89      -3.4406      2.00000
     90      -3.3518      2.00000
     91      -3.3510      2.00000
     92      -3.3352      2.00000
     93      -3.2364      2.00000
     94      -3.2348      2.00000
     95      -3.1755      2.00000
     96      -3.1617      2.00000
     97      -3.1613      2.00000
     98      -3.1529      2.00000
     99      -3.1520      2.00000
    100      -3.0037      2.00000
    101      -2.9987      2.00000
    102      -2.9933      2.00000
    103      -2.9873      2.00000
    104      -2.9720      2.00000
    105      -2.9542      2.00000
    106      -2.9516      2.00000
    107      -2.9452      2.00000
    108      -2.7944      2.00000
    109      -2.7730      2.00000
    110      -2.7558      2.00000
    111      -2.7508      2.00000
    112      -2.7504      2.00000
    113      -2.7431      2.00000
    114      -2.7427      2.00000
    115      -2.6607      2.00000
    116      -2.6392      2.00000
    117      -2.5962      2.00000
    118      -2.5389      2.00000
    119      -2.5059      2.00000
    120      -2.4846      2.00000
    121      -2.4836      2.00000
    122      -2.4729      2.00000
    123      -2.4277      2.00000
    124      -2.4268      2.00000
    125      -2.3934      2.00000
    126      -2.3932      2.00000
    127      -2.3732      2.00000
    128      -2.3539      2.00000
    129      -2.2903      2.00000
    130      -2.2459      2.00000
    131      -2.2238      2.00000
    132      -2.2139      2.00000
    133      -2.2123      2.00000
    134      -2.2019      2.00000
    135      -2.1973      2.00000
    136      -2.1972      2.00000
    137      -2.1911      2.00000
    138      -2.1896      2.00000
    139      -2.1881      2.00000
    140      -2.1415      2.00000
    141      -2.1374      2.00000
    142      -2.1325      2.00000
    143      -1.9655      2.00000
    144      -1.9648      2.00000
    145      -1.9597      2.00000
    146      -1.9567      2.00000
    147      -1.9486      2.00000
    148      -1.9206      2.00000
    149      -1.9076      2.00000
    150      -1.9053      2.00000
    151      -1.8926      2.00000
    152      -1.8894      2.00000
    153      -1.8856      2.00000
    154      -1.8849      2.00000
    155      -1.7831      2.00000
    156      -1.7793      2.00000
    157      -1.7572      2.00000
    158      -1.7553      2.00000
    159      -1.7528      2.00000
    160      -1.7511      2.00000
    161      -1.7479      2.00000
    162      -1.7404      2.00000
    163      -1.7307      2.00000
    164      -1.7205      2.00000
    165      -1.7002      2.00000
    166      -1.6983      2.00000
    167      -1.6763      2.00000
    168      -1.6755      2.00000
    169      -1.6692      2.00000
    170      -1.6415      2.00000
    171      -1.6323      2.00000
    172      -1.6284      2.00000
    173      -1.6227      2.00000
    174      -1.6203      2.00000
    175      -1.6199      2.00000
    176      -1.6005      2.00000
    177      -1.5789      2.00000
    178      -1.5737      2.00000
    179      -1.5719      2.00000
    180      -1.5663      2.00000
    181      -1.5430      2.00000
    182      -1.5346      2.00000
    183      -1.5343      2.00000
    184      -1.5182      2.00000
    185      -1.5002      2.00000
    186      -1.3884      2.00000
    187      -1.3829      2.00000
    188      -1.3503      2.00000
    189      -1.3361      2.00000
    190      -1.3125      2.00000
    191      -1.3095      2.00000
    192      -1.2853      2.00000
    193      -1.2001      2.00000
    194      -1.0480      2.00000
    195      -0.9863      2.00000
    196      -0.9637      2.00000
    197      -0.4347      2.00000
    198      -0.0953      2.00000
    199      -0.0800      2.00000
    200      -0.0708      2.00000
    201      -0.0498      2.00000
    202      -0.0426      2.00000
    203       0.6097      0.00000
    204       1.2853      0.00000
    205       2.0642      0.00000
    206       2.0704      0.00000
    207       2.0738      0.00000
    208       2.1191      0.00000
    209       2.1441      0.00000
    210       3.0514      0.00000
    211       3.2312      0.00000
    212       3.2886      0.00000
    213       3.3026      0.00000
    214       3.3119      0.00000
    215       3.3330      0.00000
    216       3.4699      0.00000
    217       3.9068      0.00000
    218       4.1435      0.00000
    219       4.6429      0.00000
    220       4.8395      0.00000
    221       5.0717      0.00000
    222       5.1209      0.00000
    223       5.1239      0.00000
    224       5.1260      0.00000
    225       5.1599      0.00000
    226       5.2417      0.00000
    227       5.2507      0.00000
    228       5.3162      0.00000
    229       5.3170      0.00000
    230       5.6210      0.00000
    231       5.9217      0.00000
    232       6.0392      0.00000
    233       6.1405      0.00000
    234       6.3618      0.00000
    235       6.4478      0.00000
    236       6.7366      0.00000
    237       6.7875      0.00000
    238       6.8194      0.00000
    239       6.8522      0.00000
    240       6.9246      0.00000

 k-point     2 :       0.1250   -0.0000    0.0000
  band No.  band energies     occupation 
      1      -8.6404      2.00000
      2      -8.1536      2.00000
      3      -7.0384      2.00000
      4      -6.3977      2.00000
      5      -6.2264      2.00000
      6      -6.2164      2.00000
      7      -6.1330      2.00000
      8      -6.0751      2.00000
      9      -6.0325      2.00000
     10      -6.0243      2.00000
     11      -6.0040      2.00000
     12      -5.7012      2.00000
     13      -5.6822      2.00000
     14      -5.6468      2.00000
     15      -5.6407      2.00000
     16      -5.6262      2.00000
     17      -5.6089      2.00000
     18      -5.3387      2.00000
     19      -5.2855      2.00000
     20      -5.2822      2.00000
     21      -5.2484      2.00000
     22      -5.2347      2.00000
     23      -5.2329      2.00000
     24      -5.1891      2.00000
     25      -5.1344      2.00000
     26      -5.1223      2.00000
     27      -5.0649      2.00000
     28      -5.0511      2.00000
     29      -5.0185      2.00000
     30      -5.0115      2.00000
     31      -4.9979      2.00000
     32      -4.9878      2.00000
     33      -4.9823      2.00000
     34      -4.9486      2.00000
     35      -4.9134      2.00000
     36      -4.9093      2.00000
     37      -4.8391      2.00000
     38      -4.8311      2.00000
     39      -4.8210      2.00000
     40      -4.8028      2.00000
     41      -4.7930      2.00000
     42      -4.5216      2.00000
     43      -4.4992      2.00000
     44      -4.4906      2.00000
     45      -4.4529      2.00000
     46      -4.4385      2.00000
     47      -4.4243      2.00000
     48      -4.4172      2.00000
     49      -4.3396      2.00000
     50      -4.3307      2.00000
     51      -4.2881      2.00000
[...]
  0.000   0.000   0.000   0.000   0.000   0.000   0.000   0.000   0.000   0.000   0.000   0.000   0.000   0.000   0.000   0.000
  0.000   0.000   0.000   0.000   0.000   0.000   0.000   0.000   0.000   0.000   0.000   0.000   0.000   0.000   0.000   0.000
  0.000   0.000   0.000   0.000   0.000   0.000   0.000   0.000   0.000   0.000   1.000   0.000   0.000   0.000   0.000   0.000
  0.000   0.000   0.000   0.000   0.000   0.000   0.000   0.000   0.000   0.000   0.000   0.000   0.000   0.000   0.000   0.000
  0.000   0.000   0.000   0.000   0.000   0.000   0.000   0.000   0.000   0.000   0.000   0.000   0.000   0.000   0.000   0.000
  0.000   0.000   0.000   0.000   0.000   0.000   0.000   0.000   0.000   0.000   0.000   0.000   0.000   0.000   0.000   0.000
  0.000   0.000   0.000   0.000   0.000   0.000   0.000   0.000   0.000   0.000   0.000   0.000   0.000   0.000   0.000   0.000
  0.000   0.000   0.000   0.000   0.000   0.000   0.000   0.000   0.000   0.000   0.000   0.000   0.000   0.000   0.000   0.000
  0.000   0.000   0.000   0.000   0.000   0.000   0.000   0.000   0.000   0.000   0.000   0.000   0.000   0.000   0.000   0.000
  0.000   0.000   0.000   0.000   0.000   0.000   0.000   0.000   0.000   0.000   0.000   0.000   0.000   0.000   0.000   0.000


------------------------ aborting loop because EDIFF is reached ----------------------------------------





 total charge

# of ion       s       p       d       tot
------------------------------------------
    1        0.540   0.240   8.766   9.547
    2        0.546   0.240   8.765   9.551
    3        0.546   0.240   8.765   9.551
    4        0.546   0.240   8.766   9.551
    5        0.542   0.242   8.765   9.549
    6        0.546   0.240   8.766   9.551
    7        0.546   0.240   8.766   9.551
    8        0.546   0.240   8.766   9.551
    9        0.540   0.240   8.769   9.549
   10        0.520   0.309   8.771   9.600
   11        0.524   0.305   8.780   9.609
   12        0.520   0.309   8.771   9.600
   13        0.523   0.306   8.780   9.609
   14        0.523   0.306   8.780   9.609
   15        0.513   0.309   8.776   9.598
   16        0.519   0.310   8.771   9.600
   17        0.513   0.309   8.776   9.598
   18        0.513   0.309   8.776   9.598
   19        0.519   0.302   8.777   9.598
   20        0.529   0.323   8.761   9.613
   21        0.529   0.323   8.761   9.613
   22        0.512   0.307   8.773   9.592
   23        0.527   0.324   8.761   9.612
   24        0.512   0.307   8.773   9.592
   25        0.519   0.302   8.777   9.598
   26        0.519   0.302   8.777   9.598
   27        0.512   0.306   8.774   9.592
   28        0.542   0.232   8.768   9.542
   29        0.538   0.238   8.772   9.548
   30        0.538   0.238   8.772   9.548
   31        0.536   0.241   8.771   9.548
   32        0.536   0.241   8.771   9.548
   33        0.538   0.238   8.773   9.549
   34        0.538   0.238   8.773   9.549
   35        0.542   0.232   8.770   9.544
   36        0.598   0.561   8.118   9.278
   37        0.512   0.033   0.000   0.545
   38        0.512   0.033   0.000   0.545
--------------------------------------------------
tot         20.177  10.254 315.097 345.528
 
    CHARGE:  cpu time    0.9073: real time    0.9074
    FORLOC:  cpu time    0.0199: real time    0.0199
    FORNL :  cpu time    4.0626: real time    4.0628
    STRESS:  cpu time   12.1378: real time   12.1381
    FORCOR:  cpu time    0.0705: real time    0.0705
    FORHAR:  cpu time    0.0301: real time    0.0301
    OFIELD:  cpu time    0.0004: real time    0.0003

  FORCE on cell =-STRESS in cart. coord.  units (eV):
  Direction    XX          YY          ZZ          XY          YZ          ZX
  --------------------------------------------------------------------------------------
  Alpha Z   950.76264   950.76264   950.76264
  Ewald  140995.11079140970.66454************    -0.00034    -0.21296    -0.00015
  Hartree149522.49145149517.46584************    -0.00000    -0.07117    -0.00004
  E(xc)   -1778.32751 -1778.64298 -1785.09177     0.00000    -0.00452    -0.00000
  Local  ************************303271.30715     0.00193     0.18940     0.00010
  n-local   -56.93696   -56.52379   -37.93633     4.05912     0.03294     0.10342
  augment  2421.76736  2422.84185  2431.62218    -0.00139     0.01472     0.00008
  Kinetic  5513.77820  5520.30225  5550.21952     0.87149     0.08854     0.09621
  Fock        0.00000     0.00000     0.00000     0.00000     0.00000     0.00000
  -------------------------------------------------------------------------------------
  Total     -18.15747   -18.07412     2.32070    -0.00000     0.03695     0.00000
  in kB     -18.30490   -18.22087     2.33954    -0.00000     0.03725     0.00000
  external pressure =      -11.40 kB  Pullay stress =        0.00 kB


 VOLUME and BASIS-vectors are now :
 -----------------------------------------------------------------------------
  energy-cutoff  :      500.00
  volume of cell :     1589.27
      direct lattice vectors                 reciprocal lattice vectors
     8.813512802  0.000000000  0.000000000     0.113462137 -0.065507406  0.000000000
     4.406756909  7.632725690  0.000000000     0.000000000  0.131014796  0.000000000
     0.000000000  0.000000000 23.624894754     0.000000000  0.000000000  0.042328231

  length of vectors
     8.813512802  8.813512802 23.624894754     0.131014796  0.131014796  0.042328231


 FORCES acting on ions
    electron-ion (+dipol)            ewald-force                    non-local-force                 convergence-correction
 -----------------------------------------------------------------------------------------------
   -.199E-04 0.150E-02 0.260E+04   0.519E-04 -.258E-02 -.260E+04   0.595E-10 0.893E-03 -.108E+01   -.202E-03 0.208E-02 -.596E+00
   0.146E+00 0.308E+00 0.260E+04   -.181E+00 -.267E+00 -.260E+04   0.265E-01 0.135E-01 -.342E+00   0.894E-02 -.397E-01 -.627E+00
   -.146E+00 0.308E+00 0.260E+04   0.181E+00 -.268E+00 -.260E+04   -.265E-01 0.135E-01 -.342E+00   -.866E-02 -.377E-01 -.627E+00
   0.333E+00 -.151E-01 0.260E+04   -.320E+00 -.237E-01 -.260E+04   0.331E-01 0.117E-01 -.341E+00   -.337E-01 0.187E-01 -.635E+00
   0.699E-05 0.733E-02 0.260E+04   0.952E-04 0.381E-03 -.260E+04   -.236E-09 -.354E-02 -.309E+00   0.430E-02 -.234E-02 -.604E+00
   -.333E+00 -.151E-01 0.260E+04   0.320E+00 -.237E-01 -.260E+04   -.331E-01 0.117E-01 -.341E+00   0.321E-01 0.196E-01 -.634E+00
   0.181E+00 -.291E+00 0.260E+04   -.139E+00 0.291E+00 -.260E+04   0.287E-02 -.305E-01 -.346E+00   -.302E-01 0.223E-01 -.636E+00
   -.181E+00 -.291E+00 0.260E+04   0.139E+00 0.291E+00 -.260E+04   -.287E-02 -.305E-01 -.346E+00   0.321E-01 0.212E-01 -.636E+00
   0.194E-04 0.785E-02 0.260E+04   0.166E-03 0.224E-02 -.260E+04   -.633E-09 -.952E-02 -.620E+00   -.464E-02 -.224E-02 -.666E+00
   0.337E+01 0.194E+01 0.877E+03   -.294E+01 -.171E+01 -.876E+03   -.286E+00 -.153E+00 -.698E+00   -.906E-01 -.460E-01 -.242E+00
   0.140E-04 0.252E+01 0.879E+03   0.149E-03 -.245E+01 -.878E+03   -.673E-09 -.101E-01 -.463E+00   0.380E-02 -.106E+00 -.210E+00
   -.337E+01 0.194E+01 0.877E+03   0.294E+01 -.171E+01 -.876E+03   0.286E+00 -.153E+00 -.698E+00   0.893E-01 -.445E-01 -.242E+00
   0.214E+01 -.123E+01 0.879E+03   -.210E+01 0.123E+01 -.878E+03   0.817E-02 -.174E-01 -.454E+00   -.787E-01 0.411E-01 -.207E+00
   -.214E+01 -.123E+01 0.879E+03   0.210E+01 0.123E+01 -.878E+03   -.817E-02 -.174E-01 -.454E+00   0.866E-01 0.406E-01 -.207E+00
   0.308E-04 0.519E+00 0.876E+03   0.236E-03 -.526E+00 -.875E+03   -.164E-08 -.246E-01 -.445E+00   -.240E-02 0.278E-01 -.247E+00
   -.216E-04 -.388E+01 0.877E+03   0.163E-03 0.339E+01 -.876E+03   0.214E-07 0.322E+00 -.688E+00   0.299E-03 0.103E+00 -.238E+00
   0.462E+00 -.292E+00 0.876E+03   -.468E+00 0.275E+00 -.875E+03   -.342E-01 0.223E-01 -.439E+00   0.301E-01 -.382E-02 -.247E+00
   -.462E+00 -.292E+00 0.876E+03   0.468E+00 0.275E+00 -.875E+03   0.342E-01 0.223E-01 -.439E+00   -.301E-01 -.191E-02 -.247E+00
   -.412E-04 0.976E+00 -.878E+03   0.532E-04 -.102E+01 0.877E+03   0.142E-08 0.213E-01 0.658E+00   -.332E-03 0.294E-02 0.376E+00
   0.726E+01 0.435E+01 -.851E+03   -.682E+01 -.406E+01 0.851E+03   -.439E+00 -.283E+00 -.534E+00   0.530E-01 0.241E-01 0.600E+00
   -.726E+01 0.435E+01 -.851E+03   0.682E+01 -.406E+01 0.851E+03   0.439E+00 -.283E+00 -.534E+00   -.522E-01 0.263E-01 0.600E+00
   0.112E+01 -.785E+00 -.872E+03   -.134E+01 0.905E+00 0.871E+03   0.247E+00 -.137E+00 0.627E+00   -.102E-01 0.236E-02 0.432E+00
   -.146E-04 -.853E+01 -.851E+03   0.144E-03 0.805E+01 0.851E+03   0.312E-07 0.468E+00 -.470E+00   0.193E-02 -.589E-01 0.626E+00
   -.112E+01 -.785E+00 -.872E+03   0.134E+01 0.905E+00 0.871E+03   -.247E+00 -.137E+00 0.627E+00   0.319E-02 0.260E-02 0.431E+00
   -.800E+00 -.380E+00 -.878E+03   0.827E+00 0.407E+00 0.877E+03   -.110E-01 -.145E-01 0.671E+00   -.223E-02 -.754E-02 0.393E+00
   0.800E+00 -.380E+00 -.878E+03   -.827E+00 0.407E+00 0.877E+03   0.110E-01 -.145E-01 0.671E+00   0.406E-02 -.869E-02 0.394E+00
   0.615E-05 0.130E+01 -.872E+03   0.201E-03 -.156E+01 0.871E+03   0.195E-07 0.293E+00 0.623E+00   -.422E-02 -.148E-02 0.436E+00
   -.939E-05 0.519E+00 -.259E+04   0.264E-04 -.475E+00 0.259E+04   -.178E-08 -.267E-01 0.238E+00   0.133E-02 -.227E-01 0.630E+00
   0.649E+01 0.113E+02 -.259E+04   -.662E+01 -.116E+02 0.259E+04   -.514E-01 0.408E-01 0.488E+00   0.925E-01 0.980E-01 0.595E+00
   -.649E+01 0.113E+02 -.259E+04   0.662E+01 -.116E+02 0.259E+04   0.514E-01 0.408E-01 0.488E+00   -.986E-01 0.999E-01 0.596E+00
   0.141E+02 0.585E+00 -.259E+04   -.145E+02 -.555E+00 0.259E+04   0.712E-01 -.224E-01 0.476E+00   0.148E+00 0.136E-01 0.598E+00
   -.141E+02 0.585E+00 -.259E+04   0.145E+02 -.555E+00 0.259E+04   -.712E-01 -.224E-01 0.476E+00   -.156E+00 0.148E-01 0.598E+00
   0.526E+01 -.118E+02 -.259E+04   -.545E+01 0.121E+02 0.259E+04   -.101E-01 -.131E-01 0.490E+00   0.688E-01 -.124E+00 0.599E+00
   -.526E+01 -.118E+02 -.259E+04   0.545E+01 0.121E+02 0.259E+04   0.101E-01 -.131E-01 0.490E+00   -.730E-01 -.125E+00 0.599E+00
   0.276E-04 -.474E+00 -.259E+04   0.149E-03 0.421E+00 0.259E+04   0.227E-08 0.341E-01 0.262E+00   -.354E-02 0.195E-01 0.616E+00
   -.723E-06 -.378E+00 -.220E+04   0.101E-03 0.368E+00 0.220E+04   0.597E-10 0.897E-03 -.772E+00   0.410E-02 0.100E-01 0.545E+00
   0.180E+02 0.561E-01 -.303E+03   -.206E+02 -.637E-01 0.304E+03   0.258E+01 0.601E-02 -.167E+01   0.231E-01 0.713E-03 -.108E-01
   -.180E+02 0.561E-01 -.303E+03   0.206E+02 -.637E-01 0.304E+03   -.258E+01 0.601E-02 -.167E+01   -.228E-01 0.727E-03 -.110E-01
 -----------------------------------------------------------------------------------------------
   -.751E-03 0.107E+00 0.515E+01   0.568E-13 0.136E-12 0.364E-11   -.582E-08 -.875E-01 -.720E+01   -.145E-01 -.208E-01 0.190E+01
 
 
 POSITION                                       TOTAL-FORCE (eV/Angst)
 -----------------------------------------------------------------------------------
      0.00000      0.00000      5.28038         0.000000      0.001929      0.022723
      2.93784      0.00000      5.28038         0.000509      0.014948     -0.016571
      5.87568      0.00000      5.28038        -0.000509      0.014948     -0.016571
      1.46892      2.54424      5.28038         0.013258     -0.007899     -0.016905
      4.40676      2.54424      5.28038         0.000000      0.001869     -0.035875
      7.34459      2.54424      5.28038        -0.013258     -0.007899     -0.016905
      2.93784      5.08848      5.28038         0.013233     -0.008586     -0.014463
      5.87568      5.08848      5.28038        -0.013233     -0.008586     -0.014463
      8.81351      5.08848      5.28038        -0.000000     -0.001635     -0.004850
      1.46892      0.84808      7.67911         0.055955      0.031643      0.092935
      4.40676      0.84808      7.67911        -0.000000     -0.046250     -0.007586
      7.34459      0.84808      7.67911        -0.055955      0.031643      0.092935
      2.93784      3.39232      7.67911        -0.038856      0.022497     -0.004309
      5.87568      3.39232      7.67911         0.038856      0.022497     -0.004309
      8.81351      3.39232      7.67911        -0.000000     -0.003726      0.089716
      4.40676      5.93656      7.67911        -0.000000     -0.066445      0.094489
      7.34459      5.93656      7.67911        -0.009876      0.002715      0.089314
     10.28243      5.93656      7.67911         0.009876      0.002715      0.089314
      8.81351      1.69709     10.07334        -0.000000     -0.015240      0.005433
      2.92757      1.69024     10.04824         0.054589      0.038262     -0.040884
      5.88594      1.69024     10.04824        -0.054589      0.038262     -0.040884
     10.27700      4.24354     10.06671         0.024830     -0.014356     -0.002501
      4.40676      4.25225     10.04824        -0.000000     -0.070169     -0.054808
      7.35003      4.24354     10.06671        -0.024830     -0.014356     -0.002501
     11.75055      6.78418     10.07334         0.013277      0.004275      0.002792
      5.87648      6.78418     10.07334        -0.013277      0.004275      0.002792
      8.81351      6.77837     10.06671         0.000000      0.027878      0.003493
      0.00000      0.00000     12.49905        -0.000000     -0.005018     -0.088261
      2.94801      0.01573     12.49317        -0.092547     -0.213170     -0.133547
      5.86551      0.01573     12.49317         0.092547     -0.213170     -0.133547
      1.48763      2.54518     12.49317        -0.237422      0.021683     -0.116043
      7.32589      2.54518     12.49317         0.237422      0.021683     -0.116043
      2.94638      5.07181     12.49317        -0.128404      0.196063     -0.127711
      5.86714      5.07181     12.49317         0.128404      0.196063     -0.127711
      8.81351      5.08848     12.49660         0.000000      0.000681     -0.105177
      4.40676      2.54424     12.29817         0.000000      0.001592      0.657524
      3.92594      2.53786     13.91643         0.006061     -0.000808     -0.000518
      4.88757      2.53786     13.91643        -0.006061     -0.000808     -0.000518
 -----------------------------------------------------------------------------------
    total drift:                               -0.015214     -0.001209     -0.154287


--------------------------------------------------------------------------------------------------------



  FREE ENERGIE OF THE ION-ELECTRON SYSTEM (eV)
  ---------------------------------------------------
  free  energy   TOTEN  =      -119.44653064 eV

  energy  without entropy=     -119.44653064  energy(sigma->0) =     -119.44653064
 


--------------------------------------------------------------------------------------------------------


    POTLOK:  cpu time    0.0660: real time    0.0660


--------------------------------------------------------------------------------------------------------


 stress matrix after NEB project (eV)
    -18.15747     -0.00000      0.00000
     -0.00000    -18.07412      0.03695
      0.00000      0.03695      2.32070
  FORCES: max atom, RMS     0.006137    0.001408
  FORCE total and by dimension    0.008678    0.006061
  Stress total and by dimension   25.724616   18.157474
     LOOP+:  cpu time  204.4138: real time  204.4232
 -----------------------------------------------------------------------------
|                                                                             |
|           W    W    AA    RRRRR   N    N  II  N    N   GGGG   !!!           |
|           W    W   A  A   R    R  NN   N  II  NN   N  G    G  !!!           |
|           W    W  A    A  R    R  N N  N  II  N N  N  G       !!!           |
|           W WW W  AAAAAA  RRRRR   N  N N  II  N  N N  G  GGG   !            |
|           WW  WW  A    A  R   R   N   NN  II  N   NN  G    G                |
|           W    W  A    A  R    R  N    N  II  N    N   GGGG   !!!           |
|                                                                             |
|     Tetrahedron method does not include variations of the Fermi             |
|     occupations, so forces and stress will be inaccurate. We suggest        |
|     using a different smearing scheme ISMEAR = 1 or 2 for metals in         |
|     relaxations.                                                            |
|                                                                             |
 -----------------------------------------------------------------------------

    4ORBIT:  cpu time    0.0000: real time    0.0000



 total charge

# of ion       s       p       d       tot
------------------------------------------
    1        0.540   0.240   8.766   9.547
    2        0.546   0.240   8.765   9.551
    3        0.546   0.240   8.765   9.551
    4        0.546   0.240   8.766   9.551
    5        0.542   0.242   8.765   9.549
    6        0.546   0.240   8.766   9.551
    7        0.546   0.240   8.766   9.551
    8        0.546   0.240   8.766   9.551
    9        0.540   0.240   8.769   9.549
   10        0.520   0.309   8.771   9.600
   11        0.524   0.305   8.780   9.609
   12        0.520   0.309   8.771   9.600
   13        0.523   0.306   8.780   9.609
   14        0.523   0.306   8.780   9.609
   15        0.513   0.309   8.776   9.598
   16        0.519   0.310   8.771   9.600
   17        0.513   0.309   8.776   9.598
   18        0.513   0.309   8.776   9.598
   19        0.519   0.302   8.777   9.598
   20        0.529   0.323   8.761   9.613
   21        0.529   0.323   8.761   9.613
   22        0.512   0.307   8.773   9.592
   23        0.527   0.324   8.761   9.612
   24        0.512   0.307   8.773   9.592
   25        0.519   0.302   8.777   9.598
   26        0.519   0.302   8.777   9.598
   27        0.512   0.306   8.774   9.592
   28        0.542   0.232   8.768   9.542
   29        0.538   0.238   8.772   9.548
   30        0.538   0.238   8.772   9.548
   31        0.536   0.241   8.771   9.548
   32        0.536   0.241   8.771   9.548
   33        0.538   0.238   8.773   9.549
   34        0.538   0.238   8.773   9.549
   35        0.542   0.232   8.770   9.544
   36        0.598   0.561   8.118   9.278
   37        0.512   0.033   0.000   0.545
   38        0.512   0.033   0.000   0.545
--------------------------------------------------
tot         20.177  10.254 315.097 345.528
 
 BZINTS: Fermi energy:    0.483447;  397.000000 electrons
         Band energy:-0.127899E+04;  BLOECHL correction:   -0.080826

 total amount of memory used by VASP MPI-rank0   282205. kBytes
=======================================================================

   base      :      30000. kBytes
   nonlr-proj:      14542. kBytes
   fftplans  :       6755. kBytes
   grid      :      23316. kBytes
   one-center:        590. kBytes
   wavefun   :     207002. kBytes
 
  
  
 General timing and accounting informations for this job:
 ========================================================
  
                  Total CPU time used (sec):      218.877
                            User time (sec):      211.849
                          System time (sec):        7.028
                         Elapsed time (sec):      219.299
  
                   Maximum memory used (kb):      548964.
                   Average memory used (kb):          N/A
  
                          Minor page faults:        99983
                          Major page faults:            0
                 Voluntary context switches:         4972
