PROCAR new format
# of k-points:   10         # of bands:  252         # of ions:   36

 k-point     1 :    0.00000000 0.00000000 0.00000000     weight = 0.01562500

band     1 # energy   -8.10984899 # occ.  2.00000000
 
ion      s      p      d    tot
    1  0.007  0.001  0.000  0.007
    2  0.007  0.001  0.000  0.007
    3  0.007  0.001  0.000  0.007
    4  0.007  0.001  0.000  0.007
    5  0.007  0.001  0.000  0.007
    6  0.007  0.001  0.000  0.007
    7  0.007  0.001  0.000  0.007
    8  0.007  0.001  0.000  0.007
    9  0.006  0.001  0.000  0.007
   10  0.027  0.000  0.000  0.027
   11  0.027  0.000  0.000  0.027
   12  0.027  0.000  0.000  0.027
   13  0.027  0.000  0.000  0.027
   14  0.027  0.000  0.000  0.027
   15  0.026  0.000  0.000  0.026
   16  0.027  0.000  0.000  0.027
   17  0.026  0.000  0.000  0.026
   18  0.026  0.000  0.000  0.026
   19  0.023  0.000  0.000  0.024
   20  0.027  0.000  0.000  0.027
   21  0.027  0.000  0.000  0.027
   22  0.024  0.000  0.000  0.025
   23  0.027  0.000  0.000  0.027
   24  0.024  0.000  0.000  0.025
   25  0.023  0.000  0.000  0.024
   26  0.023  0.000  0.000  0.024
   27  0.024  0.000  0.000  0.025
   28  0.005  0.000  0.000  0.005
   29  0.005  0.000  0.000  0.005
   30  0.005  0.000  0.000  0.005
   31  0.005  0.000  0.000  0.005
   32  0.005  0.000  0.000  0.005
   33  0.005  0.000  0.000  0.005
   34  0.005  0.000  0.000  0.005
   35  0.005  0.000  0.000  0.005
   36  0.006  0.001  0.000  0.007
tot    0.566  0.012  0.003  0.581
 
band     2 # energy   -6.93773634 # occ.  2.00000000
 
ion      s      p      d    tot
    1  0.017  0.000  0.001  0.018
    2  0.017  0.000  0.001  0.018
    3  0.017  0.000  0.001  0.018
    4  0.017  0.000  0.001  0.018
    5  0.016  0.000  0.001  0.018
    6  0.017  0.000  0.001  0.018
    7  0.017  0.000  0.001  0.018
    8  0.017  0.000  0.001  0.018
    9  0.017  0.000  0.001  0.018
   10  0.011  0.001  0.002  0.015
   11  0.010  0.002  0.003  0.014
   12  0.011  0.001  0.002  0.015
   13  0.010  0.002  0.003  0.014
   14  0.010  0.002  0.003  0.014
   15  0.010  0.001  0.002  0.014
   16  0.011  0.001  0.002  0.015
   17  0.010  0.001  0.002  0.014
   18  0.010  0.001  0.002  0.014
   19  0.013  0.001  0.003  0.018
   20  0.015  0.001  0.004  0.020
   21  0.015  0.001  0.004  0.020
   22  0.014  0.001  0.003  0.018
   23  0.015  0.001  0.004  0.020
   24  0.014  0.001  0.003  0.018
   25  0.013  0.001  0.003  0.018
   26  0.013  0.001  0.003  0.018
   27  0.014  0.001  0.003  0.018
   28  0.014  0.000  0.001  0.015
   29  0.014  0.001  0.001  0.016
   30  0.014  0.001  0.001  0.016
   31  0.014  0.001  0.001  0.016
   32  0.014  0.001  0.001  0.016
   33  0.014  0.001  0.001  0.016
   34  0.014  0.001  0.001  0.016
   35  0.015  0.000  0.001  0.016
   36  0.013  0.001  0.000  0.014
tot    0.498  0.032  0.070  0.599
 
band     3 # energy   -5.99297906 # occ.  2.00000000
 
ion      s      p      d    tot
    1  0.005  0.000  0.018  0.023
    2  0.013  0.000  0.013  0.027
    3  0.013  0.000  0.013  0.027
    4  0.013  0.000  0.013  0.027
    5  0.008  0.000  0.011  0.020
    6  0.013  0.000  0.013  0.027
    7  0.013  0.000  0.013  0.027
    8  0.013  0.000  0.013  0.027
    9  0.033  0.000  0.008  0.041
   10  0.013  0.001  0.016  0.029
   11  0.013  0.002  0.012  0.027
   12  0.012  0.001  0.016  0.029
   13  0.013  0.002  0.012  0.027
   14  0.013  0.002  0.012  0.027
   15  0.001  0.001  0.017  0.019
   16  0.012  0.001  0.016  0.029
   17  0.001  0.001  0.017  0.019
   18  0.001  0.001  0.017  0.019
   19  0.000  0.001  0.009  0.010
   20  0.013  0.001  0.008  0.022
   21  0.013  0.001  0.008  0.022
   22  0.004  0.001  0.002  0.007
   23  0.013  0.001  0.008  0.022
   24  0.004  0.001  0.002  0.007
   25  0.000  0.001  0.009  0.010
   26  0.000  0.001  0.009  0.010
   27  0.004  0.001  0.002  0.007
   28  0.009  0.000  0.002  0.011
   29  0.006  0.000  0.006  0.012
   30  0.006  0.000  0.006  0.012
   31  0.006  0.000  0.006  0.012
   32  0.006  0.000  0.006  0.012
   33  0.006  0.000  0.006  0.012
   34  0.006  0.000  0.006  0.012
   35  0.016  0.000  0.002  0.019
   36  0.000  0.002  0.003  0.005
tot    0.321  0.027  0.346  0.693
 
band     4 # energy   -5.97124648 # occ.  2.00000000
 
ion      s      p      d    tot
    1  0.000  0.000  0.008  0.008
    2  0.004  0.001  0.004  0.008
    3  0.006  0.001  0.003  0.010
    4  0.004  0.001  0.004  0.008
    5  0.000  0.001  0.007  0.008
    6  0.000  0.000  0.003  0.003
    7  0.006  0.001  0.003  0.010
    8  0.000  0.000  0.003  0.003
    9  0.000  0.000  0.001  0.001
   10  0.000  0.000  0.036  0.036
   11  0.039  0.001  0.015  0.055
   12  0.026  0.002  0.012  0.040
   13  0.040  0.001  0.014  0.055
   14  0.000  0.003  0.025  0.028
   15  0.001  0.001  0.011  0.013
   16  0.026  0.002  0.012  0.040
   17  0.001  0.001  0.011  0.013
   18  0.000  0.003  0.004  0.008
   19  0.007  0.001  0.011  0.019
   20  0.000  0.002  0.036  0.039
   21  0.046  0.002  0.016  0.064
   22  0.014  0.001  0.010  0.025
   23  0.045  0.002  0.016  0.063
   24  0.000  0.000  0.028  0.028
   25  0.000  0.004  0.003  0.007
   26  0.007  0.001  0.011  0.019
   27  0.013  0.001  0.011  0.025
   28  0.000  0.000  0.001  0.001
   29  0.000  0.000  0.002  0.003
   30  0.005  0.001  0.003  0.009
   31  0.000  0.000  0.002  0.003
   32  0.005  0.001  0.004  0.010
   33  0.005  0.001  0.003  0.009
   34  0.005  0.001  0.004  0.009
   35  0.000  0.000  0.005  0.005
   36  0.000  0.003  0.004  0.007
tot    0.306  0.044  0.343  0.693
 
band     5 # energy   -5.97121914 # occ.  2.00000000
 
ion      s      p      d    tot
    1  0.000  0.000  0.008  0.008
    2  0.003  0.001  0.003  0.006
    3  0.001  0.000  0.003  0.004
    4  0.003  0.001  0.003  0.006
    5  0.000  0.001  0.007  0.008
    6  0.007  0.001  0.003  0.011
    7  0.001  0.000  0.003  0.004
    8  0.007  0.001  0.003  0.012
    9  0.000  0.000  0.001  0.001
   10  0.034  0.002  0.004  0.041
   11  0.013  0.003  0.021  0.037
   12  0.008  0.001  0.028  0.037
   13  0.013  0.003  0.021  0.037
   14  0.052  0.001  0.011  0.064
   15  0.000  0.003  0.006  0.009
   16  0.009  0.001  0.028  0.037
   17  0.000  0.003  0.006  0.009
   18  0.002  0.000  0.013  0.015
   19  0.002  0.003  0.005  0.011
   20  0.061  0.001  0.010  0.072
   21  0.015  0.002  0.030  0.047
   22  0.004  0.001  0.022  0.027
   23  0.016  0.002  0.030  0.047
   24  0.018  0.002  0.005  0.024
   25  0.009  0.000  0.013  0.023
   26  0.002  0.003  0.005  0.011
   27  0.005  0.001  0.022  0.027
   28  0.000  0.000  0.001  0.001
   29  0.007  0.001  0.004  0.011
   30  0.001  0.001  0.003  0.005
   31  0.007  0.001  0.004  0.011
   32  0.002  0.000  0.002  0.004
   33  0.002  0.001  0.003  0.005
   34  0.002  0.000  0.002  0.004
   35  0.000  0.000  0.005  0.005
   36  0.000  0.003  0.004  0.007
tot    0.306  0.044  0.343  0.693
 
band     6 # energy   -5.96951525 # occ.  2.00000000
 
ion      s      p      d    tot
    1  0.024  0.000  0.004  0.029
    2  0.008  0.000  0.012  0.020
    3  0.008  0.000  0.012  0.020
    4  0.008  0.000  0.012  0.020
    5  0.012  0.000  0.010  0.022
    6  0.008  0.000  0.012  0.020
    7  0.008  0.000  0.012  0.020
    8  0.008  0.000  0.012  0.020
    9  0.000  0.001  0.013  0.014
   10  0.000  0.000  0.033  0.033
   11  0.000  0.001  0.021  0.022
   12  0.000  0.000  0.033  0.033
   13  0.000  0.001  0.021  0.022
   14  0.000  0.001  0.021  0.022
   15  0.033  0.002  0.008  0.044
   16  0.000  0.000  0.033  0.033
   17  0.033  0.002  0.008  0.044
   18  0.033  0.002  0.009  0.044
   19  0.001  0.001  0.017  0.018
   20  0.017  0.000  0.017  0.034
   21  0.017  0.000  0.017  0.034
   22  0.008  0.002  0.008  0.017
   23  0.017  0.000  0.017  0.034
   24  0.008  0.002  0.008  0.017
   25  0.001  0.001  0.017  0.018
   26  0.001  0.001  0.017  0.018
   27  0.008  0.002  0.008  0.017
   28  0.000  0.000  0.000  0.000
   29  0.000  0.000  0.003  0.003
   30  0.000  0.000  0.003  0.003
   31  0.000  0.000  0.003  0.003
   32  0.000  0.000  0.003  0.003
   33  0.000  0.000  0.003  0.003
   34  0.000  0.000  0.003  0.003
   35  0.005  0.000  0.000  0.006
   36  0.004  0.003  0.002  0.009
tot    0.274  0.025  0.425  0.725
 
band     7 # energy   -5.94532709 # occ.  2.00000000
 
ion      s      p      d    tot
    1  0.007  0.001  0.001  0.009
    2  0.000  0.001  0.006  0.007
    3  0.000  0.001  0.006  0.007
    4  0.000  0.001  0.006  0.007
    5  0.016  0.002  0.001  0.019
    6  0.000  0.001  0.006  0.007
    7  0.000  0.001  0.006  0.007
    8  0.000  0.001  0.006  0.007
    9  0.000  0.000  0.002  0.002
   10  0.024  0.003  0.002  0.029
   11  0.021  0.001  0.021  0.043
   12  0.024  0.003  0.002  0.029
   13  0.021  0.001  0.021  0.043
   14  0.021  0.001  0.021  0.043
   15  0.000  0.001  0.024  0.025
   16  0.024  0.003  0.002  0.029
   17  0.000  0.001  0.024  0.025
   18  0.000  0.001  0.024  0.025
   19  0.024  0.002  0.007  0.033
   20  0.007  0.003  0.017  0.026
   21  0.007  0.003  0.017  0.027
   22  0.009  0.000  0.025  0.034
   23  0.007  0.003  0.017  0.027
   24  0.009  0.000  0.025  0.034
   25  0.024  0.002  0.007  0.033
   26  0.024  0.002  0.007  0.033
   27  0.009  0.000  0.025  0.034
   28  0.014  0.001  0.000  0.016
   29  0.000  0.000  0.005  0.005
   30  0.000  0.000  0.005  0.005
   31  0.000  0.000  0.005  0.005
   32  0.000  0.000  0.005  0.005
   33  0.000  0.000  0.005  0.005
   34  0.000  0.000  0.005  0.005
   35  0.003  0.001  0.003  0.006
   36  0.000  0.000  0.000  0.000
tot    0.298  0.040  0.357  0.695
 
band     8 # energy   -5.91721160 # occ.  2.00000000
 
ion      s      p      d    tot
    1  0.000  0.001  0.004  0.004
    2  0.005  0.001  0.004  0.010
    3  0.008  0.001  0.004  0.013
    4  0.005  0.001  0.004  0.010
    5  0.000  0.000  0.004  0.004
    6  0.000  0.000  0.003  0.004
    7  0.008  0.001  0.004  0.013
    8  0.000  0.000  0.003  0.004
    9  0.000  0.001  0.011  0.012
   10  0.028  0.000  0.017  0.044
   11  0.002  0.001  0.019  0.023
   12  0.007  0.004  0.008  0.018
   13  0.002  0.001  0.020  0.023
   14  0.007  0.001  0.008  0.016
   15  0.016  0.001  0.033  0.050
   16  0.007  0.004  0.008  0.019
   17  0.015  0.001  0.034  0.050
   18  0.062  0.002  0.005  0.068
   19  0.011  0.001  0.028  0.040
   20  0.001  0.001  0.013  0.014
   21  0.000  0.002  0.012  0.014
   22  0.008  0.003  0.014  0.025
   23  0.000  0.002  0.012  0.014
   24  0.034  0.001  0.012  0.047
   25  0.042  0.002  0.003  0.047
   26  0.010  0.001  0.029  0.040
   27  0.009  0.003  0.014  0.026
   28  0.000  0.000  0.007  0.007
   29  0.000  0.000  0.002  0.002
   30  0.003  0.001  0.002  0.005
   31  0.000  0.000  0.002  0.002
   32  0.004  0.001  0.003  0.008
   33  0.003  0.001  0.002  0.005
   34  0.004  0.001  0.003  0.007
   35  0.000  0.001  0.004  0.004
   36  0.000  0.000  0.000  0.000
tot    0.298  0.041  0.353  0.693
 
band     9 # energy   -5.91718467 # occ.  2.00000000
 
ion      s      p      d    tot
    1  0.000  0.001  0.004  0.004
    2  0.004  0.001  0.003  0.008
    3  0.001  0.000  0.004  0.005
    4  0.004  0.001  0.003  0.008
    5  0.000  0.000  0.004  0.004
    6  0.008  0.001  0.004  0.014
    7  0.001  0.000  0.004  0.005
    8  0.008  0.001  0.004  0.014
    9  0.000  0.001  0.011  0.012
   10  0.000  0.005  0.005  0.010
   11  0.005  0.001  0.012  0.019
   12  0.021  0.001  0.014  0.036
   13  0.005  0.001  0.012  0.018
   14  0.000  0.002  0.023  0.025
   15  0.046  0.001  0.015  0.062
   16  0.020  0.001  0.014  0.035
   17  0.047  0.001  0.014  0.063
   18  0.000  0.001  0.043  0.044
   19  0.031  0.002  0.012  0.045
   20  0.000  0.002  0.012  0.014
   21  0.000  0.001  0.013  0.014
   22  0.026  0.001  0.012  0.040
   23  0.000  0.001  0.013  0.014
   24  0.000  0.004  0.014  0.018
   25  0.000  0.000  0.037  0.037
   26  0.032  0.002  0.011  0.045
   27  0.025  0.001  0.013  0.039
   28  0.000  0.000  0.007  0.007
   29  0.004  0.001  0.002  0.007
   30  0.002  0.000  0.002  0.005
   31  0.004  0.001  0.002  0.008
   32  0.000  0.000  0.002  0.002
   33  0.002  0.000  0.002  0.005
   34  0.001  0.000  0.002  0.002
   35  0.000  0.001  0.004  0.004
   36  0.000  0.000  0.000  0.000
tot    0.298  0.041  0.353  0.693
 
band    10 # energy   -5.89851482 # occ.  2.00000000
 
ion      s      p      d    tot
    1  0.001  0.000  0.001  0.001
    2  0.000  0.000  0.001  0.001
    3  0.000  0.000  0.001  0.001
    4  0.000  0.000  0.001  0.001
    5  0.002  0.000  0.000  0.002
    6  0.000  0.000  0.001  0.001
    7  0.000  0.000  0.001  0.001
    8  0.000  0.000  0.001  0.001
    9  0.002  0.000  0.000  0.003
   10  0.001  0.000  0.009  0.011
   11  0.005  0.001  0.004  0.009
   12  0.001  0.000  0.009  0.011
   13  0.005  0.001  0.004  0.009
   14  0.005  0.001  0.004  0.009
   15  0.004  0.001  0.008  0.013
   16  0.001  0.000  0.009  0.011
   17  0.004  0.001  0.008  0.013
   18  0.004  0.001  0.008  0.013
   19  0.008  0.001  0.019  0.028
   20  0.000  0.000  0.034  0.034
   21  0.000  0.000  0.034  0.034
   22  0.014  0.001  0.020  0.035
   23  0.000  0.000  0.034  0.034
   24  0.014  0.001  0.020  0.035
   25  0.008  0.001  0.019  0.028
   26  0.008  0.001  0.019  0.028
   27  0.014  0.001  0.020  0.035
   28  0.016  0.000  0.020  0.037
   29  0.021  0.000  0.018  0.039
   30  0.021  0.000  0.018  0.039
   31  0.021  0.000  0.018  0.039
   32  0.021  0.000  0.018  0.039
   33  0.021  0.000  0.018  0.039
   34  0.021  0.000  0.018  0.039
   35  0.018  0.000  0.019  0.037
   36  0.018  0.000  0.006  0.024
tot    0.276  0.013  0.443  0.732
 
band    11 # energy   -5.49452476 # occ.  2.00000000
 
ion      s      p      d    tot
    1  0.000  0.001  0.004  0.005
    2  0.000  0.001  0.005  0.006
    3  0.009  0.001  0.004  0.014
    4  0.000  0.001  0.005  0.006
    5  0.000  0.001  0.010  0.012
    6  0.005  0.001  0.004  0.010
    7  0.008  0.001  0.004  0.014
    8  0.005  0.001  0.004  0.009
    9  0.000  0.000  0.008  0.008
   10  0.000  0.001  0.052  0.053
   11  0.016  0.001  0.020  0.037
   12  0.008  0.002  0.018  0.028
   13  0.016  0.001  0.020  0.037
   14  0.000  0.000  0.047  0.047
   15  0.001  0.000  0.019  0.020
   16  0.008  0.002  0.019  0.028
   17  0.001  0.000  0.019  0.021
   18  0.000  0.001  0.011  0.012
   19  0.006  0.000  0.019  0.025
   20  0.000  0.000  0.080  0.080
   21  0.017  0.001  0.024  0.042
   22  0.002  0.001  0.018  0.022
   23  0.016  0.001  0.025  0.042
   24  0.000  0.001  0.029  0.030
   25  0.000  0.001  0.014  0.014
   26  0.006  0.000  0.019  0.025
   27  0.002  0.001  0.019  0.022
   28  0.000  0.000  0.009  0.009
   29  0.002  0.001  0.005  0.008
   30  0.010  0.001  0.004  0.015
   31  0.002  0.001  0.005  0.008
   32  0.003  0.001  0.004  0.008
   33  0.010  0.001  0.004  0.015
   34  0.003  0.001  0.004  0.007
   35  0.000  0.000  0.004  0.004
   36  0.000  0.004  0.003  0.007
tot    0.157  0.032  0.560  0.750
 
band    12 # energy   -5.49452346 # occ.  2.00000000
 
ion      s      p      d    tot
    1  0.000  0.001  0.004  0.005
    2  0.009  0.001  0.004  0.014
    3  0.001  0.000  0.004  0.005
    4  0.009  0.001  0.004  0.014
    5  0.000  0.001  0.010  0.012
    6  0.004  0.001  0.005  0.010
    7  0.001  0.000  0.004  0.006
    8  0.004  0.001  0.005  0.010
    9  0.000  0.000  0.008  0.008
   10  0.010  0.002  0.008  0.019
   11  0.006  0.000  0.037  0.043
   12  0.003  0.001  0.041  0.045
   13  0.005  0.000  0.038  0.043
   14  0.021  0.001  0.012  0.034
   15  0.000  0.001  0.013  0.014
   16  0.003  0.001  0.041  0.044
   17  0.000  0.001  0.013  0.014
   18  0.002  0.000  0.022  0.024
   19  0.002  0.001  0.015  0.018
   20  0.022  0.002  0.006  0.029
   21  0.005  0.000  0.062  0.067
   22  0.001  0.001  0.026  0.028
   23  0.006  0.000  0.061  0.067
   24  0.003  0.001  0.015  0.018
   25  0.008  0.000  0.021  0.030
   26  0.002  0.001  0.015  0.017
   27  0.001  0.001  0.026  0.028
   28  0.000  0.000  0.009  0.009
   29  0.008  0.001  0.004  0.013
   30  0.000  0.000  0.005  0.005
   31  0.008  0.001  0.004  0.012
   32  0.007  0.001  0.005  0.013
   33  0.000  0.000  0.005  0.005
   34  0.007  0.001  0.005  0.013
   35  0.000  0.000  0.004  0.004
   36  0.000  0.004  0.003  0.007
tot    0.157  0.032  0.560  0.750
 
band    13 # energy   -5.49389613 # occ.  2.00000000
 
ion      s      p      d    tot
    1  0.012  0.002  0.002  0.016
    2  0.000  0.001  0.008  0.009
    3  0.000  0.001  0.008  0.008
    4  0.000  0.001  0.008  0.009
    5  0.001  0.000  0.002  0.002
    6  0.000  0.001  0.008  0.009
    7  0.000  0.001  0.008  0.008
    8  0.000  0.001  0.008  0.009
    9  0.017  0.002  0.000  0.019
   10  0.011  0.001  0.015  0.028
   11  0.002  0.000  0.045  0.047
   12  0.010  0.001  0.015  0.027
   13  0.002  0.000  0.045  0.047
   14  0.002  0.000  0.044  0.046
   15  0.004  0.001  0.019  0.025
   16  0.010  0.001  0.015  0.027
   17  0.004  0.001  0.019  0.025
   18  0.004  0.001  0.018  0.023
   19  0.003  0.001  0.016  0.020
   20  0.002  0.000  0.053  0.056
   21  0.002  0.000  0.054  0.056
   22  0.011  0.001  0.015  0.027
   23  0.002  0.000  0.054  0.056
   24  0.011  0.001  0.015  0.028
   25  0.002  0.001  0.015  0.019
   26  0.003  0.001  0.016  0.020
   27  0.011  0.001  0.015  0.027
   28  0.012  0.001  0.000  0.013
   29  0.000  0.000  0.006  0.007
   30  0.000  0.000  0.006  0.007
   31  0.000  0.000  0.006  0.007
   32  0.000  0.000  0.006  0.007
   33  0.000  0.000  0.006  0.007
   34  0.000  0.000  0.006  0.007
   35  0.009  0.001  0.002  0.012
   36  0.000  0.000  0.001  0.001
tot    0.148  0.027  0.580  0.755
 
band    14 # energy   -5.44187743 # occ.  2.00000000
 
ion      s      p      d    tot
    1  0.010  0.000  0.000  0.011
    2  0.000  0.001  0.009  0.009
    3  0.000  0.001  0.009  0.009
    4  0.000  0.001  0.009  0.009
    5  0.017  0.002  0.001  0.020
    6  0.000  0.001  0.009  0.009
    7  0.000  0.001  0.009  0.009
    8  0.000  0.001  0.009  0.009
    9  0.002  0.000  0.002  0.004
   10  0.000  0.000  0.042  0.042
   11  0.007  0.002  0.007  0.016
   12  0.000  0.000  0.042  0.042
   13  0.007  0.002  0.008  0.016
   14  0.007  0.002  0.007  0.016
   15  0.006  0.001  0.029  0.037
   16  0.000  0.000  0.042  0.042
   17  0.006  0.001  0.029  0.037
   18  0.007  0.001  0.029  0.037
   19  0.012  0.001  0.038  0.050
   20  0.009  0.002  0.009  0.019
   21  0.009  0.002  0.009  0.019
   22  0.000  0.000  0.038  0.038
   23  0.009  0.002  0.009  0.019
   24  0.000  0.000  0.038  0.038
   25  0.012  0.001  0.038  0.050
   26  0.012  0.001  0.038  0.050
   27  0.000  0.000  0.038  0.038
   28  0.002  0.001  0.006  0.008
   29  0.000  0.000  0.005  0.006
   30  0.000  0.000  0.005  0.006
   31  0.000  0.000  0.005  0.006
   32  0.000  0.000  0.005  0.006
   33  0.000  0.000  0.005  0.006
   34  0.000  0.000  0.005  0.006
   35  0.002  0.000  0.000  0.002
   36  0.015  0.004  0.000  0.019
tot    0.151  0.031  0.584  0.765
 
band    15 # energy   -5.42948438 # occ.  2.00000000
 
ion      s      p      d    tot
    1  0.000  0.001  0.014  0.015
    2  0.010  0.001  0.005  0.016
    3  0.002  0.000  0.005  0.007
    4  0.010  0.001  0.005  0.016
    5  0.000  0.000  0.005  0.005
    6  0.003  0.001  0.005  0.010
    7  0.002  0.000  0.005  0.007
    8  0.003  0.001  0.005  0.010
    9  0.000  0.001  0.007  0.009
   10  0.000  0.001  0.027  0.028
   11  0.001  0.001  0.019  0.021
   12  0.007  0.000  0.022  0.029
   13  0.001  0.001  0.019  0.021
   14  0.000  0.001  0.021  0.022
   15  0.011  0.002  0.021  0.034
   16  0.007  0.000  0.022  0.029
   17  0.012  0.002  0.020  0.034
   18  0.000  0.000  0.064  0.064
   19  0.012  0.001  0.020  0.033
   20  0.000  0.002  0.018  0.020
   21  0.000  0.001  0.023  0.024
   22  0.018  0.001  0.020  0.039
   23  0.000  0.001  0.023  0.024
   24  0.000  0.000  0.035  0.035
   25  0.000  0.000  0.065  0.065
   26  0.012  0.001  0.019  0.033
   27  0.018  0.001  0.020  0.039
   28  0.000  0.001  0.005  0.005
   29  0.006  0.001  0.004  0.011
   30  0.000  0.000  0.005  0.005
   31  0.006  0.001  0.004  0.011
   32  0.004  0.001  0.003  0.007
   33  0.000  0.000  0.005  0.005
   34  0.004  0.001  0.003  0.007
   35  0.000  0.001  0.008  0.009
   36  0.000  0.000  0.001  0.001
tot    0.149  0.029  0.572  0.750
 
band    16 # energy   -5.42947069 # occ.  2.00000000
 
ion      s      p      d    tot
    1  0.000  0.001  0.014  0.015
    2  0.000  0.000  0.005  0.006
    3  0.008  0.001  0.005  0.015
    4  0.000  0.000  0.005  0.006
    5  0.000  0.000  0.005  0.005
    6  0.007  0.001  0.005  0.012
    7  0.008  0.001  0.005  0.015
    8  0.007  0.001  0.005  0.012
    9  0.000  0.001  0.007  0.009
   10  0.009  0.000  0.021  0.030
   11  0.000  0.001  0.020  0.022
   12  0.002  0.001  0.026  0.028
   13  0.000  0.001  0.020  0.022
   14  0.001  0.001  0.019  0.021
   15  0.004  0.001  0.049  0.054
   16  0.002  0.001  0.026  0.029
   17  0.004  0.001  0.049  0.054
   18  0.015  0.002  0.006  0.024
   19  0.004  0.001  0.050  0.054
   20  0.001  0.000  0.025  0.025
   21  0.000  0.001  0.020  0.021
   22  0.006  0.000  0.030  0.036
   23  0.000  0.001  0.020  0.021
   24  0.024  0.001  0.015  0.040
   25  0.016  0.001  0.004  0.022
   26  0.004  0.001  0.050  0.055
   27  0.006  0.000  0.030  0.036
   28  0.000  0.001  0.005  0.005
   29  0.001  0.000  0.004  0.005
   30  0.006  0.001  0.003  0.010
   31  0.001  0.000  0.004  0.005
   32  0.003  0.001  0.005  0.008
   33  0.006  0.001  0.003  0.010
   34  0.003  0.001  0.005  0.008
   35  0.000  0.001  0.008  0.009
   36  0.000  0.000  0.001  0.001
tot    0.149  0.029  0.572  0.750
 
band    17 # energy   -5.11175404 # occ.  2.00000000
 
ion      s      p      d    tot
    1  0.000  0.000  0.016  0.016
    2  0.008  0.000  0.012  0.020
    3  0.004  0.001  0.008  0.012
    4  0.008  0.000  0.012  0.020
    5  0.000  0.001  0.025  0.026
    6  0.001  0.000  0.012  0.013
    7  0.003  0.001  0.008  0.012
    8  0.001  0.000  0.012  0.013
    9  0.000  0.001  0.004  0.005
   10  0.000  0.000  0.010  0.010
   11  0.000  0.000  0.047  0.047
   12  0.000  0.000  0.014  0.015
   13  0.000  0.000  0.047  0.047
   14  0.000  0.000  0.046  0.047
   15  0.000  0.000  0.028  0.028
   16  0.000  0.000  0.014  0.015
   17  0.000  0.000  0.028  0.028
   18  0.000  0.000  0.013  0.013
   19  0.000  0.000  0.012  0.012
   20  0.000  0.000  0.041  0.041
   21  0.001  0.000  0.060  0.060
   22  0.000  0.000  0.029  0.029
   23  0.001  0.000  0.060  0.061
   24  0.000  0.000  0.032  0.032
   25  0.000  0.000  0.009  0.010
   26  0.000  0.000  0.012  0.012
   27  0.000  0.000  0.028  0.029
   28  0.000  0.001  0.013  0.013
   29  0.002  0.001  0.007  0.010
   30  0.012  0.001  0.012  0.025
   31  0.002  0.001  0.007  0.010
   32  0.004  0.001  0.015  0.020
   33  0.012  0.001  0.012  0.025
   34  0.004  0.001  0.015  0.020
   35  0.000  0.000  0.025  0.025
   36  0.000  0.004  0.003  0.007
tot    0.065  0.017  0.746  0.828
 
band    18 # energy   -5.11174938 # occ.  2.00000000
 
ion      s      p      d    tot
    1  0.000  0.000  0.016  0.016
    2  0.000  0.000  0.009  0.010
    3  0.005  0.000  0.013  0.018
    4  0.000  0.000  0.009  0.010
    5  0.000  0.001  0.025  0.026
    6  0.007  0.001  0.009  0.017
    7  0.005  0.000  0.013  0.018
    8  0.007  0.001  0.009  0.017
    9  0.000  0.001  0.004  0.005
   10  0.000  0.000  0.016  0.016
   11  0.000  0.000  0.046  0.047
   12  0.000  0.000  0.011  0.011
   13  0.000  0.000  0.046  0.047
   14  0.000  0.000  0.047  0.047
   15  0.000  0.000  0.018  0.018
   16  0.000  0.000  0.011  0.011
   17  0.000  0.000  0.018  0.018
   18  0.000  0.000  0.033  0.034
   19  0.000  0.000  0.010  0.010
   20  0.001  0.000  0.066  0.067
   21  0.000  0.000  0.047  0.048
   22  0.000  0.000  0.031  0.031
   23  0.000  0.000  0.047  0.047
   24  0.000  0.001  0.027  0.028
   25  0.000  0.000  0.013  0.013
   26  0.000  0.000  0.010  0.010
   27  0.000  0.000  0.031  0.031
   28  0.000  0.001  0.013  0.013
   29  0.010  0.001  0.016  0.027
   30  0.000  0.001  0.011  0.012
   31  0.010  0.001  0.016  0.027
   32  0.009  0.001  0.008  0.017
   33  0.000  0.001  0.011  0.012
   34  0.008  0.001  0.008  0.017
   35  0.000  0.000  0.025  0.025
   36  0.000  0.004  0.003  0.007
tot    0.065  0.017  0.746  0.828
 
band    19 # energy   -5.10415303 # occ.  2.00000000
 
ion      s      p      d    tot
    1  0.012  0.000  0.002  0.014
    2  0.000  0.001  0.011  0.012
    3  0.000  0.001  0.011  0.012
    4  0.000  0.001  0.011  0.012
    5  0.004  0.000  0.012  0.016
    6  0.000  0.001  0.011  0.012
    7  0.000  0.001  0.011  0.012
    8  0.000  0.001  0.011  0.012
    9  0.002  0.000  0.003  0.005
   10  0.000  0.000  0.023  0.023
   11  0.000  0.000  0.037  0.037
   12  0.000  0.000  0.023  0.023
   13  0.000  0.000  0.037  0.037
   14  0.000  0.000  0.037  0.037
   15  0.000  0.000  0.027  0.027
   16  0.000  0.000  0.023  0.023
   17  0.000  0.000  0.027  0.027
   18  0.000  0.000  0.027  0.027
   19  0.000  0.000  0.024  0.024
   20  0.001  0.000  0.037  0.038
   21  0.001  0.000  0.037  0.038
   22  0.001  0.000  0.030  0.031
   23  0.001  0.000  0.037  0.038
   24  0.001  0.000  0.030  0.031
   25  0.000  0.000  0.024  0.024
   26  0.000  0.000  0.024  0.024
   27  0.001  0.000  0.030  0.031
   28  0.017  0.001  0.001  0.018
   29  0.000  0.001  0.021  0.022
   30  0.000  0.001  0.021  0.022
   31  0.000  0.001  0.021  0.022
   32  0.000  0.001  0.021  0.022
   33  0.000  0.001  0.021  0.022
   34  0.000  0.001  0.021  0.022
   35  0.020  0.000  0.006  0.026
   36  0.000  0.001  0.003  0.004
tot    0.060  0.013  0.752  0.825
 
band    20 # energy   -5.08581388 # occ.  2.00000000
 
ion      s      p      d    tot
    1  0.000  0.000  0.008  0.008
    2  0.000  0.001  0.019  0.020
    3  0.000  0.001  0.019  0.020
    4  0.000  0.001  0.019  0.020
    5  0.023  0.001  0.000  0.024
    6  0.000  0.001  0.019  0.020
    7  0.000  0.001  0.019  0.020
    8  0.000  0.001  0.019  0.020
    9  0.023  0.001  0.008  0.031
   10  0.000  0.000  0.035  0.036
   11  0.000  0.001  0.035  0.036
   12  0.000  0.000  0.035  0.036
   13  0.000  0.001  0.035  0.036
   14  0.000  0.001  0.035  0.036
   15  0.000  0.000  0.029  0.030
   16  0.000  0.000  0.035  0.036
   17  0.000  0.000  0.029  0.030
   18  0.000  0.000  0.029  0.030
   19  0.001  0.000  0.023  0.024
   20  0.001  0.000  0.034  0.034
   21  0.001  0.000  0.034  0.034
   22  0.000  0.000  0.016  0.016
   23  0.001  0.000  0.034  0.034
   24  0.000  0.000  0.015  0.016
   25  0.001  0.000  0.023  0.024
   26  0.001  0.000  0.023  0.024
   27  0.000  0.000  0.016  0.016
   28  0.006  0.000  0.008  0.014
   29  0.000  0.000  0.015  0.015
   30  0.000  0.000  0.014  0.015
   31  0.000  0.000  0.015  0.015
   32  0.000  0.000  0.014  0.015
   33  0.000  0.000  0.014  0.015
   34  0.000  0.000  0.014  0.015
   35  0.000  0.000  0.002  0.003
   36  0.007  0.000  0.002  0.010
tot    0.065  0.017  0.746  0.827
 
band    21 # energy   -5.05645966 # occ.  2.00000000
 
ion      s      p      d    tot
    1  0.000  0.002  0.013  0.014
    2  0.014  0.001  0.017  0.032
    3  0.010  0.001  0.011  0.022
    4  0.014  0.001  0.017  0.032
    5  0.000  0.001  0.018  0.019
    6  0.000  0.001  0.017  0.018
    7  0.010  0.001  0.011  0.022
    8  0.000  0.001  0.017  0.018
    9  0.000  0.000  0.039  0.039
   10  0.000  0.001  0.053  0.054
   11  0.000  0.000  0.021  0.021
   12  0.000  0.000  0.053  0.053
   13  0.000  0.000  0.021  0.021
   14  0.000  0.000  0.025  0.026
   15  0.000  0.001  0.031  0.031
   16  0.000  0.000  0.053  0.053
   17  0.000  0.001  0.031  0.031
   18  0.000  0.001  0.028  0.029
   19  0.000  0.000  0.025  0.025
   20  0.000  0.000  0.019  0.019
   21  0.000  0.000  0.015  0.015
   22  0.001  0.000  0.010  0.011
   23  0.000  0.000  0.015  0.015
   24  0.003  0.000  0.021  0.024
   25  0.001  0.000  0.037  0.038
   26  0.000  0.000  0.025  0.025
   27  0.001  0.000  0.010  0.011
   28  0.000  0.000  0.017  0.017
   29  0.000  0.000  0.008  0.008
   30  0.006  0.000  0.005  0.011
   31  0.000  0.000  0.008  0.008
   32  0.004  0.000  0.011  0.015
   33  0.006  0.000  0.005  0.011
   34  0.004  0.000  0.011  0.015
   35  0.000  0.001  0.005  0.006
   36  0.000  0.000  0.004  0.004
tot    0.073  0.018  0.726  0.817
 
band    22 # energy   -5.05644827 # occ.  2.00000000
 
ion      s      p      d    tot
    1  0.000  0.002  0.013  0.014
    2  0.002  0.001  0.013  0.016
    3  0.006  0.001  0.019  0.026
    4  0.002  0.001  0.013  0.016
    5  0.000  0.001  0.018  0.019
    6  0.016  0.001  0.013  0.030
    7  0.006  0.001  0.019  0.026
    8  0.016  0.001  0.013  0.030
    9  0.000  0.000  0.039  0.039
   10  0.000  0.000  0.053  0.053
   11  0.000  0.000  0.024  0.024
   12  0.000  0.001  0.053  0.054
   13  0.000  0.000  0.024  0.024
   14  0.000  0.000  0.020  0.020
   15  0.000  0.001  0.029  0.030
   16  0.000  0.001  0.053  0.054