PROCAR new format
# of k-points:   10         # of bands:  252         # of ions:   37

 k-point     1 :    0.00000000 0.00000000 0.00000000     weight = 0.01562500

band     1 # energy  -14.15926543 # occ.  2.00000000
 
ion      s      p      d    tot
    1  0.000  0.000  0.000  0.000
    2  0.000  0.000  0.000  0.000
    3  0.000  0.000  0.000  0.000
    4  0.000  0.000  0.000  0.000
    5  0.000  0.000  0.000  0.000
    6  0.000  0.000  0.000  0.000
    7  0.000  0.000  0.000  0.000
    8  0.000  0.000  0.000  0.000
    9  0.000  0.000  0.000  0.000
   10  0.000  0.000  0.000  0.000
   11  0.000  0.000  0.000  0.000
   12  0.000  0.000  0.000  0.000
   13  0.000  0.000  0.000  0.000
   14  0.000  0.000  0.000  0.000
   15  0.000  0.000  0.000  0.000
   16  0.000  0.000  0.000  0.000
   17  0.000  0.000  0.000  0.000
   18  0.000  0.000  0.000  0.000
   19  0.000  0.000  0.000  0.000
   20  0.000  0.000  0.000  0.000
   21  0.000  0.000  0.000  0.000
   22  0.000  0.000  0.000  0.000
   23  0.000  0.000  0.000  0.000
   24  0.000  0.000  0.000  0.000
   25  0.000  0.000  0.000  0.000
   26  0.000  0.000  0.000  0.000
   27  0.000  0.000  0.000  0.000
   28  0.000  0.000  0.000  0.000
   29  0.000  0.000  0.000  0.000
   30  0.000  0.000  0.000  0.000
   31  0.000  0.000  0.000  0.000
   32  0.000  0.000  0.000  0.000
   33  0.000  0.000  0.000  0.000
   34  0.000  0.000  0.000  0.000
   35  0.000  0.000  0.000  0.000
   36  0.055  0.072  0.167  0.294
   37  0.614  0.024  0.000  0.638
tot    0.670  0.097  0.168  0.935
 
band     2 # energy   -8.68859612 # occ.  2.00000000
 
ion      s      p      d    tot
    1  0.007  0.001  0.000  0.007
    2  0.007  0.001  0.000  0.007
    3  0.007  0.001  0.000  0.007
    4  0.007  0.001  0.000  0.007
    5  0.007  0.001  0.000  0.007
    6  0.007  0.001  0.000  0.007
    7  0.007  0.001  0.000  0.007
    8  0.007  0.001  0.000  0.007
    9  0.007  0.001  0.000  0.007
   10  0.025  0.000  0.000  0.025
   11  0.025  0.000  0.000  0.025
   12  0.025  0.000  0.000  0.025
   13  0.025  0.000  0.000  0.025
   14  0.025  0.000  0.000  0.025
   15  0.025  0.000  0.000  0.025
   16  0.025  0.000  0.000  0.025
   17  0.025  0.000  0.000  0.025
   18  0.025  0.000  0.000  0.025
   19  0.025  0.000  0.000  0.025
   20  0.025  0.000  0.000  0.025
   21  0.025  0.000  0.000  0.025
   22  0.025  0.000  0.000  0.025
   23  0.025  0.000  0.000  0.025
   24  0.025  0.000  0.000  0.025
   25  0.025  0.000  0.000  0.025
   26  0.025  0.000  0.000  0.025
   27  0.025  0.000  0.000  0.025
   28  0.007  0.001  0.000  0.008
   29  0.006  0.001  0.000  0.007
   30  0.006  0.001  0.000  0.007
   31  0.006  0.001  0.000  0.007
   32  0.006  0.001  0.000  0.007
   33  0.006  0.001  0.000  0.007
   34  0.006  0.001  0.000  0.007
   35  0.007  0.001  0.000  0.008
   36  0.006  0.002  0.000  0.009
   37  0.001  0.000  0.000  0.001
tot    0.565  0.018  0.001  0.584
 
band     3 # energy   -7.38506547 # occ.  2.00000000
 
ion      s      p      d    tot
    1  0.018  0.001  0.000  0.019
    2  0.018  0.001  0.001  0.019
    3  0.018  0.001  0.001  0.019
    4  0.018  0.001  0.001  0.019
    5  0.018  0.001  0.000  0.019
    6  0.018  0.001  0.001  0.019
    7  0.018  0.001  0.001  0.019
    8  0.018  0.001  0.001  0.019
    9  0.018  0.001  0.001  0.019
   10  0.010  0.002  0.001  0.013
   11  0.010  0.002  0.001  0.013
   12  0.010  0.002  0.001  0.013
   13  0.010  0.002  0.001  0.013
   14  0.010  0.002  0.001  0.013
   15  0.010  0.002  0.001  0.012
   16  0.010  0.002  0.001  0.013
   17  0.010  0.002  0.001  0.012
   18  0.010  0.002  0.001  0.012
   19  0.011  0.002  0.001  0.014
   20  0.009  0.002  0.001  0.011
   21  0.009  0.002  0.001  0.011
   22  0.011  0.002  0.001  0.014
   23  0.009  0.002  0.001  0.011
   24  0.011  0.002  0.001  0.014
   25  0.011  0.002  0.001  0.014
   26  0.011  0.002  0.001  0.014
   27  0.011  0.002  0.001  0.014
   28  0.019  0.001  0.001  0.021
   29  0.018  0.001  0.001  0.020
   30  0.018  0.001  0.001  0.020
   31  0.018  0.001  0.001  0.020
   32  0.018  0.001  0.001  0.020
   33  0.018  0.001  0.001  0.020
   34  0.018  0.001  0.001  0.020
   35  0.019  0.001  0.000  0.021
   36  0.017  0.002  0.007  0.026
   37  0.001  0.000  0.000  0.001
tot    0.508  0.056  0.026  0.589
 
band     4 # energy   -5.91777327 # occ.  2.00000000
 
ion      s      p      d    tot
    1  0.011  0.000  0.003  0.015
    2  0.011  0.000  0.003  0.014
    3  0.011  0.000  0.003  0.014
    4  0.011  0.000  0.003  0.014
    5  0.004  0.000  0.004  0.009
    6  0.011  0.000  0.003  0.014
    7  0.011  0.000  0.003  0.014
    8  0.011  0.000  0.003  0.014
    9  0.018  0.000  0.002  0.020
   10  0.001  0.003  0.001  0.006
   11  0.008  0.004  0.001  0.012
   12  0.001  0.003  0.001  0.006
   13  0.008  0.004  0.001  0.012
   14  0.008  0.004  0.001  0.012
   15  0.000  0.002  0.002  0.004
   16  0.001  0.003  0.001  0.006
   17  0.000  0.002  0.002  0.004
   18  0.000  0.002  0.002  0.004
   19  0.001  0.002  0.005  0.008
   20  0.023  0.004  0.007  0.033
   21  0.022  0.004  0.007  0.033
   22  0.000  0.003  0.004  0.007
   23  0.022  0.004  0.007  0.033
   24  0.000  0.003  0.004  0.007
   25  0.001  0.002  0.005  0.008
   26  0.001  0.002  0.005  0.008
   27  0.000  0.003  0.004  0.007
   28  0.016  0.000  0.004  0.020
   29  0.015  0.000  0.007  0.022
   30  0.015  0.000  0.007  0.022
   31  0.015  0.000  0.007  0.022
   32  0.015  0.000  0.007  0.022
   33  0.015  0.000  0.007  0.022
   34  0.015  0.000  0.007  0.022
   35  0.020  0.000  0.004  0.024
   36  0.004  0.002  0.129  0.134
   37  0.005  0.025  0.000  0.030
tot    0.330  0.083  0.268  0.680
 
band     5 # energy   -5.77864179 # occ.  2.00000000
 
ion      s      p      d    tot
    1  0.000  0.001  0.004  0.005
    2  0.006  0.002  0.002  0.010
    3  0.000  0.001  0.001  0.002
    4  0.006  0.002  0.002  0.010
    5  0.000  0.002  0.003  0.005
    6  0.004  0.001  0.002  0.006
    7  0.000  0.001  0.001  0.002
    8  0.004  0.001  0.002  0.006
    9  0.000  0.000  0.002  0.002
   10  0.043  0.004  0.003  0.050
   11  0.008  0.008  0.005  0.020
   12  0.010  0.001  0.010  0.022
   13  0.008  0.008  0.005  0.020
   14  0.031  0.001  0.005  0.037
   15  0.000  0.005  0.005  0.010
   16  0.011  0.001  0.010  0.022
   17  0.000  0.005  0.005  0.010
   18  0.001  0.001  0.003  0.005
   19  0.004  0.010  0.002  0.016
   20  0.071  0.002  0.008  0.082
   21  0.018  0.004  0.014  0.036
   22  0.004  0.003  0.010  0.016
   23  0.018  0.004  0.014  0.036
   24  0.015  0.004  0.002  0.021
   25  0.015  0.000  0.006  0.021
   26  0.004  0.010  0.002  0.016
   27  0.004  0.003  0.009  0.016
   28  0.000  0.002  0.003  0.005
   29  0.010  0.003  0.005  0.018
   30  0.002  0.001  0.003  0.006
   31  0.010  0.003  0.005  0.018
   32  0.003  0.002  0.005  0.009
   33  0.002  0.001  0.003  0.006
   34  0.003  0.002  0.005  0.009
   35  0.000  0.000  0.003  0.003
   36  0.000  0.004  0.079  0.083
   37  0.000  0.008  0.000  0.008
tot    0.314  0.112  0.244  0.670
 
band     6 # energy   -5.77847731 # occ.  2.00000000
 
ion      s      p      d    tot
    1  0.000  0.001  0.004  0.005
    2  0.000  0.001  0.001  0.003
    3  0.007  0.002  0.002  0.010
    4  0.001  0.001  0.001  0.003
    5  0.000  0.002  0.003  0.005
    6  0.003  0.001  0.001  0.006
    7  0.007  0.002  0.002  0.010
    8  0.003  0.001  0.001  0.006
    9  0.000  0.000  0.002  0.002
   10  0.000  0.000  0.012  0.012
   11  0.023  0.003  0.005  0.031
   12  0.032  0.003  0.005  0.041
   13  0.023  0.003  0.005  0.032
   14  0.000  0.010  0.005  0.015
   15  0.001  0.003  0.004  0.007
   16  0.032  0.003  0.005  0.040
   17  0.001  0.003  0.003  0.007
   18  0.000  0.006  0.005  0.011
   19  0.011  0.003  0.005  0.019
   20  0.000  0.004  0.016  0.021
   21  0.054  0.003  0.010  0.067
   22  0.012  0.004  0.005  0.020
   23  0.053  0.003  0.010  0.066
   24  0.000  0.003  0.012  0.015
   25  0.000  0.013  0.001  0.014
   26  0.011  0.003  0.005  0.019
   27  0.012  0.004  0.005  0.020
   28  0.000  0.002  0.003  0.005
   29  0.000  0.001  0.003  0.004
   30  0.008  0.003  0.005  0.016
   31  0.000  0.001  0.003  0.004
   32  0.007  0.002  0.003  0.013
   33  0.008  0.003  0.005  0.016
   34  0.007  0.002  0.003  0.012
   35  0.000  0.000  0.003  0.003
   36  0.000  0.004  0.080  0.083
   37  0.000  0.008  0.000  0.008
tot    0.314  0.112  0.244  0.670
 
band     7 # energy   -5.70890635 # occ.  2.00000000
 
ion      s      p      d    tot
    1  0.000  0.001  0.002  0.004
    2  0.008  0.002  0.002  0.012
    3  0.000  0.001  0.002  0.003
    4  0.008  0.002  0.002  0.012
    5  0.000  0.000  0.003  0.004
    6  0.005  0.002  0.002  0.008
    7  0.000  0.001  0.002  0.003
    8  0.005  0.002  0.002  0.008
    9  0.000  0.003  0.005  0.008
   10  0.000  0.012  0.002  0.014
   11  0.015  0.003  0.005  0.023
   12  0.007  0.003  0.005  0.015
   13  0.015  0.003  0.005  0.023
   14  0.000  0.002  0.012  0.014
   15  0.042  0.004  0.006  0.052
   16  0.007  0.003  0.005  0.015
   17  0.042  0.004  0.006  0.052
   18  0.000  0.005  0.011  0.016
   19  0.037  0.004  0.006  0.046
   20  0.000  0.011  0.004  0.015
   21  0.000  0.004  0.004  0.008
   22  0.037  0.004  0.006  0.047
   23  0.000  0.004  0.004  0.008
   24  0.000  0.011  0.006  0.017
   25  0.000  0.000  0.017  0.017
   26  0.037  0.004  0.006  0.047
   27  0.037  0.004  0.006  0.047
   28  0.000  0.002  0.005  0.008
   29  0.013  0.003  0.003  0.019
   30  0.002  0.002  0.003  0.006
   31  0.013  0.003  0.003  0.019
   32  0.006  0.001  0.003  0.010
   33  0.002  0.002  0.003  0.007
   34  0.006  0.001  0.003  0.010
   35  0.000  0.004  0.005  0.009
   36  0.000  0.000  0.015  0.016
   37  0.000  0.000  0.000  0.000
tot    0.344  0.115  0.183  0.642
 
band     8 # energy   -5.70874248 # occ.  2.00000000
 
ion      s      p      d    tot
    1  0.000  0.001  0.002  0.004
    2  0.001  0.001  0.002  0.003
    3  0.008  0.002  0.002  0.013
    4  0.001  0.001  0.002  0.004
    5  0.000  0.000  0.003  0.004
    6  0.004  0.001  0.002  0.007
    7  0.008  0.002  0.002  0.013
    8  0.004  0.001  0.002  0.007
    9  0.000  0.003  0.005  0.008
   10  0.009  0.000  0.006  0.015
   11  0.005  0.002  0.010  0.017
   12  0.002  0.009  0.003  0.014
   13  0.005  0.002  0.010  0.017
   14  0.020  0.004  0.002  0.027
   15  0.014  0.005  0.010  0.028
   16  0.002  0.009  0.003  0.014
   17  0.014  0.005  0.010  0.028
   18  0.056  0.003  0.004  0.064
   19  0.012  0.001  0.014  0.027
   20  0.000  0.001  0.005  0.006
   21  0.000  0.009  0.004  0.012
   22  0.012  0.009  0.006  0.027
   23  0.000  0.009  0.004  0.012
   24  0.049  0.001  0.006  0.057
   25  0.049  0.005  0.002  0.056
   26  0.012  0.001  0.014  0.027
   27  0.013  0.009  0.006  0.027
   28  0.000  0.002  0.005  0.008
   29  0.000  0.001  0.003  0.005
   30  0.012  0.002  0.003  0.018
   31  0.000  0.001  0.003  0.005
   32  0.008  0.003  0.003  0.014
   33  0.012  0.002  0.003  0.017
   34  0.008  0.003  0.003  0.014
   35  0.000  0.004  0.005  0.009
   36  0.000  0.000  0.015  0.016
   37  0.000  0.000  0.000  0.000
tot    0.344  0.115  0.183  0.642
 
band     9 # energy   -5.68856450 # occ.  2.00000000
 
ion      s      p      d    tot
    1  0.021  0.003  0.001  0.025
    2  0.000  0.002  0.004  0.006
    3  0.000  0.002  0.004  0.006
    4  0.000  0.002  0.004  0.006
    5  0.000  0.000  0.001  0.001
    6  0.000  0.002  0.004  0.006
    7  0.000  0.002  0.004  0.006
    8  0.000  0.002  0.004  0.006
    9  0.009  0.002  0.001  0.011
   10  0.027  0.005  0.007  0.038
   11  0.004  0.001  0.011  0.015
   12  0.027  0.005  0.007  0.039
   13  0.004  0.001  0.011  0.015
   14  0.004  0.001  0.011  0.015
   15  0.015  0.008  0.003  0.027
   16  0.027  0.005  0.007  0.039
   17  0.015  0.008  0.003  0.027
   18  0.015  0.009  0.003  0.026
   19  0.019  0.009  0.002  0.031
   20  0.000  0.002  0.011  0.013
   21  0.000  0.002  0.011  0.013
   22  0.028  0.003  0.008  0.039
   23  0.000  0.002  0.011  0.013
   24  0.028  0.003  0.008  0.040
   25  0.020  0.009  0.002  0.031
   26  0.019  0.009  0.002  0.031
   27  0.028  0.003  0.008  0.039
   28  0.020  0.003  0.000  0.023
   29  0.000  0.002  0.004  0.006
   30  0.000  0.002  0.004  0.006
   31  0.000  0.002  0.004  0.006
   32  0.000  0.002  0.004  0.006
   33  0.000  0.002  0.004  0.006
   34  0.000  0.002  0.004  0.006
   35  0.013  0.003  0.002  0.017
   36  0.000  0.000  0.000  0.000
   37  0.000  0.000  0.000  0.000
tot    0.346  0.115  0.177  0.639
 
band    10 # energy   -5.63871317 # occ.  2.00000000
 
ion      s      p      d    tot
    1  0.000  0.001  0.001  0.002
    2  0.003  0.002  0.005  0.010
    3  0.003  0.002  0.005  0.010
    4  0.003  0.002  0.005  0.010
    5  0.037  0.003  0.000  0.040
    6  0.003  0.002  0.005  0.010
    7  0.003  0.002  0.005  0.010
    8  0.003  0.002  0.005  0.010
    9  0.001  0.002  0.004  0.007
   10  0.005  0.005  0.007  0.017
   11  0.018  0.008  0.005  0.030
   12  0.005  0.005  0.007  0.017
   13  0.018  0.008  0.005  0.030
   14  0.018  0.008  0.005  0.030
   15  0.023  0.002  0.010  0.034
   16  0.005  0.005  0.007  0.017
   17  0.023  0.002  0.010  0.034
   18  0.023  0.002  0.010  0.034
   19  0.013  0.002  0.009  0.024
   20  0.018  0.006  0.005  0.029
   21  0.018  0.006  0.005  0.029
   22  0.007  0.006  0.005  0.018
   23  0.018  0.006  0.005  0.029
   24  0.006  0.006  0.005  0.017
   25  0.013  0.002  0.009  0.024
   26  0.013  0.002  0.009  0.024
   27  0.007  0.006  0.005  0.018
   28  0.000  0.001  0.003  0.004
   29  0.003  0.001  0.004  0.008
   30  0.003  0.001  0.004  0.008
   31  0.003  0.001  0.004  0.008
   32  0.003  0.001  0.004  0.008
   33  0.003  0.001  0.004  0.008
   34  0.003  0.001  0.004  0.008
   35  0.000  0.001  0.002  0.002
   36  0.028  0.005  0.001  0.034
   37  0.002  0.001  0.000  0.003
tot    0.355  0.111  0.187  0.652
 
band    11 # energy   -5.16797977 # occ.  2.00000000
 
ion      s      p      d    tot
    1  0.011  0.000  0.009  0.020
    2  0.008  0.001  0.010  0.018
    3  0.008  0.001  0.010  0.018
    4  0.008  0.001  0.010  0.018
    5  0.000  0.002  0.010  0.012
    6  0.008  0.001  0.010  0.018
    7  0.008  0.001  0.010  0.018
    8  0.008  0.001  0.010  0.018
    9  0.021  0.000  0.006  0.027
   10  0.006  0.000  0.017  0.024
   11  0.018  0.001  0.012  0.031
   12  0.006  0.000  0.017  0.024
   13  0.018  0.001  0.012  0.031
   14  0.018  0.001  0.012  0.031
   15  0.001  0.001  0.016  0.018
   16  0.006  0.000  0.017  0.024
   17  0.001  0.001  0.016  0.018
   18  0.001  0.001  0.016  0.018
   19  0.001  0.000  0.004  0.006
   20  0.002  0.003  0.022  0.028
   21  0.002  0.003  0.022  0.028
   22  0.002  0.001  0.005  0.007
   23  0.002  0.003  0.022  0.028
   24  0.002  0.001  0.005  0.007
   25  0.001  0.000  0.004  0.006
   26  0.001  0.000  0.004  0.006
   27  0.002  0.001  0.005  0.007
   28  0.000  0.000  0.000  0.001
   29  0.000  0.000  0.002  0.003
   30  0.000  0.000  0.002  0.003
   31  0.000  0.000  0.002  0.003
   32  0.000  0.000  0.002  0.003
   33  0.000  0.000  0.002  0.003
   34  0.000  0.000  0.002  0.003
   35  0.000  0.000  0.000  0.001
   36  0.001  0.001  0.169  0.171
   37  0.015  0.065  0.000  0.080
tot    0.187  0.096  0.496  0.779
 
band    12 # energy   -5.11023470 # occ.  2.00000000
 
ion      s      p      d    tot
    1  0.000  0.001  0.006  0.007
    2  0.006  0.002  0.003  0.011
    3  0.014  0.003  0.003  0.020
    4  0.005  0.002  0.003  0.011
    5  0.000  0.004  0.006  0.011
    6  0.002  0.001  0.003  0.006
    7  0.014  0.003  0.003  0.020
    8  0.002  0.001  0.003  0.006
    9  0.000  0.002  0.006  0.008
   10  0.000  0.001  0.015  0.016
   11  0.021  0.002  0.005  0.029
   12  0.009  0.002  0.007  0.017
   13  0.021  0.002  0.005  0.028
   14  0.000  0.002  0.012  0.014
   15  0.002  0.001  0.006  0.009
   16  0.009  0.002  0.006  0.017
   17  0.002  0.001  0.006  0.009
   18  0.000  0.005  0.006  0.011
   19  0.000  0.000  0.004  0.004
   20  0.000  0.001  0.036  0.036
   21  0.002  0.004  0.012  0.018
   22  0.001  0.002  0.007  0.010
   23  0.002  0.004  0.011  0.017
   24  0.000  0.000  0.003  0.003
   25  0.000  0.000  0.005  0.005
   26  0.000  0.000  0.004  0.004
   27  0.001  0.002  0.007  0.010
   28  0.000  0.000  0.001  0.001
   29  0.003  0.001  0.004  0.009
   30  0.001  0.002  0.011  0.014
   31  0.003  0.001  0.004  0.009
   32  0.001  0.000  0.004  0.005
   33  0.001  0.002  0.011  0.014
   34  0.001  0.000  0.004  0.005
   35  0.000  0.001  0.001  0.001
   36  0.000  0.000  0.278  0.278
   37  0.000  0.070  0.000  0.070
tot    0.124  0.128  0.515  0.766
 
band    13 # energy   -5.11016253 # occ.  2.00000000
 
ion      s      p      d    tot
    1  0.000  0.001  0.006  0.007
    2  0.009  0.002  0.003  0.014
    3  0.000  0.001  0.003  0.005
    4  0.009  0.002  0.003  0.014
    5  0.000  0.004  0.006  0.011
    6  0.012  0.003  0.004  0.019
    7  0.000  0.001  0.003  0.005
    8  0.012  0.003  0.004  0.018
    9  0.000  0.002  0.006  0.008
   10  0.012  0.002  0.003  0.017
   11  0.007  0.002  0.010  0.019
   12  0.003  0.001  0.012  0.016
   13  0.007  0.002  0.010  0.019
   14  0.028  0.002  0.003  0.033
   15  0.001  0.004  0.006  0.010
   16  0.003  0.001  0.012  0.016
   17  0.001  0.004  0.006  0.010
   18  0.003  0.000  0.006  0.009
   19  0.000  0.000  0.005  0.005
   20  0.002  0.005  0.004  0.011
   21  0.001  0.002  0.027  0.030
   22  0.000  0.001  0.004  0.005
   23  0.001  0.002  0.028  0.030
   24  0.001  0.003  0.008  0.013
   25  0.001  0.000  0.004  0.004
   26  0.000  0.000  0.005  0.005
   27  0.000  0.001  0.004  0.005
   28  0.000  0.000  0.001  0.001
   29  0.000  0.001  0.009  0.010
   30  0.002  0.000  0.002  0.005
   31  0.000  0.001  0.009  0.010
   32  0.003  0.002  0.009  0.014
   33  0.002  0.000  0.002  0.005
   34  0.003  0.002  0.008  0.013
   35  0.000  0.001  0.001  0.001
   36  0.000  0.000  0.279  0.279
   37  0.000  0.070  0.000  0.070
tot    0.124  0.128  0.515  0.766
 
band    14 # energy   -5.00015043 # occ.  2.00000000
 
ion      s      p      d    tot
    1  0.000  0.005  0.009  0.014
    2  0.009  0.003  0.005  0.017
    3  0.019  0.004  0.005  0.028
    4  0.009  0.003  0.005  0.017
    5  0.000  0.000  0.010  0.010
    6  0.002  0.002  0.005  0.008
    7  0.019  0.004  0.005  0.027
    8  0.002  0.002  0.005  0.008
    9  0.000  0.003  0.009  0.012
   10  0.020  0.002  0.006  0.028
   11  0.000  0.003  0.012  0.015
   12  0.005  0.003  0.015  0.023
   13  0.000  0.003  0.012  0.015
   14  0.000  0.000  0.007  0.008
   15  0.006  0.001  0.016  0.022
   16  0.005  0.003  0.015  0.023
   17  0.006  0.001  0.015  0.023
   18  0.023  0.004  0.005  0.032
   19  0.002  0.002  0.014  0.018
   20  0.003  0.003  0.010  0.016
   21  0.001  0.002  0.009  0.012
   22  0.001  0.002  0.020  0.023
   23  0.001  0.002  0.009  0.012
   24  0.005  0.001  0.002  0.009
   25  0.010  0.006  0.006  0.022
   26  0.002  0.002  0.014  0.018
   27  0.001  0.002  0.020  0.023
   28  0.000  0.005  0.005  0.010
   29  0.009  0.003  0.008  0.020
   30  0.024  0.002  0.008  0.034
   31  0.008  0.003  0.008  0.020
   32  0.004  0.002  0.009  0.015
   33  0.024  0.002  0.008  0.034
   34  0.004  0.002  0.009  0.015
   35  0.000  0.004  0.008  0.012
   36  0.000  0.000  0.073  0.073
   37  0.000  0.002  0.000  0.002
tot    0.225  0.091  0.398  0.715
 
band    15 # energy   -5.00006648 # occ.  2.00000000
 
ion      s      p      d    tot
    1  0.000  0.005  0.009  0.014
    2  0.011  0.003  0.005  0.018
    3  0.001  0.002  0.005  0.007
    4  0.011  0.003  0.005  0.018
    5  0.000  0.000  0.010  0.010
    6  0.018  0.004  0.005  0.027
    7  0.001  0.002  0.005  0.007
    8  0.018  0.004  0.005  0.027
    9  0.000  0.003  0.009  0.012
   10  0.000  0.004  0.018  0.021
   11  0.000  0.001  0.009  0.010
   12  0.015  0.003  0.009  0.026
   13  0.000  0.001  0.009  0.010
   14  0.000  0.004  0.014  0.018
   15  0.018  0.003  0.008  0.029
   16  0.015  0.003  0.009  0.026
   17  0.017  0.003  0.008  0.029
   18  0.000  0.000  0.019  0.019
   19  0.007  0.005  0.008  0.020
   20  0.000  0.002  0.009  0.010
   21  0.002  0.002  0.010  0.014
   22  0.004  0.001  0.008  0.013
   23  0.002  0.002  0.010  0.015
   24  0.000  0.002  0.026  0.027
   25  0.000  0.000  0.016  0.016
   26  0.007  0.005  0.008  0.020
   27  0.004  0.001  0.008  0.013
   28  0.000  0.005  0.005  0.010
   29  0.016  0.002  0.008  0.026
   30  0.000  0.002  0.009  0.011
   31  0.016  0.002  0.008  0.026
   32  0.021  0.003  0.008  0.031
   33  0.000  0.002  0.009  0.011
   34  0.021  0.003  0.008  0.031
   35  0.000  0.004  0.008  0.012
   36  0.000  0.000  0.073  0.073
   37  0.000  0.002  0.000  0.002
tot    0.225  0.091  0.398  0.715
 
band    16 # energy   -4.92027761 # occ.  2.00000000
 
ion      s      p      d    tot
    1  0.033  0.003  0.000  0.037
    2  0.000  0.003  0.010  0.013
    3  0.000  0.003  0.010  0.013
    4  0.000  0.003  0.010  0.013
    5  0.000  0.000  0.000  0.000
    6  0.000  0.003  0.010  0.013
    7  0.000  0.003  0.010  0.013
    8  0.000  0.003  0.010  0.013
    9  0.031  0.004  0.001  0.035
   10  0.009  0.004  0.010  0.023
   11  0.001  0.000  0.015  0.016
   12  0.009  0.004  0.010  0.023
   13  0.001  0.000  0.015  0.016
   14  0.001  0.000  0.015  0.016
   15  0.007  0.004  0.017  0.028
   16  0.009  0.004  0.010  0.023
   17  0.007  0.004  0.017  0.028
   18  0.007  0.004  0.017  0.028
   19  0.005  0.003  0.019  0.027
   20  0.000  0.000  0.015  0.015
   21  0.000  0.000  0.015  0.015
   22  0.011  0.004  0.010  0.025
   23  0.000  0.000  0.015  0.015
   24  0.011  0.004  0.010  0.025
   25  0.005  0.003  0.018  0.027
   26  0.005  0.003  0.019  0.027
   27  0.011  0.004  0.010  0.025
   28  0.036  0.003  0.000  0.039
   29  0.000  0.003  0.010  0.013
   30  0.000  0.003  0.010  0.013
   31  0.000  0.003  0.010  0.013
   32  0.000  0.003  0.010  0.013
   33  0.000  0.003  0.010  0.013
   34  0.000  0.003  0.010  0.013
   35  0.029  0.004  0.001  0.034
   36  0.000  0.000  0.000  0.000
   37  0.000  0.000  0.000  0.000
tot    0.229  0.094  0.382  0.705
 
band    17 # energy   -4.83397709 # occ.  2.00000000
 
ion      s      p      d    tot
    1  0.008  0.002  0.001  0.011
    2  0.000  0.003  0.010  0.013
    3  0.000  0.003  0.010  0.013
    4  0.000  0.003  0.010  0.013
    5  0.045  0.003  0.000  0.048
    6  0.000  0.003  0.010  0.013
    7  0.000  0.003  0.010  0.013
    8  0.000  0.003  0.010  0.013
    9  0.003  0.001  0.002  0.007
   10  0.003  0.001  0.021  0.025
   11  0.003  0.004  0.017  0.024
   12  0.003  0.001  0.021  0.025
   13  0.003  0.004  0.017  0.024
   14  0.003  0.004  0.017  0.024
   15  0.007  0.001  0.013  0.020
   16  0.003  0.001  0.021  0.025
   17  0.007  0.001  0.013  0.020
   18  0.007  0.001  0.013  0.020
   19  0.012  0.001  0.018  0.031
   20  0.005  0.004  0.015  0.024
   21  0.005  0.004  0.015  0.024
   22  0.003  0.001  0.019  0.024
   23  0.005  0.004  0.015  0.024
   24  0.003  0.001  0.019  0.024
   25  0.012  0.001  0.018  0.031
   26  0.012  0.001  0.018  0.031
   27  0.003  0.001  0.019  0.024
   28  0.002  0.002  0.006  0.010
   29  0.002  0.002  0.010  0.014
   30  0.002  0.002  0.010  0.014
   31  0.002  0.002  0.010  0.014
   32  0.002  0.002  0.010  0.014
   33  0.002  0.002  0.010  0.014
   34  0.002  0.002  0.010  0.014
   35  0.002  0.001  0.003  0.006
   36  0.046  0.006  0.000  0.052
   37  0.003  0.005  0.000  0.008
tot    0.221  0.083  0.444  0.748
 
band    18 # energy   -4.77511257 # occ.  2.00000000
 
ion      s      p      d    tot
    1  0.000  0.000  0.005  0.005
    2  0.006  0.001  0.002  0.010
    3  0.000  0.001  0.002  0.003
    4  0.006  0.001  0.002  0.009
    5  0.000  0.002  0.003  0.005
    6  0.007  0.001  0.002  0.011
    7  0.000  0.001  0.002  0.003
    8  0.007  0.001  0.002  0.011
    9  0.000  0.001  0.006  0.007
   10  0.002  0.002  0.005  0.008
   11  0.001  0.001  0.011  0.013
   12  0.000  0.001  0.004  0.005
   13  0.001  0.001  0.011  0.013
   14  0.005  0.003  0.003  0.011
   15  0.000  0.001  0.012  0.013
   16  0.001  0.001  0.004  0.005
   17  0.000  0.001  0.012  0.013
   18  0.001  0.000  0.003  0.004
   19  0.001  0.004  0.014  0.018
   20  0.010  0.003  0.018  0.031
   21  0.002  0.001  0.007  0.011
   22  0.003  0.001  0.013  0.017
   23  0.003  0.001  0.008  0.011
   24  0.011  0.002  0.004  0.017
   25  0.002  0.000  0.006  0.008
   26  0.000  0.004  0.014  0.019
   27  0.003  0.001  0.013  0.017
   28  0.000  0.002  0.015  0.017
   29  0.020  0.002  0.006  0.029
   30  0.000  0.002  0.005  0.007
   31  0.020  0.002  0.006  0.028
   32  0.019  0.002  0.006  0.027
   33  0.000  0.002  0.005  0.007
   34  0.020  0.002  0.006  0.028
   35  0.000  0.002  0.014  0.016
   36  0.000  0.020  0.160  0.180
   37  0.000  0.091  0.000  0.091
tot    0.153  0.163  0.414  0.730
 
band    19 # energy   -4.77507056 # occ.  2.00000000
 
ion      s      p      d    tot
    1  0.000  0.000  0.005  0.005
    2  0.003  0.001  0.002  0.006
    3  0.009  0.001  0.002  0.013
    4  0.003  0.001  0.002  0.006
    5  0.000  0.002  0.003  0.005
    6  0.002  0.001  0.002  0.005
    7  0.009  0.001  0.002  0.013
    8  0.001  0.001  0.002  0.005
    9  0.000  0.001  0.006  0.007
   10  0.000  0.001  0.003  0.004
   11  0.004  0.002  0.006  0.012
   12  0.001  0.001  0.005  0.007
   13  0.004  0.002  0.006  0.012
   14  0.000  0.000  0.014  0.014
   15  0.001  0.000  0.006  0.007
   16  0.001  0.001  0.004  0.007
   17  0.001  0.000  0.006  0.007
   18  0.000  0.001  0.015  0.016
   19  0.001  0.001  0.009  0.012
   20  0.000  0.000  0.004  0.004
   21  0.008  0.002  0.015  0.025
   22  0.009  0.002  0.006  0.017
   23  0.008  0.002  0.014  0.024
   24  0.000  0.001  0.016  0.017
   25  0.000  0.005  0.017  0.022
   26  0.001  0.001  0.009  0.011
   27  0.008  0.002  0.007  0.017
   28  0.000  0.002  0.015  0.017
   29  0.006  0.002  0.005  0.013
   30  0.026  0.002  0.007  0.035
   31  0.006  0.002  0.005  0.014
   32  0.007  0.002  0.006  0.015
   33  0.026  0.002  0.007  0.035
   34  0.007  0.002  0.006  0.014
   35  0.000  0.002  0.014  0.016
   36  0.000  0.020  0.160  0.180
   37  0.000  0.091  0.000  0.091
tot    0.153  0.163  0.414  0.730
 
band    20 # energy   -4.60858052 # occ.  2.00000000
 
ion      s      p      d    tot
    1  0.003  0.000  0.001  0.004
    2  0.000  0.000  0.002  0.003
    3  0.000  0.000  0.002  0.003
    4  0.000  0.000  0.002  0.003
    5  0.001  0.001  0.002  0.004
    6  0.000  0.000  0.002  0.003
    7  0.000  0.000  0.002  0.003
    8  0.000  0.000  0.002  0.003
    9  0.001  0.000  0.001  0.003
   10  0.001  0.000  0.009  0.009
   11  0.002  0.001  0.011  0.014
   12  0.001  0.000  0.009  0.009
   13  0.002  0.001  0.011  0.014
   14  0.002  0.001  0.011  0.014
   15  0.000  0.000  0.008  0.008
   16  0.001  0.000  0.009  0.009
   17  0.000  0.000  0.008  0.008
   18  0.000  0.000  0.008  0.008
   19  0.001  0.000  0.015  0.017
   20  0.007  0.000  0.014  0.021
   21  0.007  0.000  0.014  0.021
   22  0.001  0.002  0.029  0.032
   23  0.007  0.000  0.014  0.021
   24  0.001  0.002  0.029  0.032
   25  0.001  0.000  0.015  0.017
   26  0.001  0.000  0.015  0.017
   27  0.001  0.002  0.029  0.032
   28  0.011  0.000  0.007  0.018
   29  0.002  0.003  0.017  0.022
   30  0.002  0.003  0.017  0.022
   31  0.002  0.003  0.017  0.022
   32  0.002  0.003  0.017  0.022
   33  0.002  0.003  0.017  0.022
   34  0.002  0.003  0.017  0.022
   35  0.033  0.000  0.009  0.041
   36  0.002  0.002  0.186  0.190
   37  0.017  0.096  0.000  0.113
tot    0.120  0.128  0.578  0.826
 
band    21 # energy   -4.39646064 # occ.  2.00000000
 
ion      s      p      d    tot
    1  0.000  0.001  0.022  0.023
    2  0.014  0.001  0.006  0.022
    3  0.005  0.001  0.006  0.013
    4  0.014  0.001  0.006  0.022
    5  0.000  0.001  0.011  0.012
    6  0.002  0.001  0.006  0.009
    7  0.005  0.001  0.006  0.012
    8  0.002  0.001  0.006  0.009
    9  0.000  0.003  0.003  0.006
   10  0.000  0.000  0.055  0.055
   11  0.000  0.003  0.014  0.016
   12  0.000  0.000  0.017  0.018
   13  0.000  0.003  0.014  0.016
   14  0.000  0.000  0.003  0.003
   15  0.000  0.005  0.014  0.019
   16  0.000  0.000  0.017  0.017
   17  0.000  0.005  0.014  0.019
   18  0.000  0.000  0.024  0.024
   19  0.008  0.002  0.011  0.020
   20  0.000  0.000  0.053  0.053
   21  0.000  0.000  0.025  0.026
   22  0.003  0.002  0.015  0.019
   23  0.000  0.000  0.025  0.026
   24  0.000  0.001  0.007  0.008
   25  0.000  0.000  0.022  0.022
   26  0.008  0.002  0.011  0.020
   27  0.003  0.002  0.015  0.019
   28  0.000  0.000  0.007  0.007
   29  0.007  0.001  0.020  0.028
   30  0.000  0.001  0.016  0.017
   31  0.008  0.001  0.020  0.028
   32  0.006  0.000  0.019  0.026
   33  0.000  0.001  0.016  0.017
   34  0.006  0.000  0.019  0.026
   35  0.000  0.001  0.002  0.003
   36  0.000  0.000  0.138  0.138