PROCAR new format
# of k-points:   10         # of bands:  252         # of ions:   39

 k-point     1 :    0.00000000 0.00000000 0.00000000     weight = 0.01562500

band     1 # energy  -24.10285657 # occ.  2.00000000
 
ion      s      p      d    tot
    1  0.000  0.000  0.000  0.000
    2  0.000  0.000  0.000  0.000
    3  0.000  0.000  0.000  0.000
    4  0.000  0.000  0.000  0.000
    5  0.000  0.000  0.000  0.000
    6  0.000  0.000  0.000  0.000
    7  0.000  0.000  0.000  0.000
    8  0.000  0.000  0.000  0.000
    9  0.000  0.000  0.000  0.000
   10  0.000  0.000  0.000  0.000
   11  0.000  0.000  0.000  0.000
   12  0.000  0.000  0.000  0.000
   13  0.000  0.000  0.000  0.000
   14  0.000  0.000  0.000  0.000
   15  0.000  0.000  0.000  0.000
   16  0.000  0.000  0.000  0.000
   17  0.000  0.000  0.000  0.000
   18  0.000  0.000  0.000  0.000
   19  0.000  0.000  0.000  0.000
   20  0.000  0.000  0.000  0.000
   21  0.000  0.000  0.000  0.000
   22  0.000  0.000  0.000  0.000
   23  0.000  0.000  0.000  0.000
   24  0.000  0.000  0.000  0.000
   25  0.000  0.000  0.000  0.000
   26  0.000  0.000  0.000  0.000
   27  0.000  0.000  0.000  0.000
   28  0.000  0.000  0.000  0.000
   29  0.000  0.000  0.000  0.000
   30  0.000  0.000  0.000  0.000
   31  0.000  0.000  0.000  0.000
   32  0.000  0.000  0.000  0.000
   33  0.000  0.000  0.000  0.000
   34  0.000  0.000  0.000  0.000
   35  0.000  0.000  0.000  0.000
   36  0.000  0.000  0.000  0.000
   37  0.079  0.057  0.000  0.136
   38  0.724  0.007  0.000  0.731
   39  0.061  0.013  0.000  0.074
tot    0.864  0.078  0.000  0.941
 
band     2 # energy  -14.81629818 # occ.  2.00000000
 
ion      s      p      d    tot
    1  0.000  0.000  0.000  0.000
    2  0.000  0.000  0.000  0.000
    3  0.000  0.000  0.000  0.000
    4  0.000  0.000  0.000  0.000
    5  0.000  0.000  0.000  0.000
    6  0.000  0.000  0.000  0.000
    7  0.000  0.000  0.000  0.000
    8  0.000  0.000  0.000  0.000
    9  0.000  0.000  0.000  0.000
   10  0.000  0.000  0.000  0.000
   11  0.000  0.000  0.000  0.000
   12  0.000  0.000  0.000  0.000
   13  0.000  0.000  0.000  0.000
   14  0.000  0.000  0.000  0.000
   15  0.000  0.000  0.000  0.000
   16  0.000  0.000  0.000  0.000
   17  0.000  0.000  0.000  0.000
   18  0.000  0.000  0.000  0.000
   19  0.000  0.000  0.000  0.000
   20  0.000  0.000  0.000  0.000
   21  0.000  0.000  0.000  0.000
   22  0.000  0.000  0.000  0.000
   23  0.000  0.000  0.000  0.000
   24  0.000  0.000  0.000  0.000
   25  0.000  0.000  0.000  0.000
   26  0.000  0.000  0.000  0.000
   27  0.000  0.000  0.000  0.000
   28  0.000  0.000  0.000  0.000
   29  0.000  0.000  0.000  0.000
   30  0.000  0.000  0.000  0.000
   31  0.000  0.000  0.000  0.000
   32  0.000  0.000  0.000  0.000
   33  0.000  0.000  0.000  0.000
   34  0.000  0.000  0.000  0.000
   35  0.000  0.000  0.000  0.000
   36  0.004  0.003  0.005  0.012
   37  0.163  0.046  0.000  0.210
   38  0.019  0.517  0.000  0.536
   39  0.201  0.032  0.000  0.233
tot    0.386  0.599  0.005  0.990
 
band     3 # energy   -8.43677373 # occ.  2.00000000
 
ion      s      p      d    tot
    1  0.000  0.000  0.000  0.000
    2  0.000  0.000  0.000  0.000
    3  0.000  0.000  0.000  0.000
    4  0.000  0.000  0.000  0.000
    5  0.000  0.000  0.000  0.000
    6  0.000  0.000  0.000  0.000
    7  0.000  0.000  0.000  0.000
    8  0.000  0.000  0.000  0.000
    9  0.000  0.000  0.000  0.000
   10  0.000  0.000  0.000  0.000
   11  0.000  0.000  0.000  0.000
   12  0.000  0.000  0.000  0.000
   13  0.000  0.000  0.000  0.000
   14  0.000  0.000  0.000  0.000
   15  0.000  0.000  0.000  0.000
   16  0.000  0.000  0.000  0.000
   17  0.000  0.000  0.000  0.000
   18  0.000  0.000  0.000  0.000
   19  0.000  0.000  0.000  0.000
   20  0.004  0.001  0.005  0.010
   21  0.004  0.001  0.005  0.010
   22  0.000  0.000  0.000  0.000
   23  0.004  0.001  0.005  0.010
   24  0.000  0.000  0.000  0.000
   25  0.000  0.000  0.000  0.000
   26  0.000  0.000  0.000  0.000
   27  0.000  0.000  0.000  0.000
   28  0.000  0.000  0.000  0.000
   29  0.001  0.000  0.001  0.003
   30  0.001  0.000  0.001  0.003
   31  0.001  0.000  0.001  0.003
   32  0.001  0.000  0.001  0.003
   33  0.001  0.000  0.001  0.003
   34  0.001  0.000  0.001  0.003
   35  0.000  0.000  0.000  0.000
   36  0.160  0.053  0.250  0.463
   37  0.175  0.182  0.000  0.357
   38  0.011  0.053  0.000  0.063
   39  0.015  0.001  0.000  0.016
tot    0.382  0.295  0.271  0.948
 
band     4 # energy   -6.93900317 # occ.  2.00000000
 
ion      s      p      d    tot
    1  0.000  0.000  0.000  0.000
    2  0.000  0.000  0.000  0.000
    3  0.000  0.000  0.000  0.000
    4  0.000  0.000  0.000  0.000
    5  0.000  0.000  0.000  0.000
    6  0.000  0.000  0.000  0.000
    7  0.000  0.000  0.000  0.000
    8  0.000  0.000  0.000  0.000
    9  0.000  0.000  0.000  0.000
   10  0.000  0.000  0.000  0.000
   11  0.000  0.000  0.000  0.000
   12  0.000  0.000  0.000  0.000
   13  0.000  0.000  0.000  0.000
   14  0.000  0.000  0.000  0.000
   15  0.000  0.000  0.000  0.000
   16  0.000  0.000  0.000  0.000
   17  0.000  0.000  0.000  0.000
   18  0.000  0.000  0.000  0.000
   19  0.000  0.000  0.000  0.000
   20  0.000  0.000  0.000  0.001
   21  0.000  0.000  0.000  0.000
   22  0.000  0.000  0.000  0.000
   23  0.000  0.000  0.000  0.000
   24  0.000  0.000  0.000  0.000
   25  0.000  0.000  0.000  0.000
   26  0.000  0.000  0.000  0.000
   27  0.000  0.000  0.000  0.000
   28  0.000  0.000  0.000  0.000
   29  0.000  0.000  0.001  0.002
   30  0.000  0.000  0.000  0.000
   31  0.000  0.000  0.001  0.002
   32  0.000  0.000  0.001  0.002
   33  0.000  0.000  0.000  0.000
   34  0.000  0.000  0.001  0.002
   35  0.000  0.000  0.000  0.000
   36  0.000  0.003  0.028  0.030
   37  0.000  0.121  0.000  0.121
   38  0.000  0.513  0.000  0.513
   39  0.000  0.007  0.000  0.007
tot    0.002  0.645  0.034  0.681
 
band     5 # energy   -6.93881611 # occ.  2.00000000
 
ion      s      p      d    tot
    1  0.000  0.000  0.000  0.000
    2  0.000  0.000  0.000  0.000
    3  0.000  0.000  0.000  0.000
    4  0.000  0.000  0.000  0.000
    5  0.000  0.000  0.000  0.000
    6  0.000  0.000  0.000  0.000
    7  0.000  0.000  0.000  0.000
    8  0.000  0.000  0.000  0.000
    9  0.000  0.000  0.000  0.000
   10  0.000  0.000  0.000  0.000
   11  0.000  0.000  0.000  0.000
   12  0.000  0.000  0.000  0.000
   13  0.000  0.000  0.000  0.000
   14  0.000  0.000  0.000  0.000
   15  0.000  0.000  0.000  0.000
   16  0.000  0.000  0.000  0.000
   17  0.000  0.000  0.000  0.000
   18  0.000  0.000  0.000  0.000
   19  0.000  0.000  0.000  0.000
   20  0.000  0.000  0.000  0.000
   21  0.000  0.000  0.000  0.001
   22  0.000  0.000  0.000  0.000
   23  0.000  0.000  0.000  0.001
   24  0.000  0.000  0.000  0.000
   25  0.000  0.000  0.000  0.000
   26  0.000  0.000  0.000  0.000
   27  0.000  0.000  0.000  0.000
   28  0.000  0.000  0.000  0.000
   29  0.000  0.000  0.001  0.001
   30  0.000  0.000  0.002  0.002
   31  0.000  0.000  0.001  0.001
   32  0.000  0.000  0.001  0.001
   33  0.000  0.000  0.002  0.002
   34  0.000  0.000  0.001  0.001
   35  0.000  0.000  0.000  0.000
   36  0.000  0.003  0.028  0.030
   37  0.000  0.121  0.000  0.121
   38  0.000  0.513  0.000  0.513
   39  0.000  0.007  0.000  0.007
tot    0.002  0.645  0.034  0.681
 
band     6 # energy   -6.57327582 # occ.  2.00000000
 
ion      s      p      d    tot
    1  0.007  0.001  0.000  0.007
    2  0.006  0.001  0.000  0.007
    3  0.006  0.001  0.000  0.007
    4  0.006  0.001  0.000  0.007
    5  0.006  0.001  0.000  0.007
    6  0.006  0.001  0.000  0.007
    7  0.006  0.001  0.000  0.007
    8  0.006  0.001  0.000  0.007
    9  0.007  0.001  0.000  0.007
   10  0.024  0.000  0.000  0.025
   11  0.025  0.000  0.000  0.025
   12  0.024  0.000  0.000  0.025
   13  0.025  0.000  0.000  0.025
   14  0.025  0.000  0.000  0.025
   15  0.024  0.000  0.000  0.025
   16  0.024  0.000  0.000  0.025
   17  0.024  0.000  0.000  0.025
   18  0.024  0.000  0.000  0.025
   19  0.021  0.000  0.000  0.021
   20  0.022  0.000  0.000  0.022
   21  0.022  0.000  0.000  0.022
   22  0.022  0.000  0.000  0.022
   23  0.022  0.000  0.000  0.022
   24  0.022  0.000  0.000  0.022
   25  0.021  0.000  0.000  0.021
   26  0.021  0.000  0.000  0.021
   27  0.022  0.000  0.000  0.022
   28  0.005  0.001  0.000  0.005
   29  0.004  0.001  0.000  0.005
   30  0.004  0.001  0.000  0.005
   31  0.004  0.001  0.000  0.005
   32  0.004  0.001  0.000  0.005
   33  0.004  0.001  0.000  0.005
   34  0.004  0.001  0.000  0.005
   35  0.005  0.001  0.000  0.005
   36  0.001  0.006  0.010  0.017
   37  0.005  0.004  0.000  0.009
   38  0.000  0.001  0.000  0.001
   39  0.000  0.000  0.000  0.000
tot    0.514  0.023  0.018  0.555
 
band     7 # energy   -5.71214347 # occ.  2.00000000
 
ion      s      p      d    tot
    1  0.008  0.000  0.000  0.009
    2  0.008  0.000  0.000  0.008
    3  0.008  0.000  0.000  0.008
    4  0.008  0.000  0.000  0.008
    5  0.007  0.000  0.000  0.008
    6  0.008  0.000  0.000  0.008
    7  0.008  0.000  0.000  0.008
    8  0.008  0.000  0.000  0.008
    9  0.008  0.000  0.000  0.008
   10  0.011  0.001  0.014  0.026
   11  0.009  0.001  0.016  0.026
   12  0.011  0.001  0.014  0.026
   13  0.009  0.001  0.016  0.026
   14  0.009  0.001  0.016  0.026
   15  0.009  0.001  0.014  0.025
   16  0.011  0.001  0.014  0.026
   17  0.009  0.001  0.014  0.025
   18  0.009  0.001  0.014  0.025
   19  0.012  0.001  0.016  0.029
   20  0.012  0.001  0.018  0.031
   21  0.012  0.001  0.018  0.031
   22  0.014  0.001  0.017  0.031
   23  0.012  0.001  0.018  0.031
   24  0.014  0.001  0.017  0.031
   25  0.012  0.001  0.016  0.029
   26  0.012  0.001  0.016  0.029
   27  0.014  0.001  0.017  0.031
   28  0.007  0.000  0.000  0.008
   29  0.007  0.001  0.000  0.007
   30  0.007  0.001  0.000  0.007
   31  0.007  0.001  0.000  0.007
   32  0.007  0.001  0.000  0.007
   33  0.007  0.001  0.000  0.007
   34  0.007  0.001  0.000  0.007
   35  0.007  0.000  0.000  0.008
   36  0.003  0.004  0.009  0.015
   37  0.003  0.002  0.000  0.005
   38  0.000  0.000  0.000  0.000
   39  0.000  0.000  0.000  0.000
tot    0.334  0.030  0.298  0.662
 
band     8 # energy   -5.47067022 # occ.  2.00000000
 
ion      s      p      d    tot
    1  0.011  0.000  0.024  0.035
    2  0.012  0.000  0.017  0.029
    3  0.012  0.000  0.017  0.029
    4  0.012  0.000  0.017  0.029
    5  0.010  0.000  0.014  0.024
    6  0.012  0.000  0.017  0.029
    7  0.012  0.000  0.017  0.029
    8  0.012  0.000  0.017  0.029
    9  0.014  0.000  0.016  0.029
   10  0.000  0.000  0.025  0.025
   11  0.001  0.000  0.015  0.016
   12  0.000  0.000  0.025  0.025
   13  0.001  0.000  0.015  0.016
   14  0.001  0.000  0.015  0.016
   15  0.000  0.000  0.014  0.015
   16  0.000  0.000  0.025  0.025
   17  0.000  0.000  0.014  0.015
   18  0.000  0.000  0.014  0.015
   19  0.001  0.000  0.010  0.011
   20  0.000  0.000  0.031  0.031
   21  0.000  0.000  0.031  0.031
   22  0.000  0.000  0.010  0.010
   23  0.000  0.000  0.031  0.031
   24  0.000  0.000  0.010  0.010
   25  0.001  0.000  0.010  0.011
   26  0.001  0.000  0.010  0.011
   27  0.000  0.000  0.010  0.010
   28  0.005  0.000  0.009  0.014
   29  0.008  0.000  0.012  0.020
   30  0.008  0.000  0.012  0.020
   31  0.008  0.000  0.012  0.020
   32  0.008  0.000  0.012  0.020
   33  0.008  0.000  0.012  0.020
   34  0.008  0.000  0.012  0.020
   35  0.007  0.000  0.008  0.015
   36  0.012  0.000  0.024  0.036
   37  0.001  0.001  0.000  0.002
   38  0.000  0.000  0.000  0.000
   39  0.000  0.000  0.000  0.000
tot    0.186  0.008  0.582  0.775
 
band     9 # energy   -5.33077570 # occ.  2.00000000
 
ion      s      p      d    tot
    1  0.006  0.001  0.004  0.011
    2  0.000  0.000  0.005  0.006
    3  0.000  0.000  0.005  0.006
    4  0.000  0.000  0.005  0.006
    5  0.001  0.000  0.003  0.004
    6  0.000  0.000  0.005  0.006
    7  0.000  0.000  0.005  0.006
    8  0.000  0.000  0.005  0.006
    9  0.002  0.001  0.009  0.012
   10  0.003  0.000  0.079  0.082
   11  0.002  0.001  0.022  0.025
   12  0.002  0.000  0.079  0.082
   13  0.002  0.001  0.022  0.025
   14  0.002  0.001  0.021  0.024
   15  0.017  0.001  0.017  0.034
   16  0.002  0.000  0.079  0.082
   17  0.017  0.001  0.017  0.034
   18  0.017  0.001  0.017  0.035
   19  0.001  0.000  0.030  0.031
   20  0.010  0.000  0.030  0.040
   21  0.009  0.000  0.030  0.040
   22  0.006  0.001  0.003  0.010
   23  0.009  0.000  0.030  0.040
   24  0.007  0.001  0.003  0.010
   25  0.001  0.000  0.029  0.030
   26  0.001  0.000  0.030  0.031
   27  0.006  0.001  0.003  0.010
   28  0.002  0.000  0.002  0.004
   29  0.000  0.000  0.008  0.008
   30  0.000  0.000  0.008  0.008
   31  0.000  0.000  0.008  0.008
   32  0.000  0.000  0.008  0.008
   33  0.000  0.000  0.008  0.008
   34  0.000  0.000  0.008  0.008
   35  0.001  0.000  0.000  0.001
   36  0.006  0.007  0.005  0.018
   37  0.003  0.002  0.000  0.005
   38  0.000  0.000  0.000  0.001
   39  0.000  0.000  0.000  0.000
tot    0.138  0.025  0.645  0.808
 
band    10 # energy   -5.32856188 # occ.  2.00000000
 
ion      s      p      d    tot
    1  0.000  0.000  0.011  0.011
    2  0.001  0.000  0.003  0.004
    3  0.000  0.000  0.003  0.004
    4  0.001  0.000  0.003  0.004
    5  0.000  0.000  0.005  0.005
    6  0.002  0.000  0.004  0.007
    7  0.000  0.000  0.003  0.004
    8  0.002  0.000  0.004  0.007
    9  0.000  0.000  0.001  0.001
   10  0.020  0.001  0.008  0.029
   11  0.003  0.001  0.023  0.027
   12  0.005  0.000  0.040  0.046
   13  0.003  0.001  0.023  0.027
   14  0.013  0.000  0.027  0.040
   15  0.000  0.000  0.026  0.027
   16  0.005  0.000  0.041  0.046
   17  0.000  0.000  0.026  0.027
   18  0.001  0.000  0.014  0.016
   19  0.003  0.001  0.014  0.019
   20  0.033  0.001  0.009  0.043
   21  0.009  0.001  0.074  0.083
   22  0.001  0.000  0.049  0.050
   23  0.009  0.001  0.074  0.084
   24  0.003  0.001  0.016  0.019
   25  0.013  0.000  0.035  0.048
   26  0.003  0.001  0.015  0.019
   27  0.001  0.000  0.049  0.050
   28  0.000  0.000  0.002  0.002
   29  0.001  0.001  0.004  0.006
   30  0.001  0.000  0.006  0.007
   31  0.001  0.001  0.004  0.006
   32  0.000  0.000  0.003  0.003
   33  0.001  0.000  0.006  0.007
   34  0.000  0.000  0.003  0.003
   35  0.000  0.000  0.002  0.002
   36  0.000  0.001  0.008  0.009
   37  0.000  0.000  0.000  0.000
   38  0.000  0.002  0.000  0.002
   39  0.000  0.000  0.000  0.000
tot    0.137  0.020  0.639  0.796
 
band    11 # energy   -5.32855018 # occ.  2.00000000
 
ion      s      p      d    tot
    1  0.000  0.000  0.011  0.012
    2  0.001  0.000  0.004  0.005
    3  0.002  0.000  0.004  0.006
    4  0.001  0.000  0.004  0.005
    5  0.000  0.000  0.005  0.005
    6  0.000  0.000  0.003  0.003
    7  0.002  0.000  0.004  0.006
    8  0.000  0.000  0.003  0.003
    9  0.000  0.000  0.001  0.001
   10  0.000  0.000  0.051  0.052
   11  0.009  0.001  0.026  0.036
   12  0.015  0.001  0.019  0.035
   13  0.009  0.001  0.026  0.036
   14  0.000  0.002  0.021  0.023
   15  0.001  0.000  0.018  0.019
   16  0.015  0.001  0.019  0.035
   17  0.001  0.000  0.018  0.019
   18  0.000  0.000  0.030  0.030
   19  0.010  0.001  0.028  0.038
   20  0.000  0.001  0.096  0.097
   21  0.025  0.001  0.030  0.057
   22  0.002  0.000  0.027  0.030
   23  0.026  0.001  0.030  0.056
   24  0.000  0.001  0.060  0.060
   25  0.000  0.002  0.009  0.011
   26  0.010  0.001  0.027  0.038
   27  0.002  0.000  0.027  0.030
   28  0.000  0.000  0.002  0.002
   29  0.000  0.000  0.004  0.005
   30  0.001  0.000  0.003  0.004
   31  0.000  0.000  0.004  0.005
   32  0.002  0.001  0.005  0.008
   33  0.001  0.000  0.003  0.004
   34  0.002  0.001  0.005  0.008
   35  0.000  0.000  0.002  0.002
   36  0.000  0.001  0.008  0.009
   37  0.000  0.000  0.000  0.000
   38  0.000  0.002  0.000  0.002
   39  0.000  0.000  0.000  0.000
tot    0.137  0.020  0.639  0.796
 
band    12 # energy   -5.32723817 # occ.  2.00000000
 
ion      s      p      d    tot
    1  0.004  0.000  0.005  0.009
    2  0.004  0.000  0.014  0.018
    3  0.005  0.000  0.014  0.018
    4  0.004  0.000  0.014  0.019
    5  0.009  0.000  0.019  0.028
    6  0.005  0.000  0.014  0.018
    7  0.005  0.000  0.014  0.018
    8  0.005  0.000  0.014  0.018
    9  0.002  0.000  0.011  0.013
   10  0.001  0.001  0.001  0.003
   11  0.001  0.000  0.033  0.035
   12  0.001  0.001  0.001  0.003
   13  0.001  0.000  0.033  0.035
   14  0.001  0.000  0.034  0.036
   15  0.001  0.000  0.021  0.022
   16  0.001  0.001  0.001  0.003
   17  0.001  0.000  0.021  0.022
   18  0.001  0.000  0.021  0.021
   19  0.006  0.000  0.012  0.018
   20  0.002  0.000  0.075  0.078
   21  0.002  0.000  0.077  0.079
   22  0.002  0.000  0.020  0.023
   23  0.002  0.000  0.077  0.079
   24  0.003  0.000  0.021  0.024
   25  0.006  0.000  0.011  0.017
   26  0.006  0.000  0.012  0.018
   27  0.002  0.000  0.020  0.023
   28  0.000  0.000  0.004  0.004
   29  0.002  0.000  0.011  0.014
   30  0.003  0.000  0.011  0.014
   31  0.003  0.000  0.011  0.014
   32  0.003  0.000  0.011  0.014
   33  0.003  0.000  0.011  0.014
   34  0.003  0.000  0.011  0.014
   35  0.004  0.000  0.000  0.004
   36  0.009  0.000  0.016  0.025
   37  0.000  0.000  0.000  0.000
   38  0.000  0.000  0.000  0.000
   39  0.000  0.000  0.000  0.000
tot    0.111  0.009  0.694  0.814
 
band    13 # energy   -5.31835074 # occ.  2.00000000
 
ion      s      p      d    tot
    1  0.000  0.000  0.002  0.002
    2  0.001  0.000  0.005  0.006
    3  0.000  0.000  0.002  0.002
    4  0.001  0.000  0.006  0.007
    5  0.000  0.000  0.007  0.007
    6  0.000  0.000  0.005  0.006
    7  0.000  0.000  0.002  0.002
    8  0.000  0.000  0.005  0.005
    9  0.000  0.000  0.005  0.005
   10  0.000  0.001  0.060  0.061
   11  0.016  0.000  0.031  0.047
   12  0.000  0.001  0.039  0.039
   13  0.014  0.000  0.036  0.051
   14  0.000  0.000  0.105  0.105
   15  0.014  0.001  0.029  0.044
   16  0.000  0.000  0.037  0.037
   17  0.013  0.001  0.028  0.042
   18  0.000  0.001  0.014  0.015
   19  0.008  0.000  0.019  0.027
   20  0.000  0.001  0.054  0.055
   21  0.000  0.000  0.039  0.040
   22  0.008  0.001  0.020  0.029
   23  0.000  0.000  0.038  0.039
   24  0.000  0.001  0.015  0.016
   25  0.000  0.000  0.044  0.044
   26  0.007  0.000  0.021  0.029
   27  0.009  0.001  0.020  0.029
   28  0.000  0.000  0.003  0.003
   29  0.000  0.000  0.003  0.003
   30  0.000  0.000  0.003  0.003
   31  0.000  0.000  0.003  0.003
   32  0.000  0.000  0.002  0.002
   33  0.000  0.000  0.003  0.003
   34  0.000  0.000  0.002  0.002
   35  0.000  0.000  0.004  0.005
   36  0.000  0.000  0.002  0.002
   37  0.000  0.000  0.000  0.000
   38  0.000  0.000  0.000  0.000
   39  0.000  0.000  0.000  0.000
tot    0.092  0.014  0.714  0.820
 
band    14 # energy   -5.31834221 # occ.  2.00000000
 
ion      s      p      d    tot
    1  0.000  0.000  0.002  0.002
    2  0.000  0.000  0.003  0.003
    3  0.001  0.000  0.006  0.007
    4  0.000  0.000  0.003  0.003
    5  0.000  0.000  0.007  0.007
    6  0.000  0.000  0.003  0.004
    7  0.001  0.000  0.006  0.007
    8  0.000  0.000  0.004  0.004
    9  0.000  0.000  0.005  0.005
   10  0.000  0.000  0.030  0.031
   11  0.004  0.000  0.084  0.089
   12  0.000  0.001  0.052  0.052
   13  0.006  0.000  0.079  0.084
   14  0.020  0.001  0.010  0.030
   15  0.004  0.001  0.018  0.024
   16  0.000  0.001  0.053  0.054
   17  0.005  0.001  0.020  0.026
   18  0.018  0.000  0.034  0.052
   19  0.002  0.000  0.037  0.039
   20  0.000  0.000  0.034  0.034
   21  0.000  0.001  0.048  0.049
   22  0.003  0.001  0.017  0.021
   23  0.000  0.001  0.049  0.050
   24  0.011  0.001  0.021  0.033
   25  0.010  0.001  0.012  0.023
   26  0.003  0.000  0.035  0.038
   27  0.002  0.001  0.017  0.020
   28  0.000  0.000  0.003  0.003
   29  0.000  0.000  0.002  0.003
   30  0.000  0.000  0.002  0.003
   31  0.000  0.000  0.002  0.003
   32  0.000  0.000  0.003  0.003
   33  0.000  0.000  0.003  0.003
   34  0.000  0.000  0.003  0.003
   35  0.000  0.000  0.004  0.005
   36  0.000  0.000  0.002  0.002
   37  0.000  0.000  0.000  0.000
   38  0.000  0.000  0.000  0.000
   39  0.000  0.000  0.000  0.000
tot    0.092  0.014  0.714  0.820
 
band    15 # energy   -5.30848985 # occ.  2.00000000
 
ion      s      p      d    tot
    1  0.002  0.001  0.003  0.006
    2  0.000  0.000  0.006  0.006
    3  0.000  0.000  0.005  0.006
    4  0.000  0.000  0.006  0.006
    5  0.005  0.001  0.005  0.011
    6  0.000  0.000  0.005  0.006
    7  0.000  0.000  0.005  0.006
    8  0.000  0.000  0.005  0.006
    9  0.000  0.000  0.003  0.003
   10  0.012  0.001  0.004  0.017
   11  0.011  0.000  0.063  0.075
   12  0.012  0.001  0.004  0.017
   13  0.011  0.000  0.063  0.075
   14  0.011  0.000  0.063  0.074
   15  0.000  0.000  0.044  0.045
   16  0.012  0.001  0.004  0.017
   17  0.000  0.000  0.044  0.045
   18  0.000  0.000  0.044  0.045
   19  0.011  0.001  0.019  0.031
   20  0.002  0.001  0.021  0.025
   21  0.002  0.001  0.021  0.025
   22  0.001  0.000  0.047  0.049
   23  0.002  0.001  0.021  0.025
   24  0.001  0.000  0.047  0.048
   25  0.011  0.001  0.019  0.031
   26  0.011  0.001  0.019  0.031
   27  0.001  0.000  0.047  0.049
   28  0.002  0.001  0.004  0.007
   29  0.000  0.000  0.002  0.002
   30  0.000  0.000  0.002  0.002
   31  0.000  0.000  0.002  0.002
   32  0.000  0.000  0.002  0.002
   33  0.000  0.000  0.002  0.002
   34  0.000  0.000  0.002  0.002
   35  0.002  0.001  0.004  0.007
   36  0.000  0.000  0.000  0.000
   37  0.000  0.000  0.000  0.000
   38  0.000  0.000  0.000  0.000
   39  0.000  0.000  0.000  0.000
tot    0.123  0.017  0.663  0.804
 
band    16 # energy   -5.27980447 # occ.  2.00000000
 
ion      s      p      d    tot
    1  0.000  0.000  0.016  0.016
    2  0.002  0.000  0.006  0.009
    3  0.000  0.000  0.011  0.012
    4  0.002  0.000  0.006  0.009
    5  0.000  0.000  0.009  0.009
    6  0.003  0.001  0.008  0.012
    7  0.000  0.000  0.011  0.012
    8  0.003  0.001  0.007  0.012
    9  0.000  0.001  0.008  0.008
   10  0.000  0.000  0.059  0.059
   11  0.000  0.000  0.037  0.037
   12  0.011  0.000  0.036  0.048
   13  0.000  0.000  0.037  0.038
   14  0.000  0.000  0.023  0.023
   15  0.012  0.000  0.032  0.044
   16  0.011  0.000  0.036  0.048
   17  0.012  0.000  0.031  0.043
   18  0.000  0.000  0.111  0.111
   19  0.000  0.000  0.024  0.024
   20  0.000  0.000  0.040  0.040
   21  0.003  0.000  0.016  0.020
   22  0.003  0.000  0.022  0.025
   23  0.003  0.000  0.017  0.020
   24  0.000  0.000  0.026  0.026
   25  0.000  0.000  0.024  0.024
   26  0.000  0.000  0.024  0.024
   27  0.003  0.000  0.022  0.025
   28  0.000  0.000  0.010  0.010
   29  0.001  0.000  0.004  0.005
   30  0.003  0.001  0.004  0.007
   31  0.001  0.000  0.004  0.005
   32  0.000  0.000  0.004  0.005
   33  0.003  0.001  0.004  0.007
   34  0.000  0.000  0.004  0.005
   35  0.000  0.000  0.004  0.005
   36  0.000  0.001  0.003  0.003
   37  0.000  0.000  0.000  0.000
   38  0.000  0.000  0.000  0.000
   39  0.000  0.000  0.000  0.000
tot    0.080  0.010  0.740  0.830
 
band    17 # energy   -5.27977583 # occ.  2.00000000
 
ion      s      p      d    tot
    1  0.000  0.000  0.016  0.016
    2  0.001  0.001  0.011  0.013
    3  0.004  0.001  0.005  0.010
    4  0.002  0.001  0.010  0.013
    5  0.000  0.000  0.009  0.009
    6  0.001  0.000  0.009  0.010
    7  0.004  0.001  0.005  0.010
    8  0.000  0.000  0.009  0.010
    9  0.000  0.001  0.008  0.008
   10  0.015  0.000  0.029  0.044
   11  0.000  0.000  0.028  0.028
   12  0.004  0.000  0.051  0.055
   13  0.000  0.000  0.027  0.028
   14  0.000  0.000  0.042  0.042
   15  0.004  0.000  0.084  0.088
   16  0.004  0.000  0.051  0.055
   17  0.004  0.000  0.085  0.089
   18  0.016  0.000  0.005  0.021
   19  0.000  0.000  0.024  0.024
   20  0.004  0.000  0.008  0.013
   21  0.001  0.000  0.033  0.034
   22  0.001  0.000  0.024  0.025
   23  0.001  0.000  0.032  0.034
   24  0.004  0.000  0.020  0.025
   25  0.000  0.000  0.024  0.024
   26  0.000  0.000  0.024  0.024
   27  0.001  0.000  0.024  0.025
   28  0.000  0.000  0.010  0.010
   29  0.002  0.000  0.004  0.006
   30  0.000  0.000  0.004  0.005
   31  0.002  0.000  0.004  0.006
   32  0.002  0.000  0.004  0.007
   33  0.000  0.000  0.004  0.005
   34  0.003  0.000  0.004  0.007
   35  0.000  0.000  0.004  0.005
   36  0.000  0.001  0.003  0.003
   37  0.000  0.000  0.000  0.000
   38  0.000  0.000  0.000  0.000
   39  0.000  0.000  0.000  0.000
tot    0.080  0.010  0.740  0.830
 
band    18 # energy   -5.27484057 # occ.  2.00000000
 
ion      s      p      d    tot
    1  0.000  0.000  0.010  0.011
    2  0.002  0.000  0.012  0.014
    3  0.002  0.000  0.012  0.014
    4  0.002  0.000  0.012  0.014
    5  0.001  0.000  0.001  0.001
    6  0.002  0.000  0.012  0.014
    7  0.002  0.000  0.012  0.014
    8  0.002  0.000  0.012  0.014
    9  0.009  0.000  0.014  0.023
   10  0.003  0.000  0.011  0.014
   11  0.000  0.000  0.015  0.015
   12  0.003  0.000  0.011  0.014
   13  0.000  0.000  0.015  0.015
   14  0.000  0.000  0.015  0.016
   15  0.000  0.000  0.030  0.030
   16  0.003  0.000  0.011  0.014
   17  0.000  0.000  0.030  0.030
   18  0.000  0.000  0.030  0.030
   19  0.001  0.001  0.010  0.013
   20  0.003  0.000  0.026  0.029
   21  0.003  0.000  0.025  0.029
   22  0.002  0.000  0.058  0.061
   23  0.003  0.000  0.025  0.029
   24  0.002  0.000  0.058  0.061
   25  0.001  0.001  0.010  0.012
   26  0.001  0.001  0.010  0.013
   27  0.002  0.000  0.058  0.061
   28  0.014  0.001  0.002  0.017
   29  0.007  0.000  0.016  0.023
   30  0.007  0.000  0.016  0.023
   31  0.007  0.000  0.016  0.023
   32  0.007  0.000  0.016  0.023
   33  0.007  0.000  0.016  0.023
   34  0.007  0.000  0.016  0.023
   35  0.007  0.000  0.036  0.043
   36  0.001  0.000  0.006  0.008
   37  0.000  0.000  0.000  0.000
   38  0.000  0.000  0.000  0.000
   39  0.000  0.000  0.000  0.000
tot    0.116  0.008  0.686  0.810
 
band    19 # energy   -5.26570570 # occ.  2.00000000
 
ion      s      p      d    tot
    1  0.007  0.000  0.010  0.017
    2  0.000  0.000  0.012  0.012
    3  0.000  0.000  0.012  0.012
    4  0.000  0.000  0.012  0.012
    5  0.002  0.001  0.003  0.006
    6  0.000  0.000  0.012  0.012
    7  0.000  0.000  0.012  0.012
    8  0.000  0.000  0.012  0.012
    9  0.000  0.000  0.003  0.003
   10  0.000  0.000  0.053  0.054
   11  0.005  0.000  0.009  0.014
   12  0.000  0.000  0.054  0.054
   13  0.005  0.000  0.009  0.014
   14  0.005  0.000  0.009  0.014
   15  0.001  0.000  0.037  0.038
   16  0.000  0.000  0.054  0.054
   17  0.001  0.000  0.037  0.038
   18  0.001  0.000  0.037  0.038
   19  0.001  0.000  0.056  0.056
   20  0.002  0.001  0.021  0.024
   21  0.002  0.001  0.021  0.023
   22  0.003  0.000  0.021  0.024
   23  0.002  0.001  0.021  0.023
   24  0.003  0.000  0.021  0.024
   25  0.001  0.000  0.056  0.057
   26  0.001  0.000  0.056  0.056
   27  0.003  0.000  0.021  0.024
   28  0.004  0.000  0.018  0.022
   29  0.002  0.000  0.010  0.011
   30  0.002  0.000  0.010  0.011
   31  0.002  0.000  0.010  0.011
   32  0.002  0.000  0.010  0.011
   33  0.002  0.000  0.010  0.011
   34  0.002  0.000  0.010  0.011
   35  0.000  0.001  0.005  0.005
   36  0.004  0.005  0.004  0.013
   37  0.002  0.002  0.000  0.004
   38  0.000  0.000  0.000  0.000
   39  0.000  0.000  0.000  0.000
tot    0.069  0.013  0.759  0.842
 
band    20 # energy   -5.26135899 # occ.  2.00000000
 
ion      s      p      d    tot
    1  0.000  0.000  0.007  0.007
    2  0.003  0.000  0.007  0.010
    3  0.000  0.000  0.009  0.009
    4  0.003  0.000  0.007  0.010
    5  0.000  0.000  0.007  0.007
    6  0.002  0.000  0.006  0.008
    7  0.000  0.000  0.009  0.009
    8  0.002  0.000  0.006  0.008
    9  0.000  0.000  0.022  0.022
   10  0.002  0.000  0.028  0.030
   11  0.001  0.000  0.036  0.037
   12  0.000  0.000  0.018  0.019
   13  0.001  0.000  0.035  0.036
   14  0.003  0.000  0.008  0.012
   15  0.000  0.000  0.033  0.033
   16  0.000  0.000  0.018  0.018
   17  0.000  0.000  0.033  0.033
   18  0.000  0.000  0.036  0.036
   19  0.002  0.000  0.079  0.081
   20  0.000  0.000  0.051  0.052
   21  0.000  0.000  0.022  0.022
   22  0.004  0.000  0.059  0.063
   23  0.000  0.000  0.021  0.021
   24  0.015  0.000  0.026  0.041
   25  0.010  0.000  0.005  0.015
   26  0.003  0.000  0.076  0.079
   27  0.003  0.000  0.060  0.064
   28  0.000  0.000  0.005  0.005
   29  0.000  0.000  0.007  0.008
   30  0.002  0.000  0.002  0.004
   31  0.000  0.000  0.008  0.008
   32  0.001  0.001  0.008  0.009
   33  0.002  0.000  0.002  0.004
   34  0.001  0.001  0.008  0.009
   35  0.000  0.000  0.009  0.010
   36  0.000  0.000  0.002  0.002
   37  0.000  0.000  0.000  0.000
   38  0.000  0.000  0.000  0.000
   39  0.000  0.000  0.000  0.000