PROCAR new format
# of k-points:   10         # of bands:  252         # of ions:   38

 k-point     1 :    0.00000000 0.00000000 0.00000000     weight = 0.01562500

band     1 # energy  -17.20280366 # occ.  2.00000000
 
ion      s      p      d    tot
    1  0.000  0.000  0.000  0.000
    2  0.000  0.000  0.000  0.000
    3  0.000  0.000  0.000  0.000
    4  0.000  0.000  0.000  0.000
    5  0.000  0.000  0.000  0.000
    6  0.000  0.000  0.000  0.000
    7  0.000  0.000  0.000  0.000
    8  0.000  0.000  0.000  0.000
    9  0.000  0.000  0.000  0.000
   10  0.000  0.000  0.000  0.000
   11  0.000  0.000  0.000  0.000
   12  0.000  0.000  0.000  0.000
   13  0.000  0.000  0.000  0.000
   14  0.000  0.000  0.000  0.000
   15  0.000  0.000  0.000  0.000
   16  0.000  0.000  0.000  0.000
   17  0.000  0.000  0.000  0.000
   18  0.000  0.000  0.000  0.000
   19  0.000  0.000  0.000  0.000
   20  0.001  0.001  0.001  0.004
   21  0.001  0.001  0.001  0.004
   22  0.000  0.000  0.000  0.000
   23  0.001  0.001  0.001  0.004
   24  0.000  0.000  0.000  0.000
   25  0.000  0.000  0.000  0.000
   26  0.000  0.000  0.000  0.000
   27  0.000  0.000  0.000  0.000
   28  0.000  0.000  0.000  0.000
   29  0.000  0.000  0.000  0.000
   30  0.000  0.000  0.000  0.000
   31  0.000  0.000  0.000  0.000
   32  0.000  0.000  0.000  0.000
   33  0.000  0.000  0.000  0.000
   34  0.000  0.000  0.000  0.000
   35  0.000  0.000  0.000  0.000
   36  0.036  0.023  0.099  0.158
   37  0.013  0.001  0.000  0.014
   38  0.748  0.010  0.000  0.758
tot    0.801  0.038  0.102  0.940
 
band     2 # energy  -14.11482100 # occ.  2.00000000
 
ion      s      p      d    tot
    1  0.000  0.000  0.000  0.000
    2  0.000  0.000  0.000  0.000
    3  0.000  0.000  0.000  0.000
    4  0.000  0.000  0.000  0.000
    5  0.000  0.000  0.000  0.000
    6  0.000  0.000  0.000  0.000
    7  0.000  0.000  0.000  0.000
    8  0.000  0.000  0.000  0.000
    9  0.000  0.000  0.000  0.000
   10  0.000  0.000  0.000  0.000
   11  0.001  0.001  0.000  0.002
   12  0.000  0.000  0.000  0.000
   13  0.001  0.001  0.000  0.002
   14  0.001  0.001  0.000  0.002
   15  0.000  0.000  0.000  0.000
   16  0.000  0.000  0.000  0.000
   17  0.000  0.000  0.000  0.000
   18  0.000  0.000  0.000  0.000
   19  0.000  0.000  0.000  0.001
   20  0.065  0.050  0.060  0.176
   21  0.065  0.050  0.060  0.176
   22  0.001  0.000  0.000  0.001
   23  0.065  0.050  0.060  0.176
   24  0.001  0.000  0.000  0.001
   25  0.000  0.000  0.000  0.001
   26  0.000  0.000  0.000  0.001
   27  0.001  0.000  0.000  0.001
   28  0.000  0.000  0.000  0.000
   29  0.000  0.000  0.000  0.000
   30  0.000  0.000  0.000  0.000
   31  0.000  0.000  0.000  0.000
   32  0.000  0.000  0.000  0.000
   33  0.000  0.000  0.000  0.000
   34  0.000  0.000  0.000  0.000
   35  0.000  0.000  0.000  0.000
   36  0.020  0.042  0.033  0.094
   37  0.452  0.001  0.000  0.453
   38  0.026  0.001  0.000  0.026
tot    0.702  0.198  0.216  1.116
 
band     3 # energy   -8.71250166 # occ.  2.00000000
 
ion      s      p      d    tot
    1  0.008  0.001  0.000  0.009
    2  0.008  0.001  0.000  0.009
    3  0.008  0.001  0.000  0.009
    4  0.008  0.001  0.000  0.009
    5  0.008  0.001  0.000  0.009
    6  0.008  0.001  0.000  0.009
    7  0.008  0.001  0.000  0.009
    8  0.008  0.001  0.000  0.009
    9  0.008  0.001  0.000  0.009
   10  0.025  0.000  0.000  0.025
   11  0.029  0.000  0.000  0.029
   12  0.025  0.000  0.000  0.025
   13  0.029  0.000  0.000  0.029
   14  0.029  0.000  0.000  0.029
   15  0.026  0.000  0.000  0.026
   16  0.025  0.000  0.000  0.025
   17  0.026  0.000  0.000  0.026
   18  0.026  0.000  0.000  0.026
   19  0.020  0.000  0.000  0.020
   20  0.007  0.005  0.016  0.028
   21  0.007  0.005  0.016  0.028
   22  0.020  0.000  0.000  0.020
   23  0.007  0.005  0.016  0.028
   24  0.020  0.000  0.000  0.020
   25  0.020  0.000  0.000  0.020
   26  0.020  0.000  0.000  0.020
   27  0.020  0.000  0.000  0.020
   28  0.005  0.001  0.000  0.006
   29  0.004  0.000  0.000  0.005
   30  0.004  0.000  0.000  0.005
   31  0.004  0.000  0.000  0.005
   32  0.004  0.000  0.000  0.005
   33  0.004  0.000  0.000  0.005
   34  0.004  0.000  0.000  0.005
   35  0.005  0.001  0.000  0.006
   36  0.001  0.004  0.024  0.029
   37  0.013  0.016  0.000  0.029
   38  0.001  0.002  0.000  0.003
tot    0.502  0.052  0.073  0.627
 
band     4 # energy   -8.64970647 # occ.  2.00000000
 
ion      s      p      d    tot
    1  0.000  0.000  0.000  0.000
    2  0.000  0.000  0.000  0.000
    3  0.000  0.000  0.000  0.000
    4  0.000  0.000  0.000  0.000
    5  0.000  0.000  0.000  0.000
    6  0.000  0.000  0.000  0.000
    7  0.000  0.000  0.000  0.000
    8  0.000  0.000  0.000  0.000
    9  0.000  0.000  0.000  0.000
   10  0.002  0.001  0.001  0.003
   11  0.001  0.000  0.001  0.002
   12  0.000  0.000  0.000  0.001
   13  0.001  0.000  0.001  0.002
   14  0.002  0.001  0.001  0.005
   15  0.000  0.000  0.000  0.000
   16  0.000  0.000  0.000  0.001
   17  0.000  0.000  0.000  0.000
   18  0.000  0.000  0.000  0.000
   19  0.000  0.002  0.000  0.002
   20  0.089  0.032  0.158  0.279
   21  0.022  0.021  0.133  0.176
   22  0.001  0.001  0.001  0.003
   23  0.023  0.021  0.133  0.177
   24  0.004  0.002  0.002  0.008
   25  0.002  0.000  0.002  0.003
   26  0.000  0.002  0.000  0.002
   27  0.001  0.001  0.001  0.003
   28  0.000  0.000  0.000  0.000
   29  0.001  0.001  0.001  0.002
   30  0.000  0.000  0.000  0.000
   31  0.001  0.001  0.001  0.002
   32  0.001  0.001  0.001  0.002
   33  0.000  0.000  0.000  0.000
   34  0.001  0.001  0.001  0.003
   35  0.000  0.000  0.000  0.000
   36  0.000  0.008  0.053  0.061
   37  0.000  0.249  0.000  0.249
   38  0.000  0.001  0.000  0.001
tot    0.152  0.344  0.491  0.987
 
band     5 # energy   -8.64961276 # occ.  2.00000000
 
ion      s      p      d    tot
    1  0.000  0.000  0.000  0.000
    2  0.000  0.000  0.000  0.000
    3  0.000  0.000  0.000  0.000
    4  0.000  0.000  0.000  0.000
    5  0.000  0.000  0.000  0.000
    6  0.000  0.000  0.000  0.000
    7  0.000  0.000  0.000  0.000
    8  0.000  0.000  0.000  0.000
    9  0.000  0.000  0.000  0.000
   10  0.000  0.000  0.000  0.000
   11  0.002  0.001  0.001  0.004
   12  0.001  0.000  0.001  0.002
   13  0.002  0.001  0.001  0.004
   14  0.000  0.000  0.000  0.001
   15  0.000  0.000  0.000  0.000
   16  0.001  0.000  0.001  0.002
   17  0.000  0.000  0.000  0.000
   18  0.000  0.000  0.000  0.000
   19  0.001  0.001  0.001  0.003
   20  0.000  0.018  0.125  0.142
   21  0.067  0.028  0.150  0.245
   22  0.003  0.002  0.002  0.006
   23  0.067  0.028  0.149  0.244
   24  0.000  0.000  0.000  0.001
   25  0.000  0.002  0.000  0.002
   26  0.001  0.001  0.001  0.003
   27  0.003  0.002  0.002  0.006
   28  0.000  0.000  0.000  0.000
   29  0.000  0.000  0.001  0.001
   30  0.001  0.001  0.001  0.003
   31  0.000  0.000  0.001  0.001
   32  0.000  0.000  0.000  0.001
   33  0.001  0.001  0.001  0.003
   34  0.000  0.000  0.000  0.001
   35  0.000  0.000  0.000  0.000
   36  0.000  0.008  0.053  0.061
   37  0.000  0.249  0.000  0.249
   38  0.000  0.001  0.000  0.001
tot    0.152  0.344  0.491  0.987
 
band     6 # energy   -7.97013462 # occ.  2.00000000
 
ion      s      p      d    tot
    1  0.001  0.000  0.000  0.001
    2  0.000  0.000  0.000  0.000
    3  0.000  0.000  0.000  0.000
    4  0.000  0.000  0.000  0.000
    5  0.000  0.000  0.000  0.000
    6  0.000  0.000  0.000  0.000
    7  0.000  0.000  0.000  0.000
    8  0.000  0.000  0.000  0.000
    9  0.000  0.000  0.000  0.000
   10  0.002  0.000  0.000  0.002
   11  0.002  0.003  0.005  0.010
   12  0.002  0.000  0.000  0.002
   13  0.002  0.003  0.005  0.010
   14  0.002  0.003  0.005  0.010
   15  0.002  0.000  0.000  0.002
   16  0.002  0.000  0.000  0.002
   17  0.002  0.000  0.000  0.002
   18  0.002  0.000  0.000  0.002
   19  0.004  0.000  0.000  0.004
   20  0.000  0.016  0.126  0.142
   21  0.000  0.016  0.126  0.142
   22  0.005  0.000  0.000  0.006
   23  0.000  0.016  0.126  0.142
   24  0.005  0.000  0.000  0.006
   25  0.004  0.000  0.000  0.004
   26  0.004  0.000  0.000  0.004
   27  0.005  0.000  0.000  0.006
   28  0.002  0.000  0.000  0.003
   29  0.004  0.000  0.000  0.005
   30  0.004  0.000  0.000  0.005
   31  0.004  0.000  0.000  0.005
   32  0.004  0.000  0.000  0.005
   33  0.004  0.000  0.000  0.005
   34  0.004  0.000  0.000  0.005
   35  0.004  0.000  0.000  0.004
   36  0.051  0.029  0.056  0.137
   37  0.000  0.177  0.000  0.177
   38  0.008  0.011  0.000  0.019
tot    0.138  0.279  0.453  0.870
 
band     7 # energy   -7.46266533 # occ.  2.00000000
 
ion      s      p      d    tot
    1  0.017  0.001  0.000  0.018
    2  0.016  0.001  0.001  0.017
    3  0.016  0.001  0.001  0.017
    4  0.016  0.001  0.001  0.017
    5  0.016  0.001  0.001  0.017
    6  0.016  0.001  0.001  0.017
    7  0.016  0.001  0.001  0.017
    8  0.016  0.001  0.001  0.017
    9  0.016  0.001  0.001  0.017
   10  0.009  0.002  0.000  0.011
   11  0.007  0.002  0.001  0.010
   12  0.009  0.002  0.000  0.011
   13  0.007  0.002  0.001  0.010
   14  0.007  0.002  0.001  0.010
   15  0.007  0.002  0.001  0.010
   16  0.009  0.002  0.000  0.011
   17  0.007  0.002  0.001  0.010
   18  0.007  0.002  0.001  0.010
   19  0.012  0.002  0.001  0.015
   20  0.004  0.001  0.015  0.021
   21  0.004  0.001  0.015  0.021
   22  0.013  0.002  0.001  0.015
   23  0.004  0.001  0.015  0.021
   24  0.013  0.002  0.001  0.015
   25  0.012  0.002  0.001  0.015
   26  0.012  0.002  0.001  0.015
   27  0.013  0.002  0.001  0.015
   28  0.021  0.001  0.001  0.023
   29  0.018  0.001  0.001  0.020
   30  0.018  0.001  0.001  0.020
   31  0.018  0.001  0.001  0.020
   32  0.018  0.001  0.001  0.020
   33  0.018  0.001  0.001  0.020
   34  0.018  0.001  0.001  0.020
   35  0.021  0.001  0.000  0.022
   36  0.003  0.001  0.029  0.033
   37  0.003  0.008  0.000  0.011
   38  0.000  0.002  0.000  0.002
tot    0.462  0.060  0.092  0.614
 
band     8 # energy   -6.01243434 # occ.  2.00000000
 
ion      s      p      d    tot
    1  0.012  0.002  0.000  0.014
    2  0.000  0.001  0.002  0.003
    3  0.000  0.001  0.002  0.003
    4  0.000  0.001  0.002  0.003
    5  0.006  0.001  0.001  0.007
    6  0.000  0.001  0.002  0.003
    7  0.000  0.001  0.002  0.003
    8  0.000  0.001  0.002  0.003
    9  0.001  0.000  0.000  0.001
   10  0.020  0.007  0.003  0.030
   11  0.014  0.001  0.006  0.021
   12  0.020  0.007  0.003  0.030
   13  0.014  0.001  0.006  0.021
   14  0.014  0.001  0.006  0.021
   15  0.001  0.003  0.005  0.009
   16  0.020  0.007  0.003  0.030
   17  0.001  0.003  0.005  0.009
   18  0.001  0.003  0.005  0.009
   19  0.033  0.007  0.001  0.041
   20  0.003  0.005  0.063  0.071
   21  0.003  0.005  0.063  0.071
   22  0.010  0.000  0.011  0.022
   23  0.003  0.005  0.063  0.071
   24  0.010  0.000  0.011  0.022
   25  0.032  0.007  0.001  0.041
   26  0.033  0.007  0.001  0.041
   27  0.010  0.000  0.011  0.022
   28  0.019  0.003  0.001  0.023
   29  0.000  0.002  0.004  0.006
   30  0.000  0.002  0.004  0.006
   31  0.000  0.002  0.004  0.006
   32  0.000  0.002  0.004  0.006
   33  0.000  0.002  0.004  0.006
   34  0.000  0.002  0.004  0.006
   35  0.004  0.001  0.000  0.005
   36  0.007  0.002  0.000  0.008
   37  0.000  0.001  0.000  0.001
   38  0.000  0.001  0.000  0.001
tot    0.290  0.095  0.310  0.696
 
band     9 # energy   -5.97405297 # occ.  2.00000000
 
ion      s      p      d    tot
    1  0.000  0.000  0.001  0.001
    2  0.006  0.002  0.002  0.010
    3  0.004  0.001  0.001  0.007
    4  0.006  0.002  0.002  0.009
    5  0.000  0.001  0.004  0.005
    6  0.001  0.001  0.001  0.003
    7  0.003  0.001  0.001  0.005
    8  0.000  0.001  0.001  0.002
    9  0.000  0.002  0.003  0.004
   10  0.000  0.006  0.006  0.012
   11  0.038  0.003  0.005  0.047
   12  0.001  0.003  0.005  0.008
   13  0.031  0.003  0.007  0.041
   14  0.000  0.001  0.015  0.016
   15  0.022  0.002  0.004  0.029
   16  0.001  0.003  0.004  0.008
   17  0.018  0.004  0.004  0.026
   18  0.000  0.009  0.003  0.012
   19  0.013  0.002  0.003  0.018
   20  0.000  0.013  0.007  0.019
   21  0.008  0.004  0.074  0.087
   22  0.038  0.004  0.006  0.048
   23  0.010  0.003  0.089  0.102
   24  0.000  0.002  0.014  0.017
   25  0.000  0.002  0.017  0.018
   26  0.010  0.002  0.006  0.018
   27  0.047  0.004  0.004  0.055
   28  0.000  0.000  0.002  0.003
   29  0.008  0.002  0.002  0.012
   30  0.007  0.002  0.003  0.012
   31  0.006  0.002  0.002  0.010
   32  0.000  0.001  0.002  0.003
   33  0.005  0.002  0.003  0.010
   34  0.000  0.001  0.002  0.003
   35  0.000  0.002  0.004  0.007
   36  0.000  0.002  0.003  0.005
   37  0.000  0.004  0.000  0.004
   38  0.000  0.000  0.000  0.000
tot    0.283  0.098  0.314  0.694
 
band    10 # energy   -5.97403579 # occ.  2.00000000
 
ion      s      p      d    tot
    1  0.000  0.000  0.001  0.001
    2  0.000  0.001  0.001  0.002
    3  0.003  0.001  0.001  0.005
    4  0.001  0.001  0.001  0.003
    5  0.000  0.001  0.004  0.005
    6  0.006  0.002  0.002  0.009
    7  0.004  0.001  0.002  0.006
    8  0.006  0.002  0.002  0.010
    9  0.000  0.002  0.003  0.004
   10  0.001  0.002  0.004  0.007
   11  0.008  0.001  0.013  0.023
   12  0.000  0.005  0.005  0.010
   13  0.015  0.002  0.011  0.028
   14  0.046  0.004  0.003  0.053
   15  0.005  0.008  0.003  0.016
   16  0.000  0.005  0.005  0.011
   17  0.009  0.006  0.004  0.019
   18  0.027  0.001  0.004  0.032
   19  0.003  0.002  0.014  0.018
   20  0.012  0.001  0.107  0.119
   21  0.004  0.009  0.039  0.052
   22  0.019  0.003  0.010  0.032
   23  0.002  0.010  0.024  0.037
   24  0.056  0.004  0.002  0.063
   25  0.015  0.002  0.001  0.018
   26  0.005  0.002  0.011  0.018
   27  0.010  0.003  0.012  0.025
   28  0.000  0.000  0.002  0.003
   29  0.001  0.001  0.003  0.005
   30  0.002  0.001  0.002  0.005
   31  0.002  0.001  0.003  0.007
   32  0.008  0.002  0.002  0.013
   33  0.003  0.001  0.002  0.007
   34  0.009  0.002  0.002  0.013
   35  0.000  0.002  0.004  0.007
   36  0.000  0.002  0.003  0.005
   37  0.000  0.004  0.000  0.004
   38  0.000  0.000  0.000  0.000
tot    0.283  0.097  0.314  0.694
 
band    11 # energy   -5.90249904 # occ.  2.00000000
 
ion      s      p      d    tot
    1  0.013  0.000  0.005  0.018
    2  0.014  0.000  0.006  0.020
    3  0.014  0.000  0.006  0.020
    4  0.014  0.000  0.006  0.020
    5  0.024  0.000  0.004  0.028
    6  0.014  0.000  0.006  0.020
    7  0.014  0.000  0.006  0.020
    8  0.014  0.000  0.006  0.020
    9  0.007  0.000  0.007  0.014
   10  0.003  0.003  0.003  0.009
   11  0.000  0.004  0.003  0.007
   12  0.003  0.003  0.003  0.009
   13  0.000  0.004  0.003  0.007
   14  0.000  0.004  0.003  0.007
   15  0.011  0.004  0.002  0.016
   16  0.003  0.003  0.003  0.009
   17  0.011  0.004  0.002  0.016
   18  0.011  0.004  0.002  0.016
   19  0.004  0.004  0.003  0.012
   20  0.000  0.002  0.016  0.019
   21  0.000  0.002  0.016  0.019
   22  0.011  0.004  0.003  0.018
   23  0.000  0.002  0.016  0.019
   24  0.011  0.004  0.003  0.018
   25  0.004  0.004  0.003  0.012
   26  0.004  0.004  0.003  0.012
   27  0.011  0.004  0.003  0.018
   28  0.021  0.000  0.007  0.028
   29  0.017  0.000  0.007  0.025
   30  0.017  0.000  0.007  0.025
   31  0.017  0.000  0.007  0.025
   32  0.017  0.000  0.007  0.025
   33  0.017  0.000  0.007  0.025
   34  0.017  0.000  0.007  0.025
   35  0.009  0.000  0.008  0.017
   36  0.021  0.000  0.014  0.035
   37  0.000  0.000  0.000  0.000
   38  0.000  0.000  0.000  0.000
tot    0.374  0.067  0.210  0.650
 
band    12 # energy   -5.83379759 # occ.  2.00000000
 
ion      s      p      d    tot
    1  0.000  0.003  0.004  0.007
    2  0.007  0.002  0.002  0.011
    3  0.005  0.001  0.002  0.008
    4  0.007  0.002  0.002  0.011
    5  0.000  0.001  0.002  0.003
    6  0.000  0.001  0.002  0.003
    7  0.004  0.001  0.002  0.007
    8  0.000  0.001  0.002  0.003
    9  0.000  0.001  0.003  0.004
   10  0.047  0.003  0.002  0.052
   11  0.001  0.009  0.004  0.014
   12  0.012  0.005  0.008  0.025
   13  0.001  0.009  0.004  0.014
   14  0.005  0.000  0.006  0.012
   15  0.006  0.001  0.010  0.017
   16  0.011  0.005  0.008  0.024
   17  0.006  0.001  0.010  0.018
   18  0.024  0.004  0.002  0.029
   19  0.011  0.004  0.005  0.020
   20  0.022  0.010  0.073  0.105
   21  0.006  0.005  0.027  0.038
   22  0.001  0.009  0.003  0.012
   23  0.005  0.005  0.026  0.035
   24  0.004  0.000  0.004  0.008
   25  0.046  0.002  0.005  0.053
   26  0.012  0.004  0.005  0.021
   27  0.001  0.009  0.003  0.013
   28  0.000  0.004  0.005  0.008
   29  0.008  0.002  0.004  0.015
   30  0.015  0.002  0.003  0.020
   31  0.008  0.002  0.004  0.014
   32  0.001  0.001  0.004  0.006
   33  0.014  0.002  0.003  0.020
   34  0.001  0.001  0.004  0.006
   35  0.000  0.001  0.003  0.004
   36  0.000  0.000  0.015  0.016
   37  0.000  0.009  0.000  0.009
   38  0.000  0.000  0.000  0.000
tot    0.291  0.123  0.269  0.683
 
band    13 # energy   -5.83372036 # occ.  2.00000000
 
ion      s      p      d    tot
    1  0.000  0.003  0.004  0.007
    2  0.001  0.001  0.002  0.003
    3  0.003  0.001  0.002  0.006
    4  0.001  0.001  0.002  0.003
    5  0.000  0.001  0.002  0.003
    6  0.007  0.002  0.002  0.011
    7  0.004  0.001  0.002  0.007
    8  0.008  0.002  0.002  0.011
    9  0.000  0.001  0.003  0.004
   10  0.000  0.005  0.010  0.015
   11  0.004  0.003  0.006  0.013
   12  0.035  0.003  0.004  0.042
   13  0.004  0.004  0.005  0.013
   14  0.000  0.012  0.003  0.015
   15  0.018  0.003  0.005  0.025
   16  0.036  0.003  0.004  0.043
   17  0.017  0.003  0.005  0.025
   18  0.000  0.001  0.013  0.013
   19  0.035  0.003  0.005  0.043
   20  0.000  0.003  0.011  0.014
   21  0.016  0.008  0.057  0.081
   22  0.003  0.003  0.004  0.010
   23  0.017  0.008  0.058  0.083
   24  0.000  0.011  0.003  0.014
   25  0.000  0.005  0.005  0.010
   26  0.034  0.003  0.005  0.042
   27  0.003  0.003  0.004  0.009
   28  0.000  0.004  0.005  0.008
   29  0.007  0.001  0.003  0.012
   30  0.001  0.002  0.004  0.007
   31  0.008  0.001  0.003  0.012
   32  0.015  0.003  0.004  0.021
   33  0.001  0.002  0.004  0.007
   34  0.014  0.003  0.004  0.021
   35  0.000  0.001  0.003  0.004
   36  0.000  0.000  0.015  0.016
   37  0.000  0.009  0.000  0.009
   38  0.000  0.000  0.000  0.000
tot    0.291  0.123  0.269  0.683
 
band    14 # energy   -5.68986981 # occ.  2.00000000
 
ion      s      p      d    tot
    1  0.000  0.001  0.005  0.005
    2  0.004  0.002  0.007  0.012
    3  0.004  0.002  0.007  0.012
    4  0.004  0.002  0.007  0.012
    5  0.001  0.002  0.003  0.006
    6  0.004  0.002  0.007  0.012
    7  0.004  0.002  0.007  0.012
    8  0.004  0.002  0.007  0.012
    9  0.045  0.003  0.000  0.048
   10  0.014  0.001  0.016  0.030
   11  0.016  0.007  0.007  0.030
   12  0.014  0.001  0.016  0.030
   13  0.016  0.007  0.007  0.030
   14  0.016  0.007  0.007  0.030
   15  0.017  0.006  0.008  0.031
   16  0.014  0.001  0.016  0.030
   17  0.017  0.006  0.008  0.031
   18  0.017  0.006  0.008  0.031
   19  0.000  0.002  0.003  0.005
   20  0.007  0.001  0.052  0.060
   21  0.007  0.001  0.052  0.060
   22  0.011  0.005  0.002  0.018
   23  0.007  0.001  0.052  0.060
   24  0.011  0.005  0.002  0.018
   25  0.000  0.002  0.003  0.005
   26  0.000  0.002  0.003  0.005
   27  0.011  0.005  0.002  0.018
   28  0.000  0.000  0.000  0.000
   29  0.000  0.001  0.003  0.004
   30  0.000  0.001  0.003  0.004
   31  0.000  0.001  0.003  0.004
   32  0.000  0.001  0.003  0.004
   33  0.000  0.001  0.003  0.004
   34  0.000  0.001  0.003  0.004
   35  0.010  0.001  0.000  0.012
   36  0.005  0.001  0.000  0.006
   37  0.001  0.002  0.000  0.003
   38  0.000  0.000  0.000  0.001
tot    0.282  0.091  0.327  0.700
 
band    15 # energy   -5.35756743 # occ.  2.00000000
 
ion      s      p      d    tot
    1  0.000  0.000  0.004  0.004
    2  0.010  0.002  0.003  0.015
    3  0.004  0.001  0.003  0.008
    4  0.010  0.002  0.003  0.015
    5  0.000  0.001  0.005  0.006
    6  0.002  0.001  0.002  0.005
    7  0.004  0.001  0.003  0.008
    8  0.002  0.001  0.002  0.005
    9  0.000  0.003  0.005  0.008
   10  0.000  0.004  0.004  0.008
   11  0.014  0.001  0.009  0.024
   12  0.001  0.001  0.005  0.007
   13  0.014  0.001  0.009  0.024
   14  0.000  0.001  0.014  0.015
   15  0.015  0.001  0.004  0.021
   16  0.001  0.001  0.005  0.007
   17  0.015  0.001  0.004  0.020
   18  0.000  0.002  0.009  0.011
   19  0.001  0.002  0.006  0.010
   20  0.000  0.001  0.143  0.143
   21  0.001  0.001  0.117  0.118
   22  0.003  0.004  0.011  0.018
   23  0.001  0.001  0.116  0.118
   24  0.000  0.000  0.015  0.015
   25  0.000  0.000  0.007  0.007
   26  0.001  0.002  0.006  0.010
   27  0.003  0.004  0.011  0.018
   28  0.000  0.001  0.003  0.004
   29  0.013  0.002  0.005  0.020
   30  0.004  0.002  0.006  0.013
   31  0.013  0.002  0.005  0.020
   32  0.003  0.001  0.002  0.005
   33  0.004  0.002  0.006  0.012
   34  0.002  0.001  0.002  0.005
   35  0.000  0.002  0.002  0.004
   36  0.000  0.004  0.031  0.035
   37  0.000  0.001  0.000  0.001
   38  0.000  0.002  0.000  0.002
tot    0.139  0.064  0.585  0.789
 
band    16 # energy   -5.35750563 # occ.  2.00000000
 
ion      s      p      d    tot
    1  0.000  0.000  0.004  0.004
    2  0.000  0.001  0.002  0.003
    3  0.007  0.002  0.002  0.011
    4  0.000  0.001  0.002  0.003
    5  0.000  0.001  0.005  0.006
    6  0.009  0.002  0.003  0.013
    7  0.007  0.002  0.002  0.011
    8  0.009  0.002  0.003  0.013
    9  0.000  0.003  0.005  0.008
   10  0.001  0.000  0.005  0.006
   11  0.005  0.001  0.013  0.018
   12  0.000  0.003  0.004  0.008
   13  0.005  0.001  0.013  0.018
   14  0.019  0.001  0.007  0.026
   15  0.005  0.002  0.007  0.014
   16  0.000  0.003  0.004  0.008
   17  0.005  0.002  0.007  0.014
   18  0.020  0.001  0.003  0.024
   19  0.000  0.001  0.007  0.008
   20  0.001  0.001  0.108  0.110
   21  0.000  0.001  0.134  0.135
   22  0.001  0.001  0.014  0.016
   23  0.000  0.001  0.134  0.135
   24  0.004  0.006  0.009  0.020
   25  0.002  0.003  0.006  0.011
   26  0.000  0.001  0.007  0.008
   27  0.001  0.001  0.014  0.016
   28  0.000  0.001  0.003  0.004
   29  0.000  0.001  0.004  0.005
   30  0.009  0.001  0.002  0.013
   31  0.000  0.001  0.004  0.005
   32  0.010  0.003  0.007  0.020
   33  0.009  0.001  0.002  0.013
   34  0.010  0.003  0.006  0.020
   35  0.000  0.002  0.002  0.004
   36  0.000  0.004  0.031  0.035
   37  0.000  0.001  0.000  0.001
   38  0.000  0.002  0.000  0.002
tot    0.139  0.064  0.585  0.789
 
band    17 # energy   -5.31258561 # occ.  2.00000000
 
ion      s      p      d    tot
    1  0.000  0.003  0.006  0.010
    2  0.011  0.002  0.003  0.017
    3  0.003  0.001  0.002  0.006
    4  0.011  0.002  0.003  0.017
    5  0.000  0.002  0.005  0.007
    6  0.003  0.001  0.003  0.007
    7  0.003  0.001  0.002  0.006
    8  0.003  0.001  0.003  0.007
    9  0.000  0.000  0.004  0.004
   10  0.030  0.002  0.004  0.036
   11  0.002  0.003  0.009  0.014
   12  0.007  0.001  0.015  0.023
   13  0.002  0.003  0.009  0.014
   14  0.009  0.001  0.008  0.019
   15  0.000  0.003  0.006  0.009
   16  0.008  0.001  0.015  0.023
   17  0.000  0.003  0.006  0.009
   18  0.000  0.001  0.004  0.005
   19  0.001  0.001  0.022  0.024
   20  0.002  0.003  0.187  0.191
   21  0.000  0.001  0.121  0.123
   22  0.000  0.002  0.008  0.010
   23  0.000  0.001  0.122  0.123
   24  0.000  0.001  0.008  0.009
   25  0.004  0.003  0.002  0.009
   26  0.001  0.001  0.022  0.024
   27  0.000  0.002  0.008  0.010
   28  0.000  0.002  0.003  0.005
   29  0.008  0.002  0.003  0.012
   30  0.003  0.001  0.002  0.007
   31  0.008  0.002  0.003  0.012
   32  0.001  0.001  0.002  0.003
   33  0.004  0.001  0.002  0.007
   34  0.001  0.001  0.002  0.003
   35  0.000  0.000  0.003  0.003
   36  0.000  0.001  0.000  0.001
   37  0.000  0.002  0.000  0.002
   38  0.000  0.000  0.000  0.000
tot    0.126  0.056  0.627  0.809
 
band    18 # energy   -5.31250433 # occ.  2.00000000
 
ion      s      p      d    tot
    1  0.000  0.003  0.006  0.010
    2  0.000  0.001  0.002  0.003
    3  0.009  0.002  0.003  0.014
    4  0.000  0.001  0.002  0.003
    5  0.000  0.002  0.005  0.007
    6  0.008  0.002  0.003  0.013
    7  0.008  0.002  0.003  0.014
    8  0.008  0.002  0.003  0.013
    9  0.000  0.000  0.004  0.004
   10  0.000  0.000  0.018  0.018
   11  0.007  0.002  0.009  0.017
   12  0.022  0.002  0.007  0.032
   13  0.007  0.002  0.009  0.017
   14  0.000  0.003  0.009  0.012
   15  0.000  0.002  0.005  0.007
   16  0.022  0.002  0.008  0.031
   17  0.000  0.001  0.005  0.007
   18  0.000  0.003  0.007  0.010
   19  0.003  0.002  0.009  0.014
   20  0.000  0.000  0.100  0.100
   21  0.001  0.002  0.165  0.169
   22  0.000  0.001  0.008  0.009
   23  0.001  0.002  0.165  0.168
   24  0.000  0.002  0.008  0.010
   25  0.000  0.000  0.028  0.029
   26  0.003  0.002  0.008  0.014
   27  0.000  0.001  0.008  0.009
   28  0.000  0.002  0.003  0.005
   29  0.000  0.001  0.002  0.003
   30  0.005  0.001  0.002  0.008
   31  0.000  0.001  0.002  0.003
   32  0.007  0.002  0.003  0.011
   33  0.005  0.001  0.002  0.008
   34  0.007  0.002  0.003  0.011
   35  0.000  0.000  0.003  0.003
   36  0.000  0.001  0.000  0.001
   37  0.000  0.002  0.000  0.002
   38  0.000  0.000  0.000  0.000
tot    0.126  0.056  0.627  0.809
 
band    19 # energy   -5.20217947 # occ.  2.00000000
 
ion      s      p      d    tot
    1  0.020  0.000  0.003  0.023
    2  0.004  0.002  0.009  0.015
    3  0.004  0.002  0.009  0.015
    4  0.004  0.002  0.009  0.015
    5  0.014  0.000  0.006  0.020
    6  0.004  0.002  0.009  0.015
    7  0.004  0.002  0.009  0.015
    8  0.004  0.002  0.009  0.015
    9  0.005  0.004  0.008  0.016
   10  0.000  0.001  0.015  0.016
   11  0.002  0.000  0.029  0.032
   12  0.000  0.001  0.015  0.016
   13  0.002  0.000  0.029  0.032
   14  0.002  0.000  0.029  0.032
   15  0.022  0.002  0.010  0.034
   16  0.000  0.001  0.015  0.016
   17  0.022  0.002  0.010  0.034
   18  0.022  0.002  0.010  0.034
   19  0.001  0.000  0.014  0.015
   20  0.002  0.000  0.060  0.063
   21  0.002  0.000  0.060  0.063
   22  0.005  0.001  0.021  0.027
   23  0.002  0.000  0.060  0.063
   24  0.005  0.001  0.021  0.027
   25  0.001  0.000  0.014  0.015
   26  0.001  0.000  0.014  0.015
   27  0.005  0.001  0.021  0.027
   28  0.008  0.000  0.002  0.010
   29  0.002  0.000  0.005  0.008
   30  0.002  0.000  0.005  0.008
   31  0.002  0.000  0.005  0.008
   32  0.002  0.000  0.005  0.008
   33  0.002  0.000  0.005  0.008
   34  0.002  0.000  0.005  0.008
   35  0.000  0.001  0.004  0.005
   36  0.005  0.000  0.001  0.006
   37  0.000  0.000  0.000  0.000
   38  0.000  0.000  0.000  0.000
tot    0.187  0.032  0.561  0.779
 
band    20 # energy   -4.99581151 # occ.  2.00000000
 
ion      s      p      d    tot
    1  0.000  0.002  0.003  0.005
    2  0.006  0.001  0.002  0.010
    3  0.008  0.002  0.003  0.013
    4  0.006  0.001  0.002  0.010
    5  0.000  0.001  0.005  0.005
    6  0.000  0.001  0.002  0.003
    7  0.008  0.002  0.003  0.013
    8  0.000  0.001  0.002  0.003
    9  0.000  0.001  0.006  0.007
   10  0.004  0.003  0.013  0.020
   11  0.000  0.001  0.020  0.020
   12  0.001  0.002  0.008  0.011
   13  0.000  0.001  0.020  0.020
   14  0.001  0.000  0.010  0.011
   15  0.003  0.001  0.006  0.009
   16  0.001  0.002  0.008  0.011
   17  0.003  0.001  0.006  0.009
   18  0.011  0.002  0.003  0.016
   19  0.000  0.001  0.005  0.006
   20  0.005  0.004  0.195  0.204
   21  0.001  0.002  0.106  0.110
   22  0.001  0.000  0.009  0.010
   23  0.001  0.002  0.107  0.111
   24  0.002  0.001  0.006  0.009
   25  0.001  0.001  0.002  0.004
   26  0.000  0.001  0.005  0.006
   27  0.001  0.000  0.009  0.010
   28  0.000  0.002  0.001  0.003
   29  0.007  0.002  0.012  0.022
   30  0.009  0.000  0.008  0.017
   31  0.007  0.002  0.012  0.022
   32  0.000  0.001  0.008  0.009
   33  0.009  0.000  0.008  0.017
   34  0.000  0.001  0.008  0.009
   35  0.000  0.001  0.006  0.007
   36  0.000  0.003  0.066  0.069
   37  0.000  0.001  0.000  0.001
   38  0.000  0.004  0.000  0.004
tot    0.098  0.054  0.693  0.845
 
band    21 # energy   -4.99572651 # occ.  2.00000000
 
ion      s      p      d    tot
    1  0.000  0.002  0.003  0.005
    2  0.004  0.001  0.003  0.008
    3  0.002  0.001  0.002  0.004
    4  0.004  0.001  0.003  0.008
    5  0.000  0.001  0.005  0.005
    6  0.010  0.002  0.003  0.014
    7  0.001  0.001  0.002  0.004
    8  0.010  0.002  0.003  0.014
    9  0.000  0.001  0.006  0.007
   10  0.000  0.002  0.006  0.008
   11  0.000  0.000  0.013  0.014
   12  0.003  0.003  0.011  0.017
   13  0.000  0.000  0.013  0.014
   14  0.000  0.001  0.023  0.023
   15  0.008  0.002  0.004  0.013
   16  0.003  0.003  0.011  0.017