PROCAR new format
# of k-points:   10         # of bands:  252         # of ions:   39

 k-point     1 :    0.00000000 0.00000000 0.00000000     weight = 0.01562500

band     1 # energy  -24.91268951 # occ.  2.00000000
 
ion      s      p      d    tot
    1  0.000  0.000  0.000  0.000
    2  0.000  0.000  0.000  0.000
    3  0.000  0.000  0.000  0.000
    4  0.000  0.000  0.000  0.000
    5  0.000  0.000  0.000  0.000
    6  0.000  0.000  0.000  0.000
    7  0.000  0.000  0.000  0.000
    8  0.000  0.000  0.000  0.000
    9  0.000  0.000  0.000  0.000
   10  0.000  0.000  0.000  0.000
   11  0.000  0.000  0.000  0.000
   12  0.000  0.000  0.000  0.000
   13  0.000  0.000  0.000  0.000
   14  0.000  0.000  0.000  0.000
   15  0.000  0.000  0.000  0.000
   16  0.000  0.000  0.000  0.000
   17  0.000  0.000  0.000  0.000
   18  0.000  0.000  0.000  0.000
   19  0.000  0.000  0.000  0.000
   20  0.000  0.000  0.000  0.000
   21  0.000  0.000  0.000  0.000
   22  0.000  0.000  0.000  0.000
   23  0.000  0.000  0.000  0.000
   24  0.000  0.000  0.000  0.000
   25  0.000  0.000  0.000  0.000
   26  0.000  0.000  0.000  0.000
   27  0.000  0.000  0.000  0.000
   28  0.000  0.000  0.000  0.000
   29  0.000  0.000  0.000  0.000
   30  0.000  0.000  0.000  0.000
   31  0.000  0.000  0.000  0.000
   32  0.000  0.000  0.000  0.000
   33  0.000  0.000  0.000  0.000
   34  0.000  0.000  0.000  0.000
   35  0.000  0.000  0.000  0.000
   36  0.000  0.000  0.000  0.000
   37  0.086  0.064  0.000  0.150
   38  0.723  0.011  0.000  0.734
   39  0.055  0.012  0.000  0.066
tot    0.863  0.087  0.000  0.950
 
band     2 # energy  -15.46437402 # occ.  2.00000000
 
ion      s      p      d    tot
    1  0.000  0.000  0.000  0.000
    2  0.000  0.000  0.000  0.000
    3  0.000  0.000  0.000  0.000
    4  0.000  0.000  0.000  0.000
    5  0.000  0.000  0.000  0.000
    6  0.000  0.000  0.000  0.000
    7  0.000  0.000  0.000  0.000
    8  0.000  0.000  0.000  0.000
    9  0.000  0.000  0.000  0.000
   10  0.000  0.000  0.000  0.000
   11  0.000  0.000  0.000  0.000
   12  0.000  0.000  0.000  0.000
   13  0.000  0.000  0.000  0.000
   14  0.000  0.000  0.000  0.000
   15  0.000  0.000  0.000  0.000
   16  0.000  0.000  0.000  0.000
   17  0.000  0.000  0.000  0.000
   18  0.000  0.000  0.000  0.000
   19  0.000  0.000  0.000  0.000
   20  0.000  0.000  0.000  0.000
   21  0.000  0.000  0.000  0.000
   22  0.000  0.000  0.000  0.000
   23  0.000  0.000  0.000  0.000
   24  0.000  0.000  0.000  0.000
   25  0.000  0.000  0.000  0.000
   26  0.000  0.000  0.000  0.000
   27  0.000  0.000  0.000  0.000
   28  0.000  0.000  0.000  0.000
   29  0.000  0.000  0.000  0.000
   30  0.000  0.000  0.000  0.000
   31  0.000  0.000  0.000  0.000
   32  0.000  0.000  0.000  0.000
   33  0.000  0.000  0.000  0.000
   34  0.000  0.000  0.000  0.000
   35  0.000  0.000  0.000  0.000
   36  0.002  0.003  0.004  0.009
   37  0.157  0.049  0.000  0.206
   38  0.023  0.527  0.000  0.550
   39  0.201  0.033  0.000  0.234
tot    0.384  0.611  0.004  0.999
 
band     3 # energy   -8.71744006 # occ.  2.00000000
 
ion      s      p      d    tot
    1  0.001  0.000  0.000  0.001
    2  0.001  0.000  0.000  0.001
    3  0.001  0.000  0.000  0.001
    4  0.001  0.000  0.000  0.001
    5  0.001  0.000  0.000  0.001
    6  0.001  0.000  0.000  0.001
    7  0.001  0.000  0.000  0.001
    8  0.001  0.000  0.000  0.001
    9  0.001  0.000  0.000  0.001
   10  0.004  0.000  0.000  0.004
   11  0.004  0.000  0.000  0.004
   12  0.004  0.000  0.000  0.004
   13  0.004  0.000  0.000  0.004
   14  0.004  0.000  0.000  0.004
   15  0.003  0.000  0.000  0.003
   16  0.004  0.000  0.000  0.004
   17  0.003  0.000  0.000  0.003
   18  0.003  0.000  0.000  0.003
   19  0.005  0.000  0.000  0.005
   20  0.012  0.000  0.002  0.015
   21  0.012  0.000  0.002  0.015
   22  0.005  0.000  0.000  0.005
   23  0.012  0.000  0.002  0.015
   24  0.005  0.000  0.000  0.005
   25  0.005  0.000  0.000  0.005
   26  0.005  0.000  0.000  0.005
   27  0.005  0.000  0.000  0.005
   28  0.002  0.000  0.000  0.002
   29  0.004  0.000  0.000  0.004
   30  0.004  0.000  0.000  0.004
   31  0.004  0.000  0.000  0.004
   32  0.004  0.000  0.000  0.004
   33  0.004  0.000  0.000  0.004
   34  0.004  0.000  0.000  0.004
   35  0.002  0.000  0.000  0.002
   36  0.089  0.046  0.238  0.374
   37  0.146  0.148  0.000  0.294
   38  0.009  0.039  0.000  0.047
   39  0.011  0.001  0.000  0.011
tot    0.384  0.237  0.249  0.870
 
band     4 # energy   -8.30927918 # occ.  2.00000000
 
ion      s      p      d    tot
    1  0.007  0.001  0.000  0.007
    2  0.007  0.001  0.000  0.007
    3  0.007  0.001  0.000  0.007
    4  0.007  0.001  0.000  0.007
    5  0.007  0.001  0.000  0.007
    6  0.007  0.001  0.000  0.007
    7  0.007  0.001  0.000  0.007
    8  0.007  0.001  0.000  0.007
    9  0.007  0.001  0.000  0.007
   10  0.024  0.000  0.000  0.024
   11  0.024  0.000  0.000  0.025
   12  0.024  0.000  0.000  0.024
   13  0.024  0.000  0.000  0.025
   14  0.024  0.000  0.000  0.025
   15  0.025  0.000  0.000  0.025
   16  0.024  0.000  0.000  0.024
   17  0.025  0.000  0.000  0.025
   18  0.025  0.000  0.000  0.025
   19  0.018  0.000  0.000  0.019
   20  0.014  0.001  0.001  0.015
   21  0.014  0.001  0.001  0.015
   22  0.019  0.000  0.000  0.019
   23  0.014  0.001  0.001  0.015
   24  0.019  0.000  0.000  0.019
   25  0.018  0.000  0.000  0.019
   26  0.018  0.000  0.000  0.019
   27  0.019  0.000  0.000  0.019
   28  0.003  0.000  0.000  0.003
   29  0.002  0.000  0.000  0.003
   30  0.002  0.000  0.000  0.003
   31  0.002  0.000  0.000  0.003
   32  0.002  0.000  0.000  0.003
   33  0.002  0.000  0.000  0.003
   34  0.002  0.000  0.000  0.003
   35  0.003  0.000  0.000  0.004
   36  0.009  0.021  0.069  0.098
   37  0.041  0.039  0.000  0.080
   38  0.002  0.009  0.000  0.012
   39  0.003  0.000  0.000  0.003
tot    0.504  0.081  0.076  0.662
 
band     5 # energy   -7.63459341 # occ.  2.00000000
 
ion      s      p      d    tot
    1  0.000  0.000  0.000  0.000
    2  0.000  0.000  0.000  0.000
    3  0.000  0.000  0.000  0.000
    4  0.000  0.000  0.000  0.000
    5  0.000  0.000  0.000  0.000
    6  0.000  0.000  0.000  0.000
    7  0.000  0.000  0.000  0.000
    8  0.000  0.000  0.000  0.000
    9  0.000  0.000  0.000  0.000
   10  0.000  0.000  0.000  0.000
   11  0.000  0.000  0.000  0.000
   12  0.000  0.000  0.000  0.000
   13  0.000  0.000  0.000  0.000
   14  0.000  0.000  0.000  0.000
   15  0.000  0.000  0.000  0.000
   16  0.000  0.000  0.000  0.000
   17  0.000  0.000  0.000  0.000
   18  0.000  0.000  0.000  0.000
   19  0.000  0.000  0.000  0.000
   20  0.000  0.000  0.000  0.000
   21  0.000  0.000  0.000  0.000
   22  0.000  0.000  0.000  0.000
   23  0.000  0.000  0.000  0.000
   24  0.000  0.000  0.000  0.000
   25  0.000  0.000  0.000  0.000
   26  0.000  0.000  0.000  0.000
   27  0.000  0.000  0.000  0.000
   28  0.000  0.000  0.000  0.000
   29  0.000  0.000  0.001  0.001
   30  0.000  0.000  0.000  0.000
   31  0.000  0.000  0.001  0.001
   32  0.000  0.000  0.001  0.001
   33  0.000  0.000  0.000  0.000
   34  0.000  0.000  0.001  0.001
   35  0.000  0.000  0.000  0.000
   36  0.000  0.003  0.025  0.028
   37  0.000  0.124  0.000  0.124
   38  0.000  0.526  0.000  0.526
   39  0.000  0.007  0.000  0.007
tot    0.002  0.660  0.029  0.691
 
band     6 # energy   -7.63440712 # occ.  2.00000000
 
ion      s      p      d    tot
    1  0.000  0.000  0.000  0.000
    2  0.000  0.000  0.000  0.000
    3  0.000  0.000  0.000  0.000
    4  0.000  0.000  0.000  0.000
    5  0.000  0.000  0.000  0.000
    6  0.000  0.000  0.000  0.000
    7  0.000  0.000  0.000  0.000
    8  0.000  0.000  0.000  0.000
    9  0.000  0.000  0.000  0.000
   10  0.000  0.000  0.000  0.000
   11  0.000  0.000  0.000  0.000
   12  0.000  0.000  0.000  0.000
   13  0.000  0.000  0.000  0.000
   14  0.000  0.000  0.000  0.000
   15  0.000  0.000  0.000  0.000
   16  0.000  0.000  0.000  0.000
   17  0.000  0.000  0.000  0.000
   18  0.000  0.000  0.000  0.000
   19  0.000  0.000  0.000  0.000
   20  0.000  0.000  0.000  0.000
   21  0.000  0.000  0.000  0.000
   22  0.000  0.000  0.000  0.000
   23  0.000  0.000  0.000  0.000
   24  0.000  0.000  0.000  0.000
   25  0.000  0.000  0.000  0.000
   26  0.000  0.000  0.000  0.000
   27  0.000  0.000  0.000  0.000
   28  0.000  0.000  0.000  0.000
   29  0.000  0.000  0.000  0.001
   30  0.001  0.000  0.001  0.002
   31  0.000  0.000  0.000  0.001
   32  0.000  0.000  0.000  0.001
   33  0.001  0.000  0.001  0.002
   34  0.000  0.000  0.000  0.001
   35  0.000  0.000  0.000  0.000
   36  0.000  0.003  0.025  0.028
   37  0.000  0.124  0.000  0.124
   38  0.000  0.526  0.000  0.526
   39  0.000  0.007  0.000  0.007
tot    0.002  0.660  0.029  0.691
 
band     7 # energy   -7.18089871 # occ.  2.00000000
 
ion      s      p      d    tot
    1  0.017  0.000  0.001  0.019
    2  0.016  0.000  0.001  0.018
    3  0.016  0.000  0.001  0.018
    4  0.016  0.000  0.001  0.018
    5  0.016  0.000  0.001  0.018
    6  0.016  0.000  0.001  0.018
    7  0.016  0.000  0.001  0.018
    8  0.016  0.000  0.001  0.018
    9  0.016  0.000  0.001  0.017
   10  0.010  0.001  0.002  0.013
   11  0.009  0.001  0.002  0.013
   12  0.010  0.001  0.002  0.013
   13  0.009  0.001  0.002  0.013
   14  0.009  0.001  0.002  0.013
   15  0.008  0.002  0.003  0.012
   16  0.010  0.001  0.002  0.013
   17  0.008  0.002  0.003  0.012
   18  0.008  0.002  0.003  0.012
   19  0.016  0.001  0.004  0.021
   20  0.012  0.001  0.004  0.017
   21  0.012  0.001  0.004  0.017
   22  0.018  0.001  0.003  0.022
   23  0.012  0.001  0.004  0.017
   24  0.018  0.001  0.003  0.022
   25  0.016  0.001  0.004  0.021
   26  0.016  0.001  0.004  0.021
   27  0.018  0.001  0.003  0.022
   28  0.016  0.001  0.000  0.017
   29  0.013  0.001  0.001  0.014
   30  0.013  0.001  0.001  0.014
   31  0.013  0.001  0.001  0.014
   32  0.013  0.001  0.001  0.014
   33  0.013  0.001  0.001  0.014
   34  0.013  0.001  0.001  0.014
   35  0.016  0.001  0.000  0.017
   36  0.001  0.004  0.016  0.022
   37  0.005  0.004  0.000  0.009
   38  0.000  0.001  0.000  0.001
   39  0.000  0.000  0.000  0.000
tot    0.483  0.041  0.087  0.610
 
band     8 # energy   -6.27735304 # occ.  2.00000000
 
ion      s      p      d    tot
    1  0.011  0.000  0.022  0.033
    2  0.018  0.000  0.017  0.035
    3  0.018  0.000  0.017  0.035
    4  0.018  0.000  0.017  0.035
    5  0.012  0.000  0.015  0.028
    6  0.018  0.000  0.017  0.035
    7  0.018  0.000  0.017  0.035
    8  0.018  0.000  0.017  0.035
    9  0.034  0.000  0.012  0.046
   10  0.012  0.001  0.018  0.031
   11  0.014  0.002  0.015  0.030
   12  0.012  0.001  0.018  0.031
   13  0.014  0.002  0.015  0.030
   14  0.014  0.002  0.015  0.030
   15  0.000  0.001  0.021  0.022
   16  0.012  0.001  0.018  0.031
   17  0.000  0.001  0.021  0.022
   18  0.000  0.001  0.021  0.022
   19  0.000  0.001  0.004  0.005
   20  0.007  0.001  0.004  0.011
   21  0.007  0.001  0.004  0.011
   22  0.002  0.001  0.001  0.004
   23  0.007  0.001  0.004  0.011
   24  0.002  0.001  0.001  0.004
   25  0.000  0.001  0.004  0.005
   26  0.000  0.001  0.004  0.005
   27  0.002  0.001  0.001  0.004
   28  0.007  0.000  0.001  0.009
   29  0.005  0.000  0.003  0.008
   30  0.005  0.000  0.003  0.008
   31  0.005  0.000  0.003  0.008
   32  0.005  0.000  0.003  0.008
   33  0.005  0.000  0.003  0.008
   34  0.005  0.000  0.003  0.008
   35  0.010  0.000  0.002  0.012
   36  0.000  0.001  0.002  0.004
   37  0.000  0.000  0.000  0.000
   38  0.000  0.000  0.000  0.000
   39  0.000  0.000  0.000  0.000
tot    0.314  0.021  0.363  0.699
 
band     9 # energy   -6.25253612 # occ.  2.00000000
 
ion      s      p      d    tot
    1  0.000  0.001  0.009  0.010
    2  0.003  0.001  0.004  0.007
    3  0.007  0.001  0.003  0.011
    4  0.004  0.001  0.004  0.008
    5  0.000  0.001  0.006  0.007
    6  0.001  0.000  0.003  0.004
    7  0.007  0.001  0.003  0.011
    8  0.000  0.000  0.003  0.004
    9  0.000  0.000  0.001  0.001
   10  0.000  0.000  0.039  0.039
   11  0.035  0.002  0.015  0.051
   12  0.032  0.002  0.012  0.045
   13  0.039  0.001  0.014  0.054
   14  0.000  0.004  0.021  0.025
   15  0.000  0.001  0.011  0.012
   16  0.029  0.002  0.014  0.045
   17  0.000  0.001  0.011  0.012
   18  0.000  0.003  0.006  0.009
   19  0.009  0.001  0.011  0.022
   20  0.000  0.002  0.035  0.037
   21  0.047  0.002  0.014  0.062
   22  0.011  0.001  0.010  0.022
   23  0.043  0.002  0.015  0.060
   24  0.000  0.001  0.026  0.026
   25  0.000  0.004  0.004  0.008
   26  0.010  0.001  0.012  0.023
   27  0.010  0.001  0.011  0.023
   28  0.000  0.000  0.001  0.002
   29  0.000  0.000  0.002  0.003
   30  0.004  0.001  0.003  0.008
   31  0.000  0.000  0.002  0.003
   32  0.005  0.001  0.003  0.010
   33  0.004  0.001  0.003  0.007
   34  0.005  0.001  0.003  0.009
   35  0.000  0.000  0.004  0.004
   36  0.000  0.002  0.008  0.010
   37  0.000  0.000  0.000  0.000
   38  0.000  0.000  0.000  0.000
   39  0.000  0.000  0.000  0.000
tot    0.306  0.043  0.345  0.694
 
band    10 # energy   -6.25253236 # occ.  2.00000000
 
ion      s      p      d    tot
    1  0.000  0.001  0.009  0.010
    2  0.004  0.001  0.003  0.008
    3  0.001  0.000  0.003  0.004
    4  0.003  0.001  0.003  0.007
    5  0.000  0.001  0.006  0.007
    6  0.006  0.001  0.004  0.011
    7  0.000  0.000  0.003  0.004
    8  0.007  0.001  0.004  0.011
    9  0.000  0.000  0.001  0.001
   10  0.040  0.002  0.004  0.047
   11  0.014  0.003  0.018  0.035
   12  0.009  0.000  0.031  0.041
   13  0.011  0.003  0.019  0.033
   14  0.049  0.001  0.012  0.062
   15  0.000  0.002  0.008  0.010
   16  0.012  0.001  0.029  0.041
   17  0.000  0.003  0.007  0.010
   18  0.000  0.000  0.012  0.013
   19  0.004  0.003  0.007  0.013
   20  0.060  0.002  0.008  0.069
   21  0.013  0.002  0.029  0.044
   22  0.003  0.001  0.021  0.025
   23  0.017  0.002  0.027  0.046
   24  0.014  0.002  0.006  0.021
   25  0.013  0.000  0.014  0.028
   26  0.003  0.003  0.006  0.012
   27  0.004  0.001  0.020  0.025
   28  0.000  0.000  0.001  0.002
   29  0.006  0.001  0.003  0.010
   30  0.002  0.001  0.003  0.005
   31  0.006  0.001  0.003  0.010
   32  0.001  0.000  0.002  0.003
   33  0.002  0.001  0.003  0.006
   34  0.001  0.000  0.002  0.004
   35  0.000  0.000  0.004  0.004
   36  0.000  0.002  0.008  0.010
   37  0.000  0.000  0.000  0.000
   38  0.000  0.000  0.000  0.000
   39  0.000  0.000  0.000  0.000
tot    0.306  0.043  0.345  0.694
 
band    11 # energy   -6.23340758 # occ.  2.00000000
 
ion      s      p      d    tot
    1  0.023  0.001  0.000  0.024
    2  0.002  0.000  0.007  0.010
    3  0.002  0.000  0.007  0.010
    4  0.002  0.000  0.007  0.010
    5  0.001  0.000  0.007  0.007
    6  0.002  0.000  0.007  0.010
    7  0.002  0.000  0.007  0.010
    8  0.002  0.000  0.007  0.010
    9  0.001  0.001  0.005  0.006
   10  0.007  0.001  0.027  0.035
   11  0.003  0.001  0.022  0.026
   12  0.007  0.001  0.027  0.035
   13  0.003  0.001  0.022  0.026
   14  0.003  0.001  0.022  0.026
   15  0.026  0.002  0.006  0.034
   16  0.007  0.001  0.027  0.035
   17  0.026  0.002  0.006  0.034
   18  0.026  0.002  0.006  0.034
   19  0.012  0.002  0.012  0.027
   20  0.012  0.000  0.022  0.034
   21  0.011  0.000  0.022  0.034
   22  0.009  0.001  0.017  0.028
   23  0.012  0.000  0.022  0.034
   24  0.009  0.001  0.017  0.028
   25  0.012  0.002  0.012  0.026
   26  0.012  0.002  0.012  0.027
   27  0.009  0.001  0.017  0.028
   28  0.000  0.000  0.002  0.002
   29  0.002  0.000  0.005  0.007
   30  0.002  0.000  0.005  0.007
   31  0.002  0.000  0.005  0.007
   32  0.002  0.000  0.005  0.007
   33  0.002  0.000  0.005  0.007
   34  0.002  0.000  0.005  0.007
   35  0.015  0.001  0.000  0.016
   36  0.000  0.004  0.001  0.005
   37  0.001  0.001  0.000  0.002
   38  0.000  0.000  0.000  0.000
   39  0.000  0.000  0.000  0.000
tot    0.274  0.032  0.411  0.717
 
band    12 # energy   -6.22432759 # occ.  2.00000000
 
ion      s      p      d    tot
    1  0.001  0.001  0.002  0.003
    2  0.001  0.001  0.006  0.008
    3  0.001  0.001  0.006  0.008
    4  0.001  0.001  0.006  0.008
    5  0.021  0.002  0.000  0.023
    6  0.001  0.001  0.006  0.008
    7  0.001  0.001  0.006  0.008
    8  0.001  0.001  0.006  0.008
    9  0.000  0.000  0.005  0.006
   10  0.018  0.003  0.006  0.027
   11  0.018  0.001  0.018  0.038
   12  0.018  0.003  0.006  0.027
   13  0.018  0.001  0.018  0.038
   14  0.018  0.001  0.018  0.038
   15  0.007  0.000  0.026  0.033
   16  0.018  0.003  0.006  0.027
   17  0.007  0.000  0.026  0.033
   18  0.006  0.000  0.026  0.033
   19  0.015  0.001  0.017  0.033
   20  0.018  0.003  0.008  0.028
   21  0.018  0.003  0.008  0.028
   22  0.005  0.000  0.024  0.029
   23  0.018  0.003  0.008  0.028
   24  0.004  0.000  0.024  0.029
   25  0.014  0.001  0.017  0.032
   26  0.015  0.001  0.017  0.033
   27  0.005  0.000  0.024  0.029
   28  0.016  0.001  0.000  0.018
   29  0.001  0.000  0.005  0.006
   30  0.001  0.000  0.005  0.006
   31  0.001  0.000  0.005  0.006
   32  0.001  0.000  0.005  0.006
   33  0.001  0.000  0.005  0.006
   34  0.001  0.000  0.005  0.006
   35  0.000  0.000  0.004  0.005
   36  0.000  0.001  0.000  0.002
   37  0.000  0.000  0.000  0.000
   38  0.000  0.000  0.000  0.000
   39  0.000  0.000  0.000  0.000
tot    0.290  0.037  0.376  0.703
 
band    13 # energy   -6.21989466 # occ.  2.00000000
 
ion      s      p      d    tot
    1  0.000  0.001  0.003  0.004
    2  0.004  0.001  0.004  0.008
    3  0.007  0.001  0.003  0.012
    4  0.004  0.001  0.004  0.009
    5  0.000  0.000  0.005  0.005
    6  0.001  0.000  0.003  0.004
    7  0.008  0.001  0.004  0.013
    8  0.001  0.000  0.003  0.004
    9  0.000  0.001  0.010  0.012
   10  0.021  0.000  0.016  0.038
   11  0.003  0.001  0.020  0.024
   12  0.005  0.004  0.006  0.015
   13  0.002  0.001  0.021  0.025
   14  0.011  0.001  0.007  0.019
   15  0.017  0.001  0.031  0.049
   16  0.006  0.003  0.007  0.016
   17  0.014  0.001  0.032  0.048
   18  0.061  0.002  0.006  0.069
   19  0.011  0.001  0.028  0.040
   20  0.000  0.001  0.013  0.013
   21  0.000  0.002  0.009  0.012
   22  0.009  0.003  0.016  0.028
   23  0.000  0.002  0.010  0.012
   24  0.041  0.001  0.012  0.053
   25  0.040  0.002  0.003  0.045
   26  0.009  0.001  0.030  0.039
   27  0.011  0.003  0.016  0.030
   28  0.000  0.000  0.007  0.007
   29  0.000  0.000  0.002  0.003
   30  0.003  0.001  0.002  0.006
   31  0.000  0.000  0.002  0.003
   32  0.005  0.001  0.003  0.009
   33  0.003  0.001  0.002  0.005
   34  0.005  0.001  0.003  0.009
   35  0.000  0.001  0.005  0.005
   36  0.000  0.000  0.001  0.001
   37  0.000  0.000  0.000  0.000
   38  0.000  0.000  0.000  0.000
   39  0.000  0.000  0.000  0.000
tot    0.302  0.042  0.350  0.693
 
band    14 # energy   -6.21988263 # occ.  2.00000000
 
ion      s      p      d    tot
    1  0.000  0.001  0.003  0.004
    2  0.004  0.001  0.003  0.008
    3  0.001  0.000  0.003  0.004
    4  0.004  0.001  0.003  0.008
    5  0.000  0.000  0.005  0.005
    6  0.007  0.001  0.004  0.013
    7  0.000  0.000  0.003  0.004
    8  0.008  0.001  0.004  0.013
    9  0.000  0.001  0.010  0.012
   10  0.000  0.005  0.004  0.008
   11  0.008  0.001  0.012  0.021
   12  0.017  0.001  0.013  0.031
   13  0.008  0.001  0.011  0.020
   14  0.000  0.001  0.025  0.027
   15  0.045  0.001  0.015  0.061
   16  0.016  0.001  0.013  0.030
   17  0.047  0.001  0.014  0.063
   18  0.000  0.001  0.040  0.041
   19  0.029  0.002  0.012  0.043
   20  0.000  0.003  0.008  0.011
   21  0.000  0.001  0.012  0.013
   22  0.031  0.001  0.013  0.046
   23  0.000  0.001  0.012  0.013
   24  0.000  0.004  0.017  0.021
   25  0.000  0.000  0.038  0.038
   26  0.031  0.002  0.011  0.043
   27  0.030  0.001  0.013  0.044
   28  0.000  0.000  0.007  0.007
   29  0.005  0.001  0.003  0.009
   30  0.002  0.001  0.003  0.006
   31  0.005  0.001  0.003  0.009
   32  0.000  0.000  0.002  0.003
   33  0.003  0.001  0.003  0.006
   34  0.001  0.000  0.002  0.003
   35  0.000  0.001  0.005  0.005
   36  0.000  0.000  0.001  0.001
   37  0.000  0.000  0.000  0.000
   38  0.000  0.000  0.000  0.000
   39  0.000  0.000  0.000  0.000
tot    0.302  0.042  0.350  0.693
 
band    15 # energy   -6.14084418 # occ.  2.00000000
 
ion      s      p      d    tot
    1  0.003  0.000  0.000  0.003
    2  0.000  0.000  0.002  0.003
    3  0.000  0.000  0.002  0.003
    4  0.000  0.000  0.002  0.003
    5  0.004  0.000  0.000  0.004
    6  0.000  0.000  0.002  0.003
    7  0.000  0.000  0.002  0.003
    8  0.000  0.000  0.002  0.003
    9  0.004  0.001  0.001  0.006
   10  0.002  0.000  0.013  0.015
   11  0.005  0.001  0.003  0.009
   12  0.002  0.000  0.013  0.015
   13  0.005  0.001  0.003  0.009
   14  0.005  0.001  0.003  0.009
   15  0.011  0.001  0.008  0.020
   16  0.002  0.000  0.013  0.015
   17  0.011  0.001  0.008  0.020
   18  0.011  0.001  0.008  0.020
   19  0.005  0.001  0.017  0.023
   20  0.000  0.000  0.027  0.027
   21  0.000  0.000  0.027  0.027
   22  0.015  0.002  0.016  0.033
   23  0.000  0.000  0.027  0.027
   24  0.015  0.002  0.016  0.033
   25  0.005  0.001  0.017  0.023
   26  0.005  0.001  0.017  0.023
   27  0.015  0.002  0.016  0.033
   28  0.018  0.000  0.019  0.038
   29  0.019  0.000  0.015  0.034
   30  0.019  0.000  0.015  0.034
   31  0.019  0.000  0.015  0.034
   32  0.019  0.000  0.015  0.034
   33  0.019  0.000  0.015  0.034
   34  0.019  0.000  0.015  0.034
   35  0.015  0.000  0.017  0.032
   36  0.010  0.000  0.023  0.033
   37  0.001  0.001  0.000  0.002
   38  0.000  0.000  0.000  0.000
   39  0.000  0.000  0.000  0.000
tot    0.280  0.021  0.419  0.721
 
band    16 # energy   -5.76173200 # occ.  2.00000000
 
ion      s      p      d    tot
    1  0.000  0.001  0.004  0.005
    2  0.001  0.001  0.005  0.006
    3  0.009  0.001  0.005  0.015
    4  0.001  0.001  0.005  0.006
    5  0.000  0.001  0.011  0.012
    6  0.005  0.001  0.004  0.010
    7  0.009  0.001  0.005  0.015
    8  0.005  0.001  0.004  0.010
    9  0.000  0.000  0.009  0.009
   10  0.000  0.001  0.051  0.051
   11  0.016  0.001  0.021  0.038
   12  0.007  0.002  0.019  0.028
   13  0.016  0.001  0.021  0.038
   14  0.000  0.000  0.051  0.051
   15  0.002  0.000  0.020  0.022
   16  0.007  0.002  0.019  0.028
   17  0.002  0.000  0.020  0.022
   18  0.000  0.001  0.011  0.012
   19  0.006  0.000  0.019  0.026
   20  0.000  0.000  0.068  0.068
   21  0.017  0.001  0.022  0.040
   22  0.003  0.001  0.019  0.023
   23  0.017  0.001  0.021  0.040
   24  0.000  0.001  0.035  0.036
   25  0.000  0.001  0.013  0.014
   26  0.006  0.000  0.019  0.025
   27  0.003  0.001  0.019  0.023
   28  0.000  0.000  0.008  0.008
   29  0.002  0.000  0.004  0.006
   30  0.009  0.001  0.004  0.014
   31  0.002  0.000  0.004  0.006
   32  0.002  0.001  0.004  0.007
   33  0.009  0.001  0.004  0.014
   34  0.003  0.001  0.004  0.008
   35  0.000  0.000  0.003  0.003
   36  0.000  0.002  0.008  0.010
   37  0.000  0.000  0.000  0.000
   38  0.000  0.000  0.000  0.000
   39  0.000  0.000  0.000  0.000
tot    0.156  0.031  0.562  0.749
 
band    17 # energy   -5.76173009 # occ.  2.00000000
 
ion      s      p      d    tot
    1  0.000  0.001  0.004  0.005
    2  0.009  0.001  0.004  0.014
    3  0.001  0.000  0.004  0.006
    4  0.009  0.001  0.004  0.014
    5  0.000  0.001  0.011  0.012
    6  0.005  0.001  0.005  0.011
    7  0.001  0.000  0.004  0.006
    8  0.005  0.001  0.005  0.011
    9  0.000  0.000  0.009  0.009
   10  0.009  0.002  0.009  0.020
   11  0.005  0.000  0.041  0.047
   12  0.002  0.001  0.040  0.043
   13  0.005  0.000  0.041  0.047
   14  0.021  0.001  0.011  0.033
   15  0.001  0.001  0.014  0.015
   16  0.002  0.001  0.040  0.044
   17  0.001  0.001  0.014  0.015
   18  0.002  0.000  0.024  0.026
   19  0.002  0.001  0.015  0.017
   20  0.023  0.002  0.006  0.031
   21  0.006  0.000  0.052  0.058
   22  0.001  0.001  0.030  0.032
   23  0.006  0.000  0.053  0.059
   24  0.004  0.001  0.013  0.018
   25  0.008  0.000  0.022  0.030
   26  0.002  0.001  0.015  0.018
   27  0.001  0.001  0.030  0.032
   28  0.000  0.000  0.008  0.008
   29  0.007  0.001  0.004  0.012
   30  0.000  0.000  0.004  0.004
   31  0.007  0.001  0.004  0.012
   32  0.006  0.001  0.004  0.011
   33  0.000  0.000  0.004  0.004
   34  0.006  0.001  0.004  0.011
   35  0.000  0.000  0.003  0.003
   36  0.000  0.002  0.008  0.010
   37  0.000  0.000  0.000  0.000
   38  0.000  0.000  0.000  0.000
   39  0.000  0.000  0.000  0.000
tot    0.156  0.031  0.562  0.749
 
band    18 # energy   -5.75896409 # occ.  2.00000000
 
ion      s      p      d    tot
    1  0.015  0.002  0.002  0.019
    2  0.000  0.001  0.008  0.009
    3  0.000  0.001  0.008  0.009
    4  0.000  0.001  0.008  0.009
    5  0.000  0.000  0.002  0.002
    6  0.000  0.001  0.008  0.009
    7  0.000  0.001  0.008  0.009
    8  0.000  0.001  0.008  0.009
    9  0.016  0.001  0.000  0.017
   10  0.010  0.002  0.012  0.023
   11  0.003  0.000  0.041  0.044
   12  0.010  0.002  0.012  0.023
   13  0.003  0.000  0.041  0.044
   14  0.003  0.000  0.040  0.044
   15  0.002  0.001  0.026  0.030
   16  0.010  0.002  0.012  0.023
   17  0.002  0.001  0.026  0.030
   18  0.002  0.001  0.026  0.029
   19  0.005  0.001  0.013  0.019
   20  0.001  0.000  0.047  0.048
   21  0.001  0.000  0.047  0.048
   22  0.012  0.001  0.019  0.032
   23  0.001  0.000  0.047  0.048
   24  0.012  0.001  0.019  0.033
   25  0.005  0.001  0.013  0.019
   26  0.005  0.001  0.013  0.019
   27  0.012  0.001  0.019  0.032
   28  0.014  0.001  0.000  0.015
   29  0.000  0.001  0.006  0.007
   30  0.000  0.001  0.006  0.007
   31  0.000  0.001  0.006  0.007
   32  0.000  0.001  0.006  0.007
   33  0.000  0.001  0.006  0.007
   34  0.000  0.001  0.006  0.007
   35  0.009  0.001  0.003  0.013
   36  0.001  0.000  0.001  0.001
   37  0.000  0.000  0.000  0.000
   38  0.000  0.000  0.000  0.000
   39  0.000  0.000  0.000  0.000
tot    0.155  0.030  0.564  0.749
 
band    19 # energy   -5.73482406 # occ.  2.00000000
 
ion      s      p      d    tot
    1  0.000  0.001  0.014  0.015
    2  0.010  0.001  0.004  0.016
    3  0.001  0.000  0.005  0.007
    4  0.010  0.001  0.004  0.016
    5  0.000  0.000  0.005  0.005
    6  0.004  0.001  0.005  0.011
    7  0.001  0.000  0.005  0.007
    8  0.004  0.001  0.005  0.011
    9  0.000  0.001  0.007  0.008
   10  0.000  0.001  0.029  0.030
   11  0.001  0.001  0.019  0.021
   12  0.008  0.000  0.022  0.030
   13  0.001  0.001  0.019  0.021
   14  0.000  0.001  0.020  0.021
   15  0.013  0.002  0.020  0.034
   16  0.008  0.000  0.022  0.030
   17  0.013  0.002  0.020  0.034
   18  0.000  0.000  0.063  0.063
   19  0.013  0.001  0.019  0.033
   20  0.000  0.002  0.017  0.018
   21  0.000  0.001  0.021  0.022
   22  0.016  0.001  0.021  0.038
   23  0.000  0.001  0.021  0.022
   24  0.000  0.000  0.035  0.035
   25  0.000  0.000  0.063  0.063
   26  0.013  0.001  0.019  0.033
   27  0.016  0.001  0.021  0.038
   28  0.000  0.001  0.005  0.006
   29  0.006  0.001  0.004  0.012
   30  0.000  0.000  0.004  0.005
   31  0.006  0.001  0.004  0.012
   32  0.005  0.001  0.003  0.008
   33  0.000  0.000  0.004  0.005
   34  0.005  0.001  0.003  0.008
   35  0.000  0.001  0.009  0.010
   36  0.000  0.000  0.002  0.002
   37  0.000  0.000  0.000  0.000
   38  0.000  0.000  0.000  0.000
   39  0.000  0.000  0.000  0.000
tot    0.154  0.030  0.565  0.749
 
band    20 # energy   -5.73480593 # occ.  2.00000000
 
ion      s      p      d    tot
    1  0.000  0.001  0.014  0.015
    2  0.000  0.001  0.005  0.006
    3  0.009  0.001  0.005  0.015
    4  0.000  0.001  0.005  0.006
    5  0.000  0.000  0.005  0.005
    6  0.006  0.001  0.004  0.011
    7  0.009  0.001  0.005  0.015
    8  0.006  0.001  0.004  0.011
    9  0.000  0.001  0.007  0.008
   10  0.011  0.000  0.020  0.031
   11  0.000  0.001  0.020  0.021
   12  0.003  0.001  0.027  0.030
   13  0.000  0.001  0.020  0.021
   14  0.001  0.001  0.019  0.021
   15  0.004  0.001  0.049  0.054
   16  0.003  0.001  0.027  0.030
   17  0.004  0.001  0.049  0.053
   18  0.017  0.002  0.006  0.025
   19  0.004  0.001  0.048  0.053
   20  0.000  0.000  0.022  0.023
   21  0.000  0.001  0.018  0.020
   22  0.005  0.001  0.030  0.036
   23  0.000  0.001  0.018  0.020
   24  0.022  0.001  0.016  0.039
   25  0.017  0.001  0.005  0.024
   26  0.004  0.001  0.048  0.053
   27  0.005  0.001  0.030  0.036
   28  0.000  0.001  0.005  0.006
   29  0.001  0.000  0.003  0.005
   30  0.007  0.001  0.003  0.012
   31  0.001  0.000  0.003  0.005
   32  0.003  0.001  0.005  0.008
   33  0.007  0.001  0.003  0.012
   34  0.003  0.001  0.005  0.008
   35  0.000  0.001  0.009  0.010
   36  0.000  0.000  0.002  0.002
   37  0.000  0.000  0.000  0.000
   38  0.000  0.000  0.000  0.000
   39  0.000  0.000  0.000  0.000