PROCAR new format
# of k-points:   10         # of bands:  252         # of ions:   39

 k-point     1 :    0.00000000 0.00000000 0.00000000     weight = 0.01562500

band     1 # energy  -24.21611734 # occ.  2.00000000
 
ion      s      p      d    tot
    1  0.000  0.000  0.000  0.000
    2  0.000  0.000  0.000  0.000
    3  0.000  0.000  0.000  0.000
    4  0.000  0.000  0.000  0.000
    5  0.000  0.000  0.000  0.000
    6  0.000  0.000  0.000  0.000
    7  0.000  0.000  0.000  0.000
    8  0.000  0.000  0.000  0.000
    9  0.000  0.000  0.000  0.000
   10  0.000  0.000  0.000  0.000
   11  0.000  0.000  0.000  0.000
   12  0.000  0.000  0.000  0.000
   13  0.000  0.000  0.000  0.000
   14  0.000  0.000  0.000  0.000
   15  0.000  0.000  0.000  0.000
   16  0.000  0.000  0.000  0.000
   17  0.000  0.000  0.000  0.000
   18  0.000  0.000  0.000  0.000
   19  0.000  0.000  0.000  0.000
   20  0.000  0.000  0.000  0.000
   21  0.000  0.000  0.000  0.000
   22  0.000  0.000  0.000  0.000
   23  0.000  0.000  0.000  0.000
   24  0.000  0.000  0.000  0.000
   25  0.000  0.000  0.000  0.000
   26  0.000  0.000  0.000  0.000
   27  0.000  0.000  0.000  0.000
   28  0.000  0.000  0.000  0.000
   29  0.000  0.000  0.000  0.000
   30  0.000  0.000  0.000  0.000
   31  0.000  0.000  0.000  0.000
   32  0.000  0.000  0.000  0.000
   33  0.000  0.000  0.000  0.000
   34  0.000  0.000  0.000  0.000
   35  0.000  0.000  0.000  0.000
   36  0.000  0.000  0.000  0.000
   37  0.078  0.059  0.000  0.137
   38  0.728  0.007  0.000  0.735
   39  0.061  0.013  0.000  0.075
tot    0.867  0.079  0.000  0.947
 
band     2 # energy  -14.84707425 # occ.  2.00000000
 
ion      s      p      d    tot
    1  0.000  0.000  0.000  0.000
    2  0.000  0.000  0.000  0.000
    3  0.000  0.000  0.000  0.000
    4  0.000  0.000  0.000  0.000
    5  0.000  0.000  0.000  0.000
    6  0.000  0.000  0.000  0.000
    7  0.000  0.000  0.000  0.000
    8  0.000  0.000  0.000  0.000
    9  0.000  0.000  0.000  0.000
   10  0.000  0.000  0.000  0.000
   11  0.000  0.000  0.000  0.000
   12  0.000  0.000  0.000  0.000
   13  0.000  0.000  0.000  0.000
   14  0.000  0.000  0.000  0.000
   15  0.000  0.000  0.000  0.000
   16  0.000  0.000  0.000  0.000
   17  0.000  0.000  0.000  0.000
   18  0.000  0.000  0.000  0.000
   19  0.000  0.000  0.000  0.000
   20  0.000  0.000  0.000  0.000
   21  0.000  0.000  0.000  0.000
   22  0.000  0.000  0.000  0.000
   23  0.000  0.000  0.000  0.000
   24  0.000  0.000  0.000  0.000
   25  0.000  0.000  0.000  0.000
   26  0.000  0.000  0.000  0.000
   27  0.000  0.000  0.000  0.000
   28  0.000  0.000  0.000  0.000
   29  0.000  0.000  0.000  0.000
   30  0.000  0.000  0.000  0.000
   31  0.000  0.000  0.000  0.000
   32  0.000  0.000  0.000  0.000
   33  0.000  0.000  0.000  0.000
   34  0.000  0.000  0.000  0.000
   35  0.000  0.000  0.000  0.000
   36  0.001  0.001  0.001  0.004
   37  0.151  0.055  0.000  0.207
   38  0.017  0.535  0.000  0.551
   39  0.203  0.033  0.000  0.236
tot    0.372  0.624  0.001  0.998
 
band     3 # energy   -8.51314464 # occ.  2.00000000
 
ion      s      p      d    tot
    1  0.006  0.001  0.000  0.006
    2  0.006  0.000  0.000  0.006
    3  0.006  0.000  0.000  0.006
    4  0.006  0.000  0.000  0.006
    5  0.006  0.000  0.000  0.006
    6  0.006  0.000  0.000  0.006
    7  0.006  0.000  0.000  0.006
    8  0.006  0.000  0.000  0.006
    9  0.006  0.000  0.000  0.006
   10  0.025  0.000  0.000  0.025
   11  0.025  0.000  0.000  0.026
   12  0.025  0.000  0.000  0.025
   13  0.025  0.000  0.000  0.026
   14  0.025  0.000  0.000  0.026
   15  0.024  0.000  0.000  0.024
   16  0.025  0.000  0.000  0.025
   17  0.024  0.000  0.000  0.024
   18  0.024  0.000  0.000  0.024
   19  0.023  0.000  0.000  0.023
   20  0.029  0.000  0.000  0.030
   21  0.029  0.000  0.000  0.030
   22  0.024  0.000  0.000  0.024
   23  0.029  0.000  0.000  0.030
   24  0.024  0.000  0.000  0.024
   25  0.023  0.000  0.000  0.023
   26  0.023  0.000  0.000  0.023
   27  0.024  0.000  0.000  0.024
   28  0.005  0.000  0.000  0.006
   29  0.006  0.000  0.000  0.006
   30  0.006  0.000  0.000  0.006
   31  0.006  0.000  0.000  0.006
   32  0.006  0.000  0.000  0.006
   33  0.006  0.000  0.000  0.006
   34  0.006  0.000  0.000  0.006
   35  0.005  0.000  0.000  0.006
   36  0.017  0.000  0.001  0.018
   37  0.002  0.002  0.000  0.005
   38  0.000  0.001  0.000  0.001
   39  0.000  0.000  0.000  0.000
tot    0.567  0.014  0.005  0.586
 
band     4 # energy   -7.45342956 # occ.  2.00000000
 
ion      s      p      d    tot
    1  0.013  0.000  0.001  0.014
    2  0.014  0.000  0.001  0.015
    3  0.014  0.000  0.001  0.015
    4  0.014  0.000  0.001  0.015
    5  0.013  0.000  0.001  0.014
    6  0.014  0.000  0.001  0.015
    7  0.014  0.000  0.001  0.015
    8  0.014  0.000  0.001  0.015
    9  0.014  0.001  0.001  0.015
   10  0.011  0.001  0.002  0.015
   11  0.011  0.001  0.002  0.014
   12  0.011  0.001  0.002  0.015
   13  0.011  0.001  0.002  0.014
   14  0.011  0.001  0.002  0.014
   15  0.013  0.001  0.002  0.016
   16  0.011  0.001  0.002  0.015
   17  0.013  0.001  0.002  0.016
   18  0.013  0.001  0.002  0.016
   19  0.005  0.001  0.002  0.008
   20  0.013  0.002  0.003  0.018
   21  0.013  0.002  0.003  0.018
   22  0.005  0.001  0.002  0.008
   23  0.013  0.002  0.003  0.018
   24  0.005  0.001  0.002  0.008
   25  0.005  0.001  0.002  0.008
   26  0.005  0.001  0.002  0.008
   27  0.005  0.001  0.002  0.008
   28  0.010  0.000  0.001  0.011
   29  0.015  0.000  0.002  0.017
   30  0.015  0.000  0.002  0.017
   31  0.015  0.000  0.002  0.017
   32  0.015  0.000  0.002  0.017
   33  0.015  0.000  0.002  0.017
   34  0.015  0.000  0.002  0.017
   35  0.010  0.000  0.001  0.011
   36  0.065  0.002  0.009  0.076
   37  0.026  0.023  0.000  0.048
   38  0.002  0.007  0.000  0.009
   39  0.002  0.000  0.000  0.002
tot    0.505  0.060  0.064  0.628
 
band     5 # energy   -6.85863170 # occ.  2.00000000
 
ion      s      p      d    tot
    1  0.000  0.000  0.000  0.000
    2  0.000  0.000  0.000  0.000
    3  0.000  0.000  0.000  0.000
    4  0.000  0.000  0.000  0.000
    5  0.000  0.000  0.000  0.000
    6  0.000  0.000  0.000  0.000
    7  0.000  0.000  0.000  0.000
    8  0.000  0.000  0.000  0.000
    9  0.000  0.000  0.000  0.000
   10  0.000  0.000  0.000  0.000
   11  0.000  0.000  0.000  0.000
   12  0.000  0.000  0.000  0.000
   13  0.000  0.000  0.000  0.000
   14  0.000  0.000  0.000  0.000
   15  0.000  0.000  0.000  0.000
   16  0.000  0.000  0.000  0.000
   17  0.000  0.000  0.000  0.000
   18  0.000  0.000  0.000  0.000
   19  0.000  0.000  0.000  0.000
   20  0.000  0.000  0.000  0.000
   21  0.000  0.000  0.000  0.000
   22  0.000  0.000  0.000  0.000
   23  0.000  0.000  0.000  0.000
   24  0.000  0.000  0.000  0.000
   25  0.000  0.000  0.000  0.000
   26  0.000  0.000  0.000  0.000
   27  0.000  0.000  0.000  0.000
   28  0.000  0.000  0.000  0.000
   29  0.000  0.000  0.001  0.001
   30  0.000  0.000  0.000  0.000
   31  0.000  0.000  0.001  0.001
   32  0.000  0.000  0.001  0.001
   33  0.000  0.000  0.000  0.000
   34  0.000  0.000  0.001  0.001
   35  0.000  0.000  0.000  0.000
   36  0.000  0.001  0.005  0.006
   37  0.000  0.103  0.000  0.103
   38  0.000  0.563  0.000  0.563
   39  0.000  0.008  0.000  0.008
tot    0.002  0.676  0.009  0.687
 
band     6 # energy   -6.85851620 # occ.  2.00000000
 
ion      s      p      d    tot
    1  0.000  0.000  0.000  0.000
    2  0.000  0.000  0.000  0.000
    3  0.000  0.000  0.000  0.000
    4  0.000  0.000  0.000  0.000
    5  0.000  0.000  0.000  0.000
    6  0.000  0.000  0.000  0.000
    7  0.000  0.000  0.000  0.000
    8  0.000  0.000  0.000  0.000
    9  0.000  0.000  0.000  0.000
   10  0.000  0.000  0.000  0.000
   11  0.000  0.000  0.000  0.000
   12  0.000  0.000  0.000  0.000
   13  0.000  0.000  0.000  0.000
   14  0.000  0.000  0.000  0.000
   15  0.000  0.000  0.000  0.000
   16  0.000  0.000  0.000  0.000
   17  0.000  0.000  0.000  0.000
   18  0.000  0.000  0.000  0.000
   19  0.000  0.000  0.000  0.000
   20  0.000  0.000  0.000  0.000
   21  0.000  0.000  0.000  0.000
   22  0.000  0.000  0.000  0.000
   23  0.000  0.000  0.000  0.000
   24  0.000  0.000  0.000  0.000
   25  0.000  0.000  0.000  0.000
   26  0.000  0.000  0.000  0.000
   27  0.000  0.000  0.000  0.000
   28  0.000  0.000  0.000  0.000
   29  0.000  0.000  0.000  0.001
   30  0.001  0.000  0.001  0.001
   31  0.000  0.000  0.000  0.001
   32  0.000  0.000  0.000  0.000
   33  0.001  0.000  0.001  0.001
   34  0.000  0.000  0.000  0.000
   35  0.000  0.000  0.000  0.000
   36  0.000  0.001  0.005  0.006
   37  0.000  0.103  0.000  0.103
   38  0.000  0.563  0.000  0.563
   39  0.000  0.008  0.000  0.008
tot    0.002  0.676  0.009  0.687
 
band     7 # energy   -6.76857789 # occ.  2.00000000
 
ion      s      p      d    tot
    1  0.009  0.000  0.001  0.010
    2  0.005  0.000  0.002  0.007
    3  0.005  0.000  0.002  0.007
    4  0.005  0.000  0.002  0.007
    5  0.006  0.000  0.002  0.007
    6  0.005  0.000  0.002  0.007
    7  0.005  0.000  0.002  0.007
    8  0.005  0.000  0.002  0.007
    9  0.003  0.000  0.002  0.005
   10  0.002  0.001  0.002  0.004
   11  0.001  0.001  0.001  0.003
   12  0.002  0.001  0.002  0.004
   13  0.001  0.001  0.001  0.003
   14  0.001  0.001  0.001  0.003
   15  0.001  0.001  0.001  0.003
   16  0.002  0.001  0.002  0.004
   17  0.001  0.001  0.001  0.003
   18  0.001  0.001  0.001  0.003
   19  0.012  0.000  0.007  0.020
   20  0.000  0.001  0.022  0.023
   21  0.000  0.001  0.022  0.023
   22  0.021  0.000  0.004  0.026
   23  0.000  0.001  0.022  0.023
   24  0.021  0.000  0.004  0.026
   25  0.012  0.000  0.007  0.020
   26  0.012  0.000  0.007  0.020
   27  0.021  0.000  0.004  0.026
   28  0.002  0.000  0.001  0.004
   29  0.000  0.001  0.005  0.006
   30  0.000  0.001  0.005  0.006
   31  0.000  0.001  0.005  0.006
   32  0.000  0.001  0.005  0.006
   33  0.000  0.001  0.005  0.006
   34  0.000  0.001  0.005  0.006
   35  0.003  0.001  0.001  0.005
   36  0.087  0.020  0.057  0.164
   37  0.103  0.083  0.000  0.186
   38  0.008  0.024  0.000  0.032
   39  0.007  0.000  0.000  0.008
tot    0.372  0.149  0.213  0.734
 
band     8 # energy   -6.39011265 # occ.  2.00000000
 
ion      s      p      d    tot
    1  0.001  0.000  0.008  0.009
    2  0.006  0.000  0.006  0.012
    3  0.006  0.000  0.006  0.012
    4  0.006  0.000  0.006  0.012
    5  0.004  0.000  0.004  0.008
    6  0.006  0.000  0.006  0.012
    7  0.006  0.000  0.006  0.012
    8  0.006  0.000  0.006  0.012
    9  0.021  0.001  0.002  0.024
   10  0.009  0.001  0.009  0.019
   11  0.005  0.002  0.006  0.012
   12  0.009  0.001  0.009  0.018
   13  0.005  0.002  0.006  0.012
   14  0.005  0.002  0.006  0.012
   15  0.005  0.001  0.005  0.011
   16  0.009  0.001  0.009  0.018
   17  0.005  0.001  0.005  0.011
   18  0.005  0.001  0.005  0.011
   19  0.002  0.001  0.016  0.019
   20  0.022  0.002  0.019  0.043
   21  0.022  0.002  0.019  0.043
   22  0.003  0.001  0.007  0.012
   23  0.022  0.002  0.019  0.043
   24  0.003  0.001  0.007  0.012
   25  0.002  0.001  0.016  0.019
   26  0.002  0.001  0.016  0.019
   27  0.003  0.001  0.007  0.012
   28  0.015  0.000  0.006  0.021
   29  0.014  0.000  0.011  0.026
   30  0.014  0.000  0.011  0.026
   31  0.014  0.000  0.011  0.026
   32  0.014  0.000  0.011  0.026
   33  0.014  0.000  0.011  0.026
   34  0.014  0.000  0.011  0.026
   35  0.030  0.000  0.007  0.037
   36  0.000  0.003  0.015  0.017
   37  0.000  0.000  0.000  0.000
   38  0.000  0.000  0.000  0.000
   39  0.000  0.000  0.000  0.000
tot    0.329  0.029  0.335  0.692
 
band     9 # energy   -6.35831851 # occ.  2.00000000
 
ion      s      p      d    tot
    1  0.000  0.001  0.008  0.009
    2  0.003  0.001  0.003  0.007
    3  0.000  0.000  0.003  0.004
    4  0.004  0.001  0.003  0.007
    5  0.000  0.001  0.006  0.007
    6  0.006  0.001  0.003  0.011
    7  0.000  0.000  0.003  0.004
    8  0.006  0.001  0.003  0.011
    9  0.000  0.000  0.001  0.001
   10  0.039  0.002  0.005  0.046
   11  0.012  0.003  0.019  0.034
   12  0.010  0.001  0.028  0.038
   13  0.012  0.003  0.019  0.034
   14  0.047  0.001  0.012  0.060
   15  0.000  0.002  0.007  0.010
   16  0.010  0.001  0.028  0.038
   17  0.000  0.002  0.007  0.010
   18  0.000  0.000  0.011  0.012
   19  0.003  0.003  0.006  0.012
   20  0.064  0.001  0.010  0.076
   21  0.016  0.002  0.033  0.051
   22  0.003  0.001  0.020  0.024
   23  0.016  0.002  0.033  0.051
   24  0.013  0.002  0.006  0.021
   25  0.013  0.000  0.013  0.027
   26  0.003  0.003  0.006  0.013
   27  0.003  0.001  0.020  0.024
   28  0.000  0.000  0.001  0.002
   29  0.006  0.001  0.004  0.011
   30  0.002  0.001  0.003  0.006
   31  0.006  0.001  0.004  0.011
   32  0.001  0.000  0.002  0.004
   33  0.002  0.001  0.003  0.005
   34  0.001  0.000  0.002  0.004
   35  0.000  0.000  0.004  0.004
   36  0.000  0.003  0.006  0.010
   37  0.000  0.000  0.000  0.000
   38  0.000  0.000  0.000  0.000
   39  0.000  0.000  0.000  0.000
tot    0.305  0.044  0.345  0.694
 
band    10 # energy   -6.35828256 # occ.  2.00000000
 
ion      s      p      d    tot
    1  0.000  0.001  0.008  0.009
    2  0.003  0.001  0.003  0.007
    3  0.006  0.001  0.003  0.010
    4  0.003  0.001  0.003  0.007
    5  0.000  0.001  0.006  0.007
    6  0.001  0.000  0.003  0.003
    7  0.006  0.001  0.003  0.010
    8  0.001  0.000  0.003  0.003
    9  0.000  0.000  0.001  0.001
   10  0.000  0.000  0.035  0.035
   11  0.035  0.001  0.014  0.051
   12  0.029  0.002  0.012  0.043
   13  0.035  0.001  0.014  0.051
   14  0.000  0.004  0.021  0.025
   15  0.000  0.001  0.010  0.011
   16  0.030  0.002  0.012  0.044
   17  0.000  0.001  0.010  0.011
   18  0.000  0.003  0.006  0.009
   19  0.010  0.001  0.011  0.022
   20  0.000  0.002  0.040  0.042
   21  0.048  0.001  0.018  0.067
   22  0.010  0.001  0.010  0.022
   23  0.049  0.001  0.017  0.067
   24  0.000  0.001  0.024  0.025
   25  0.000  0.004  0.004  0.008
   26  0.010  0.001  0.011  0.022
   27  0.010  0.001  0.010  0.022
   28  0.000  0.000  0.001  0.002
   29  0.000  0.000  0.002  0.003
   30  0.004  0.001  0.003  0.008
   31  0.000  0.000  0.002  0.003
   32  0.005  0.001  0.004  0.010
   33  0.004  0.001  0.003  0.008
   34  0.005  0.001  0.004  0.010
   35  0.000  0.000  0.004  0.004
   36  0.000  0.003  0.006  0.010
   37  0.000  0.000  0.000  0.000
   38  0.000  0.000  0.000  0.000
   39  0.000  0.000  0.000  0.000
tot    0.305  0.044  0.345  0.694
 
band    11 # energy   -6.33797213 # occ.  2.00000000
 
ion      s      p      d    tot
    1  0.019  0.000  0.014  0.033
    2  0.013  0.000  0.015  0.029
    3  0.013  0.000  0.015  0.029
    4  0.013  0.000  0.015  0.029
    5  0.011  0.000  0.016  0.027
    6  0.013  0.000  0.015  0.029
    7  0.013  0.000  0.015  0.029
    8  0.013  0.000  0.015  0.029
    9  0.011  0.000  0.015  0.026
   10  0.003  0.000  0.030  0.033
   11  0.009  0.000  0.025  0.034
   12  0.003  0.000  0.030  0.033
   13  0.009  0.000  0.025  0.034
   14  0.009  0.000  0.025  0.034
   15  0.011  0.000  0.023  0.034
   16  0.003  0.000  0.030  0.033
   17  0.011  0.000  0.023  0.034
   18  0.011  0.000  0.023  0.034
   19  0.004  0.000  0.011  0.016
   20  0.004  0.000  0.020  0.024
   21  0.004  0.000  0.020  0.024
   22  0.000  0.000  0.013  0.013
   23  0.004  0.000  0.020  0.024
   24  0.000  0.000  0.013  0.013
   25  0.004  0.000  0.011  0.016
   26  0.004  0.000  0.011  0.016
   27  0.000  0.000  0.013  0.013
   28  0.000  0.000  0.002  0.002
   29  0.002  0.000  0.003  0.004
   30  0.002  0.000  0.003  0.004
   31  0.002  0.000  0.003  0.004
   32  0.002  0.000  0.003  0.004
   33  0.002  0.000  0.003  0.004
   34  0.002  0.000  0.003  0.004
   35  0.003  0.000  0.002  0.005
   36  0.001  0.001  0.002  0.004
   37  0.000  0.000  0.000  0.000
   38  0.000  0.000  0.000  0.000
   39  0.000  0.000  0.000  0.000
tot    0.230  0.005  0.520  0.754
 
band    12 # energy   -6.31261973 # occ.  2.00000000
 
ion      s      p      d    tot
    1  0.006  0.001  0.001  0.007
    2  0.000  0.001  0.006  0.007
    3  0.000  0.001  0.006  0.007
    4  0.000  0.001  0.006  0.007
    5  0.018  0.002  0.001  0.020
    6  0.000  0.001  0.006  0.007
    7  0.000  0.001  0.006  0.007
    8  0.000  0.001  0.006  0.007
    9  0.000  0.000  0.002  0.003
   10  0.021  0.003  0.003  0.027
   11  0.024  0.001  0.019  0.043
   12  0.021  0.003  0.003  0.027
   13  0.024  0.001  0.019  0.043
   14  0.024  0.001  0.019  0.043
   15  0.001  0.001  0.025  0.027
   16  0.021  0.003  0.003  0.027
   17  0.001  0.001  0.025  0.027
   18  0.001  0.001  0.025  0.027
   19  0.025  0.002  0.007  0.035
   20  0.008  0.003  0.016  0.027
   21  0.008  0.003  0.016  0.027
   22  0.006  0.000  0.026  0.032
   23  0.008  0.003  0.016  0.027
   24  0.006  0.000  0.026  0.032
   25  0.025  0.002  0.007  0.034
   26  0.025  0.002  0.007  0.035
   27  0.006  0.000  0.026  0.032
   28  0.013  0.001  0.001  0.015
   29  0.000  0.000  0.004  0.005
   30  0.000  0.000  0.004  0.005
   31  0.000  0.000  0.004  0.005
   32  0.000  0.000  0.004  0.005
   33  0.000  0.000  0.004  0.005
   34  0.000  0.000  0.004  0.005
   35  0.003  0.001  0.002  0.005
   36  0.001  0.000  0.000  0.001
   37  0.000  0.000  0.000  0.000
   38  0.000  0.000  0.000  0.000
   39  0.000  0.000  0.000  0.000
tot    0.298  0.041  0.356  0.695
 
band    13 # energy   -6.28160165 # occ.  2.00000000
 
ion      s      p      d    tot
    1  0.000  0.001  0.003  0.004
    2  0.005  0.001  0.003  0.009
    3  0.000  0.000  0.004  0.004
    4  0.005  0.001  0.003  0.009
    5  0.000  0.000  0.005  0.005
    6  0.008  0.001  0.004  0.013
    7  0.000  0.000  0.004  0.005
    8  0.008  0.001  0.004  0.013
    9  0.000  0.001  0.011  0.012
   10  0.000  0.005  0.003  0.008
   11  0.009  0.001  0.012  0.022
   12  0.016  0.001  0.013  0.031
   13  0.009  0.001  0.012  0.022
   14  0.000  0.001  0.028  0.029
   15  0.048  0.001  0.014  0.064
   16  0.016  0.001  0.014  0.031
   17  0.047  0.001  0.015  0.063
   18  0.000  0.001  0.040  0.042
   19  0.029  0.002  0.011  0.041
   20  0.000  0.002  0.010  0.012
   21  0.000  0.001  0.014  0.015
   22  0.028  0.001  0.012  0.042
   23  0.000  0.001  0.014  0.015
   24  0.000  0.004  0.017  0.021
   25  0.000  0.000  0.036  0.037
   26  0.028  0.002  0.012  0.041
   27  0.029  0.001  0.012  0.043
   28  0.000  0.000  0.006  0.007
   29  0.004  0.001  0.002  0.007
   30  0.002  0.000  0.002  0.005
   31  0.004  0.001  0.002  0.007
   32  0.000  0.000  0.002  0.002
   33  0.002  0.000  0.002  0.005
   34  0.000  0.000  0.002  0.002
   35  0.000  0.001  0.004  0.005
   36  0.000  0.000  0.000  0.001
   37  0.000  0.000  0.000  0.000
   38  0.000  0.001  0.000  0.001
   39  0.000  0.000  0.000  0.000
tot    0.297  0.042  0.354  0.693
 
band    14 # energy   -6.28158232 # occ.  2.00000000
 
ion      s      p      d    tot
    1  0.000  0.001  0.003  0.004
    2  0.004  0.001  0.004  0.009
    3  0.008  0.001  0.004  0.013
    4  0.004  0.001  0.004  0.009
    5  0.000  0.000  0.005  0.005
    6  0.001  0.000  0.003  0.004
    7  0.008  0.001  0.004  0.013
    8  0.001  0.000  0.003  0.005
    9  0.000  0.001  0.011  0.012
   10  0.021  0.000  0.017  0.039
   11  0.003  0.001  0.023  0.027
   12  0.006  0.004  0.007  0.016
   13  0.003  0.001  0.022  0.027
   14  0.012  0.001  0.007  0.020
   15  0.015  0.001  0.032  0.048
   16  0.005  0.004  0.006  0.015
   17  0.017  0.001  0.031  0.049
   18  0.063  0.002  0.006  0.071
   19  0.009  0.001  0.028  0.038
   20  0.000  0.001  0.015  0.015
   21  0.000  0.002  0.011  0.013
   22  0.010  0.003  0.016  0.028
   23  0.000  0.002  0.011  0.013
   24  0.038  0.001  0.011  0.049
   25  0.038  0.002  0.003  0.043
   26  0.010  0.001  0.028  0.038
   27  0.009  0.003  0.016  0.028
   28  0.000  0.000  0.006  0.007
   29  0.000  0.000  0.002  0.003
   30  0.002  0.000  0.002  0.004
   31  0.000  0.000  0.002  0.003
   32  0.004  0.001  0.003  0.008
   33  0.002  0.000  0.002  0.005
   34  0.004  0.001  0.003  0.008
   35  0.000  0.001  0.004  0.005
   36  0.000  0.000  0.000  0.001
   37  0.000  0.000  0.000  0.000
   38  0.000  0.001  0.000  0.001
   39  0.000  0.000  0.000  0.000
tot    0.297  0.042  0.354  0.693
 
band    15 # energy   -6.16966255 # occ.  2.00000000
 
ion      s      p      d    tot
    1  0.007  0.000  0.000  0.007
    2  0.000  0.001  0.005  0.006
    3  0.000  0.001  0.005  0.006
    4  0.000  0.001  0.005  0.006
    5  0.004  0.000  0.001  0.005
    6  0.000  0.001  0.005  0.006
    7  0.000  0.001  0.005  0.006
    8  0.000  0.001  0.005  0.006
    9  0.007  0.002  0.003  0.011
   10  0.004  0.000  0.023  0.027
   11  0.003  0.002  0.008  0.013
   12  0.004  0.000  0.023  0.027
   13  0.003  0.002  0.008  0.013
   14  0.003  0.002  0.008  0.013
   15  0.025  0.002  0.005  0.032
   16  0.004  0.000  0.023  0.027
   17  0.025  0.002  0.005  0.032
   18  0.025  0.002  0.005  0.032
   19  0.000  0.001  0.007  0.008
   20  0.001  0.000  0.020  0.021
   21  0.001  0.000  0.020  0.021
   22  0.012  0.002  0.006  0.021
   23  0.001  0.000  0.020  0.021
   24  0.012  0.002  0.006  0.021
   25  0.000  0.001  0.007  0.008
   26  0.000  0.001  0.007  0.008
   27  0.012  0.002  0.006  0.021
   28  0.016  0.000  0.009  0.025
   29  0.009  0.000  0.010  0.019
   30  0.009  0.000  0.010  0.019
   31  0.009  0.000  0.010  0.019
   32  0.009  0.000  0.010  0.019
   33  0.009  0.000  0.010  0.019
   34  0.009  0.000  0.010  0.019
   35  0.006  0.000  0.010  0.016
   36  0.002  0.011  0.045  0.058
   37  0.040  0.030  0.000  0.070
   38  0.003  0.008  0.000  0.011
   39  0.002  0.000  0.000  0.003
tot    0.282  0.079  0.362  0.723
 
band    16 # energy   -5.87854922 # occ.  2.00000000
 
ion      s      p      d    tot
    1  0.000  0.001  0.004  0.005
    2  0.001  0.001  0.005  0.006
    3  0.009  0.001  0.004  0.014
    4  0.001  0.001  0.005  0.006
    5  0.000  0.001  0.010  0.011
    6  0.005  0.001  0.004  0.009
    7  0.009  0.001  0.004  0.014
    8  0.005  0.001  0.004  0.009
    9  0.000  0.000  0.008  0.008
   10  0.000  0.001  0.050  0.051
   11  0.016  0.001  0.020  0.037
   12  0.008  0.001  0.018  0.027
   13  0.016  0.001  0.020  0.037
   14  0.000  0.000  0.047  0.047
   15  0.001  0.000  0.018  0.020
   16  0.008  0.001  0.018  0.027
   17  0.001  0.000  0.018  0.020
   18  0.000  0.001  0.011  0.012
   19  0.004  0.000  0.019  0.024
   20  0.000  0.000  0.087  0.087
   21  0.016  0.001  0.027  0.043
   22  0.003  0.001  0.019  0.023
   23  0.016  0.001  0.027  0.044
   24  0.000  0.001  0.031  0.032
   25  0.000  0.001  0.011  0.012
   26  0.004  0.000  0.019  0.024
   27  0.003  0.001  0.019  0.023
   28  0.000  0.000  0.008  0.009
   29  0.003  0.001  0.005  0.009
   30  0.009  0.001  0.005  0.015
   31  0.003  0.001  0.005  0.009
   32  0.001  0.001  0.004  0.006
   33  0.009  0.001  0.005  0.015
   34  0.001  0.001  0.004  0.006
   35  0.000  0.000  0.003  0.003
   36  0.000  0.004  0.006  0.010
   37  0.000  0.000  0.000  0.000
   38  0.000  0.000  0.000  0.000
   39  0.000  0.000  0.000  0.000
tot    0.152  0.031  0.570  0.753
 
band    17 # energy   -5.87851508 # occ.  2.00000000
 
ion      s      p      d    tot
    1  0.000  0.001  0.004  0.005
    2  0.009  0.001  0.004  0.013
    3  0.001  0.000  0.004  0.005
    4  0.009  0.001  0.004  0.013
    5  0.000  0.001  0.010  0.011
    6  0.005  0.001  0.005  0.010
    7  0.001  0.000  0.004  0.005
    8  0.005  0.001  0.005  0.010
    9  0.000  0.000  0.008  0.008
   10  0.010  0.002  0.008  0.020
   11  0.005  0.000  0.038  0.044
   12  0.003  0.001  0.040  0.043
   13  0.005  0.000  0.038  0.044
   14  0.022  0.001  0.011  0.034
   15  0.000  0.001  0.013  0.015
   16  0.003  0.001  0.040  0.043
   17  0.000  0.001  0.013  0.015
   18  0.002  0.000  0.021  0.023
   19  0.001  0.001  0.014  0.016
   20  0.021  0.001  0.007  0.029
   21  0.005  0.000  0.067  0.072
   22  0.001  0.001  0.027  0.029
   23  0.005  0.000  0.067  0.072
   24  0.004  0.001  0.015  0.020
   25  0.006  0.000  0.021  0.027
   26  0.001  0.001  0.014  0.016
   27  0.001  0.001  0.027  0.029
   28  0.000  0.000  0.008  0.009
   29  0.006  0.001  0.004  0.011
   30  0.000  0.000  0.004  0.005
   31  0.006  0.001  0.004  0.011
   32  0.008  0.001  0.005  0.014
   33  0.000  0.000  0.004  0.005
   34  0.008  0.001  0.005  0.014
   35  0.000  0.000  0.003  0.003
   36  0.000  0.004  0.006  0.010
   37  0.000  0.000  0.000  0.000
   38  0.000  0.000  0.000  0.000
   39  0.000  0.000  0.000  0.000
tot    0.152  0.031  0.570  0.753
 
band    18 # energy   -5.86865478 # occ.  2.00000000
 
ion      s      p      d    tot
    1  0.013  0.002  0.002  0.017
    2  0.000  0.001  0.007  0.008
    3  0.000  0.001  0.007  0.008
    4  0.000  0.001  0.007  0.008
    5  0.000  0.000  0.002  0.002
    6  0.000  0.001  0.007  0.008
    7  0.000  0.001  0.007  0.008
    8  0.000  0.001  0.007  0.008
    9  0.014  0.001  0.000  0.016
   10  0.010  0.001  0.013  0.024
   11  0.003  0.000  0.043  0.046
   12  0.010  0.001  0.013  0.024
   13  0.003  0.000  0.043  0.046
   14  0.003  0.000  0.043  0.046
   15  0.003  0.001  0.020  0.025
   16  0.010  0.001  0.013  0.024
   17  0.003  0.001  0.020  0.025
   18  0.003  0.001  0.020  0.024
   19  0.003  0.001  0.013  0.017
   20  0.001  0.000  0.058  0.059
   21  0.001  0.000  0.057  0.059
   22  0.011  0.001  0.018  0.030
   23  0.001  0.000  0.057  0.059
   24  0.011  0.001  0.018  0.030
   25  0.003  0.001  0.013  0.017
   26  0.003  0.001  0.013  0.017
   27  0.011  0.001  0.018  0.030
   28  0.015  0.001  0.000  0.016
   29  0.000  0.000  0.007  0.007
   30  0.000  0.000  0.007  0.007
   31  0.000  0.000  0.007  0.007
   32  0.000  0.000  0.007  0.007
   33  0.000  0.000  0.007  0.007
   34  0.000  0.000  0.007  0.007
   35  0.006  0.001  0.003  0.010
   36  0.001  0.000  0.001  0.002
   37  0.000  0.000  0.000  0.000
   38  0.000  0.000  0.000  0.000
   39  0.000  0.000  0.000  0.000
tot    0.144  0.026  0.587  0.757
 
band    19 # energy   -5.80016207 # occ.  2.00000000
 
ion      s      p      d    tot
    1  0.000  0.001  0.014  0.015
    2  0.010  0.001  0.004  0.015
    3  0.001  0.000  0.005  0.007
    4  0.010  0.001  0.004  0.015
    5  0.000  0.000  0.005  0.005
    6  0.004  0.001  0.005  0.010
    7  0.001  0.000  0.005  0.007
    8  0.004  0.001  0.005  0.010
    9  0.000  0.001  0.007  0.008
   10  0.000  0.001  0.030  0.030
   11  0.000  0.001  0.019  0.021
   12  0.008  0.000  0.022  0.030
   13  0.000  0.001  0.019  0.021
   14  0.000  0.001  0.018  0.019
   15  0.011  0.002  0.020  0.032
   16  0.008  0.000  0.022  0.030
   17  0.011  0.002  0.020  0.032
   18  0.000  0.000  0.062  0.062
   19  0.013  0.001  0.020  0.034
   20  0.000  0.002  0.020  0.022
   21  0.000  0.001  0.024  0.025
   22  0.017  0.001  0.020  0.037
   23  0.000  0.001  0.024  0.025
   24  0.000  0.000  0.031  0.032
   25  0.000  0.000  0.066  0.066
   26  0.013  0.001  0.019  0.033
   27  0.017  0.001  0.020  0.037
   28  0.000  0.001  0.005  0.006
   29  0.006  0.001  0.004  0.011
   30  0.000  0.000  0.005  0.006
   31  0.006  0.001  0.004  0.011
   32  0.005  0.001  0.003  0.008
   33  0.000  0.000  0.005  0.006
   34  0.005  0.001  0.003  0.008
   35  0.000  0.001  0.009  0.010
   36  0.000  0.000  0.002  0.002
   37  0.000  0.000  0.000  0.000
   38  0.000  0.000  0.000  0.000
   39  0.000  0.000  0.000  0.000
tot    0.149  0.029  0.571  0.749
 
band    20 # energy   -5.80013218 # occ.  2.00000000
 
ion      s      p      d    tot
    1  0.000  0.001  0.014  0.015
    2  0.000  0.000  0.005  0.006
    3  0.008  0.001  0.005  0.014
    4  0.000  0.000  0.005  0.006
    5  0.000  0.000  0.005  0.005
    6  0.006  0.001  0.004  0.011
    7  0.008  0.001  0.005  0.014
    8  0.006  0.001  0.004  0.011
    9  0.000  0.001  0.007  0.008
   10  0.010  0.000  0.019  0.030
   11  0.000  0.001  0.019  0.020
   12  0.003  0.001  0.027  0.030
   13  0.000  0.001  0.019  0.020
   14  0.001  0.001  0.020  0.022
   15  0.004  0.001  0.048  0.052
   16  0.003  0.001  0.027  0.030
   17  0.004  0.001  0.048  0.052
   18  0.014  0.002  0.006  0.023
   19  0.004  0.001  0.050  0.055
   20  0.000  0.000  0.026  0.026
   21  0.000  0.001  0.021  0.023
   22  0.006  0.001  0.028  0.034
   23  0.000  0.001  0.021  0.023
   24  0.023  0.001  0.016  0.039
   25  0.017  0.001  0.004  0.023
   26  0.004  0.001  0.051  0.055
   27  0.006  0.001  0.028  0.034
   28  0.000  0.001  0.005  0.006
   29  0.001  0.000  0.004  0.006
   30  0.007  0.001  0.003  0.011
   31  0.001  0.000  0.004  0.006
   32  0.003  0.001  0.005  0.008
   33  0.007  0.001  0.003  0.011
   34  0.003  0.001  0.005  0.008
   35  0.000  0.001  0.009  0.010
   36  0.000  0.000  0.002  0.002
   37  0.000  0.000  0.000  0.000
   38  0.000  0.000  0.000  0.000
   39  0.000  0.000  0.000  0.000