PROCAR new format
# of k-points:   10         # of bands:  252         # of ions:   37

 k-point     1 :    0.00000000 0.00000000 0.00000000     weight = 0.01562500

band     1 # energy   -6.39558647 # occ.  2.00000000
 
ion      s      p      d    tot
    1  0.006  0.001  0.000  0.007
    2  0.006  0.001  0.000  0.007
    3  0.006  0.001  0.000  0.007
    4  0.006  0.001  0.000  0.007
    5  0.006  0.001  0.000  0.007
    6  0.006  0.001  0.000  0.007
    7  0.006  0.001  0.000  0.007
    8  0.006  0.001  0.000  0.007
    9  0.006  0.001  0.000  0.006
   10  0.023  0.000  0.000  0.024
   11  0.024  0.000  0.000  0.024
   12  0.023  0.000  0.000  0.024
   13  0.024  0.000  0.000  0.024
   14  0.024  0.000  0.000  0.024
   15  0.023  0.000  0.000  0.023
   16  0.023  0.000  0.000  0.024
   17  0.023  0.000  0.000  0.023
   18  0.023  0.000  0.000  0.023
   19  0.022  0.000  0.000  0.023
   20  0.025  0.000  0.000  0.025
   21  0.025  0.000  0.000  0.025
   22  0.022  0.000  0.000  0.023
   23  0.025  0.000  0.000  0.025
   24  0.022  0.000  0.000  0.023
   25  0.022  0.000  0.000  0.023
   26  0.022  0.000  0.000  0.023
   27  0.022  0.000  0.000  0.023
   28  0.005  0.001  0.000  0.006
   29  0.005  0.001  0.000  0.006
   30  0.005  0.001  0.000  0.006
   31  0.005  0.001  0.000  0.006
   32  0.005  0.001  0.000  0.006
   33  0.005  0.001  0.000  0.006
   34  0.005  0.001  0.000  0.006
   35  0.005  0.001  0.000  0.006
   36  0.008  0.001  0.000  0.009
   37  0.001  0.000  0.000  0.001
tot    0.525  0.013  0.006  0.544
 
band     2 # energy   -5.52781436 # occ.  2.00000000
 
ion      s      p      d    tot
    1  0.008  0.000  0.000  0.008
    2  0.008  0.000  0.000  0.009
    3  0.008  0.000  0.000  0.009
    4  0.008  0.000  0.000  0.009
    5  0.008  0.000  0.000  0.009
    6  0.008  0.000  0.000  0.009
    7  0.008  0.000  0.000  0.009
    8  0.008  0.000  0.000  0.009
    9  0.008  0.000  0.000  0.009
   10  0.011  0.001  0.016  0.028
   11  0.011  0.001  0.014  0.027
   12  0.011  0.001  0.016  0.028
   13  0.011  0.001  0.014  0.027
   14  0.011  0.001  0.014  0.027
   15  0.011  0.001  0.013  0.026
   16  0.011  0.001  0.016  0.028
   17  0.011  0.001  0.013  0.026
   18  0.011  0.001  0.013  0.026
   19  0.012  0.001  0.016  0.028
   20  0.013  0.001  0.019  0.034
   21  0.013  0.001  0.019  0.034
   22  0.011  0.001  0.015  0.027
   23  0.013  0.001  0.019  0.034
   24  0.011  0.001  0.015  0.027
   25  0.012  0.001  0.016  0.028
   26  0.012  0.001  0.016  0.028
   27  0.011  0.001  0.015  0.027
   28  0.007  0.000  0.000  0.007
   29  0.007  0.000  0.000  0.007
   30  0.007  0.000  0.000  0.007
   31  0.007  0.000  0.000  0.007
   32  0.007  0.000  0.000  0.007
   33  0.007  0.000  0.000  0.007
   34  0.007  0.000  0.000  0.007
   35  0.006  0.000  0.000  0.007
   36  0.010  0.000  0.000  0.011
   37  0.001  0.000  0.000  0.001
tot    0.344  0.025  0.285  0.653
 
band     3 # energy   -5.23558509 # occ.  2.00000000
 
ion      s      p      d    tot
    1  0.012  0.000  0.027  0.038
    2  0.014  0.000  0.023  0.037
    3  0.014  0.000  0.023  0.037
    4  0.014  0.000  0.023  0.037
    5  0.015  0.000  0.021  0.036
    6  0.014  0.000  0.023  0.037
    7  0.014  0.000  0.023  0.037
    8  0.014  0.000  0.023  0.037
    9  0.016  0.000  0.021  0.037
   10  0.001  0.000  0.019  0.021
   11  0.001  0.000  0.024  0.025
   12  0.001  0.000  0.019  0.021
   13  0.001  0.000  0.024  0.025
   14  0.001  0.000  0.024  0.025
   15  0.000  0.000  0.022  0.022
   16  0.001  0.000  0.019  0.021
   17  0.000  0.000  0.022  0.022
   18  0.000  0.000  0.022  0.022
   19  0.000  0.000  0.009  0.009
   20  0.000  0.000  0.017  0.017
   21  0.000  0.000  0.017  0.017
   22  0.000  0.000  0.011  0.012
   23  0.000  0.000  0.017  0.017
   24  0.000  0.000  0.011  0.012
   25  0.000  0.000  0.009  0.009
   26  0.000  0.000  0.009  0.009
   27  0.000  0.000  0.011  0.012
   28  0.005  0.000  0.008  0.013
   29  0.006  0.000  0.007  0.013
   30  0.006  0.000  0.007  0.013
   31  0.006  0.000  0.007  0.013
   32  0.006  0.000  0.007  0.013
   33  0.006  0.000  0.007  0.013
   34  0.006  0.000  0.007  0.013
   35  0.005  0.000  0.009  0.013
   36  0.010  0.000  0.000  0.010
   37  0.001  0.000  0.000  0.001
tot    0.191  0.006  0.571  0.768
 
band     4 # energy   -5.14406291 # occ.  2.00000000
 
ion      s      p      d    tot
    1  0.011  0.001  0.000  0.012
    2  0.001  0.000  0.007  0.008
    3  0.001  0.000  0.007  0.008
    4  0.001  0.000  0.007  0.008
    5  0.000  0.000  0.006  0.006
    6  0.001  0.000  0.007  0.008
    7  0.001  0.000  0.007  0.008
    8  0.001  0.000  0.007  0.008
    9  0.000  0.000  0.005  0.006
   10  0.005  0.000  0.043  0.048
   11  0.000  0.000  0.023  0.024
   12  0.005  0.000  0.043  0.048
   13  0.000  0.000  0.023  0.024
   14  0.000  0.000  0.023  0.024
   15  0.010  0.001  0.003  0.014
   16  0.005  0.000  0.043  0.048
   17  0.010  0.001  0.003  0.014
   18  0.010  0.001  0.003  0.014
   19  0.000  0.001  0.030  0.030
   20  0.005  0.000  0.079  0.085
   21  0.005  0.000  0.080  0.085
   22  0.016  0.001  0.007  0.023
   23  0.005  0.000  0.080  0.085
   24  0.016  0.001  0.007  0.023
   25  0.000  0.001  0.029  0.030
   26  0.000  0.001  0.030  0.030
   27  0.016  0.001  0.007  0.023
   28  0.000  0.000  0.003  0.003
   29  0.000  0.000  0.005  0.005
   30  0.000  0.000  0.005  0.005
   31  0.000  0.000  0.005  0.005
   32  0.000  0.000  0.005  0.005
   33  0.000  0.000  0.005  0.005
   34  0.000  0.000  0.005  0.005
   35  0.003  0.001  0.004  0.008
   36  0.011  0.001  0.003  0.015
   37  0.001  0.000  0.000  0.001
tot    0.142  0.015  0.648  0.805
 
band     5 # energy   -5.11022229 # occ.  2.00000000
 
ion      s      p      d    tot
    1  0.000  0.000  0.000  0.001
    2  0.000  0.000  0.006  0.006
    3  0.000  0.000  0.005  0.006
    4  0.000  0.000  0.006  0.006
    5  0.003  0.001  0.005  0.009
    6  0.000  0.000  0.004  0.005
    7  0.000  0.000  0.005  0.006
    8  0.000  0.000  0.004  0.005
    9  0.001  0.000  0.004  0.006
   10  0.009  0.001  0.007  0.017
   11  0.015  0.001  0.044  0.060
   12  0.006  0.001  0.006  0.013
   13  0.015  0.001  0.044  0.060
   14  0.010  0.001  0.043  0.054
   15  0.002  0.000  0.051  0.053
   16  0.006  0.001  0.006  0.013
   17  0.002  0.000  0.051  0.053
   18  0.000  0.000  0.064  0.064
   19  0.012  0.000  0.033  0.045
   20  0.006  0.001  0.017  0.024
   21  0.007  0.001  0.016  0.024
   22  0.000  0.000  0.037  0.038
   23  0.007  0.001  0.016  0.024
   24  0.000  0.000  0.048  0.048
   25  0.006  0.000  0.039  0.045
   26  0.012  0.000  0.033  0.045
   27  0.000  0.000  0.037  0.038
   28  0.003  0.001  0.004  0.008
   29  0.000  0.000  0.004  0.004
   30  0.000  0.000  0.003  0.003
   31  0.000  0.000  0.004  0.004
   32  0.000  0.000  0.004  0.004
   33  0.000  0.000  0.003  0.003
   34  0.000  0.000  0.004  0.004
   35  0.001  0.000  0.003  0.004
   36  0.000  0.000  0.000  0.000
   37  0.000  0.000  0.000  0.000
tot    0.125  0.017  0.660  0.802
 
band     6 # energy   -5.11012018 # occ.  2.00000000
 
ion      s      p      d    tot
    1  0.000  0.000  0.002  0.002
    2  0.000  0.000  0.003  0.004
    3  0.000  0.000  0.002  0.002
    4  0.000  0.000  0.004  0.004
    5  0.000  0.000  0.004  0.004
    6  0.001  0.000  0.005  0.006
    7  0.000  0.000  0.003  0.003
    8  0.001  0.000  0.005  0.006
    9  0.000  0.000  0.007  0.007
   10  0.000  0.001  0.027  0.028
   11  0.008  0.000  0.027  0.035
   12  0.002  0.001  0.033  0.035
   13  0.008  0.000  0.035  0.042
   14  0.000  0.000  0.090  0.090
   15  0.018  0.001  0.025  0.043
   16  0.002  0.000  0.034  0.036
   17  0.016  0.001  0.025  0.042
   18  0.000  0.001  0.035  0.036
   19  0.014  0.001  0.021  0.035
   20  0.000  0.001  0.063  0.064
   21  0.000  0.000  0.038  0.039
   22  0.008  0.001  0.024  0.033
   23  0.000  0.000  0.035  0.036
   24  0.000  0.001  0.014  0.015
   25  0.000  0.000  0.059  0.060
   26  0.013  0.001  0.025  0.038
   27  0.010  0.001  0.026  0.036
   28  0.000  0.000  0.005  0.006
   29  0.001  0.000  0.004  0.004
   30  0.001  0.000  0.003  0.004
   31  0.001  0.000  0.003  0.004
   32  0.000  0.000  0.002  0.002
   33  0.001  0.000  0.003  0.003
   34  0.000  0.000  0.002  0.002
   35  0.000  0.000  0.004  0.004
   36  0.000  0.000  0.001  0.001
   37  0.000  0.000  0.000  0.000
tot    0.103  0.014  0.695  0.813
 
band     7 # energy   -5.11011929 # occ.  2.00000000
 
ion      s      p      d    tot
    1  0.000  0.000  0.002  0.002
    2  0.001  0.000  0.003  0.004
    3  0.001  0.000  0.005  0.006
    4  0.001  0.000  0.003  0.003
    5  0.000  0.000  0.004  0.004
    6  0.000  0.000  0.003  0.003
    7  0.001  0.000  0.005  0.006
    8  0.000  0.000  0.003  0.003
    9  0.000  0.000  0.006  0.007
   10  0.001  0.000  0.034  0.035
   11  0.001  0.000  0.074  0.075
   12  0.002  0.001  0.029  0.032
   13  0.001  0.000  0.066  0.068
   14  0.014  0.000  0.011  0.026
   15  0.004  0.001  0.037  0.042
   16  0.001  0.001  0.028  0.031
   17  0.006  0.001  0.037  0.043
   18  0.023  0.001  0.013  0.037
   19  0.002  0.000  0.052  0.054
   20  0.001  0.000  0.026  0.028
   21  0.000  0.001  0.052  0.053
   22  0.003  0.001  0.022  0.027
   23  0.000  0.001  0.055  0.056
   24  0.012  0.001  0.022  0.035
   25  0.022  0.001  0.007  0.029
   26  0.003  0.000  0.047  0.051
   27  0.002  0.001  0.020  0.024
   28  0.000  0.000  0.005  0.006
   29  0.000  0.000  0.002  0.002
   30  0.000  0.000  0.003  0.003
   31  0.000  0.000  0.002  0.002
   32  0.001  0.000  0.003  0.004
   33  0.000  0.000  0.003  0.004
   34  0.001  0.000  0.003  0.004
   35  0.000  0.000  0.004  0.004
   36  0.000  0.000  0.001  0.001
   37  0.000  0.000  0.000  0.000
tot    0.104  0.015  0.694  0.813
 
band     8 # energy   -5.10674226 # occ.  2.00000000
 
ion      s      p      d    tot
    1  0.000  0.000  0.009  0.009
    2  0.002  0.000  0.005  0.007
    3  0.002  0.001  0.004  0.006
    4  0.002  0.000  0.005  0.007
    5  0.000  0.000  0.007  0.008
    6  0.000  0.000  0.003  0.003
    7  0.002  0.001  0.004  0.006
    8  0.000  0.000  0.003  0.003
    9  0.000  0.000  0.000  0.000
   10  0.000  0.000  0.075  0.075
   11  0.016  0.001  0.028  0.044
   12  0.015  0.001  0.022  0.037
   13  0.015  0.001  0.028  0.044
   14  0.000  0.001  0.023  0.025
   15  0.000  0.000  0.025  0.025
   16  0.015  0.001  0.021  0.037
   17  0.000  0.000  0.025  0.025
   18  0.000  0.001  0.030  0.031
   19  0.005  0.000  0.027  0.032
   20  0.000  0.001  0.070  0.071
   21  0.021  0.001  0.027  0.048
   22  0.005  0.001  0.026  0.031
   23  0.021  0.001  0.026  0.048
   24  0.000  0.000  0.068  0.068
   25  0.000  0.001  0.010  0.011
   26  0.005  0.001  0.026  0.032
   27  0.005  0.001  0.025  0.031
   28  0.000  0.000  0.001  0.001
   29  0.000  0.000  0.003  0.003
   30  0.001  0.000  0.002  0.003
   31  0.000  0.000  0.003  0.004
   32  0.002  0.001  0.005  0.007
   33  0.001  0.000  0.002  0.003
   34  0.002  0.001  0.005  0.007
   35  0.000  0.000  0.003  0.003
   36  0.000  0.001  0.001  0.002
   37  0.000  0.000  0.000  0.000
tot    0.133  0.018  0.648  0.799
 
band     9 # energy   -5.10673463 # occ.  2.00000000
 
ion      s      p      d    tot
    1  0.000  0.000  0.009  0.009
    2  0.001  0.000  0.003  0.004
    3  0.000  0.000  0.004  0.004
    4  0.001  0.000  0.003  0.004
    5  0.000  0.000  0.007  0.008
    6  0.002  0.001  0.005  0.008
    7  0.001  0.000  0.004  0.004
    8  0.002  0.001  0.005  0.008
    9  0.000  0.000  0.000  0.000
   10  0.020  0.001  0.004  0.024
   11  0.005  0.001  0.025  0.031
   12  0.005  0.000  0.057  0.062
   13  0.005  0.001  0.025  0.031
   14  0.021  0.001  0.030  0.051
   15  0.000  0.001  0.029  0.029
   16  0.005  0.000  0.058  0.063
   17  0.000  0.001  0.029  0.029
   18  0.000  0.000  0.023  0.023
   19  0.001  0.001  0.015  0.018
   20  0.028  0.001  0.012  0.041
   21  0.007  0.001  0.055  0.063
   22  0.002  0.000  0.053  0.055
   23  0.007  0.001  0.056  0.063
   24  0.007  0.001  0.011  0.019
   25  0.006  0.000  0.032  0.039
   26  0.002  0.001  0.015  0.018
   27  0.002  0.000  0.054  0.056
   28  0.000  0.000  0.001  0.001
   29  0.001  0.000  0.004  0.006
   30  0.001  0.000  0.005  0.006
   31  0.001  0.000  0.004  0.005
   32  0.000  0.000  0.002  0.002
   33  0.001  0.000  0.005  0.006
   34  0.000  0.000  0.002  0.002
   35  0.000  0.000  0.003  0.003
   36  0.000  0.001  0.001  0.002
   37  0.000  0.000  0.000  0.000
tot    0.133  0.018  0.648  0.799
 
band    10 # energy   -5.08683606 # occ.  2.00000000
 
ion      s      p      d    tot
    1  0.000  0.000  0.011  0.011
    2  0.000  0.000  0.009  0.009
    3  0.000  0.000  0.009  0.009
    4  0.000  0.000  0.009  0.009
    5  0.002  0.000  0.003  0.006
    6  0.000  0.000  0.009  0.009
    7  0.000  0.000  0.009  0.009
    8  0.000  0.000  0.009  0.009
    9  0.006  0.001  0.000  0.007
   10  0.002  0.000  0.046  0.048
   11  0.000  0.000  0.053  0.053
   12  0.002  0.000  0.046  0.048
   13  0.000  0.000  0.053  0.053
   14  0.000  0.000  0.053  0.053
   15  0.005  0.000  0.009  0.014
   16  0.002  0.000  0.046  0.048
   17  0.005  0.000  0.009  0.014
   18  0.005  0.000  0.009  0.014
   19  0.004  0.000  0.008  0.012
   20  0.001  0.000  0.055  0.056
   21  0.001  0.000  0.055  0.056
   22  0.003  0.000  0.041  0.044
   23  0.001  0.000  0.055  0.056
   24  0.003  0.000  0.041  0.044
   25  0.004  0.000  0.008  0.012
   26  0.004  0.000  0.008  0.012
   27  0.003  0.000  0.041  0.044
   28  0.007  0.001  0.000  0.007
   29  0.000  0.000  0.009  0.009
   30  0.000  0.000  0.009  0.009
   31  0.000  0.000  0.009  0.009
   32  0.000  0.000  0.009  0.009
   33  0.000  0.000  0.009  0.009
   34  0.000  0.000  0.009  0.009
   35  0.000  0.000  0.011  0.011
   36  0.002  0.000  0.001  0.003
   37  0.000  0.000  0.000  0.000
tot    0.064  0.008  0.770  0.841
 
band    11 # energy   -5.07136691 # occ.  2.00000000
 
ion      s      p      d    tot
    1  0.004  0.000  0.006  0.011
    2  0.000  0.000  0.009  0.009
    3  0.000  0.000  0.009  0.009
    4  0.000  0.000  0.009  0.009
    5  0.000  0.000  0.003  0.004
    6  0.000  0.000  0.009  0.009
    7  0.000  0.000  0.009  0.009
    8  0.000  0.000  0.009  0.009
    9  0.000  0.000  0.004  0.005
   10  0.000  0.000  0.050  0.050
   11  0.005  0.000  0.007  0.012
   12  0.000  0.000  0.050  0.050
   13  0.005  0.000  0.007  0.012
   14  0.005  0.000  0.007  0.012
   15  0.002  0.000  0.057  0.059
   16  0.000  0.000  0.050  0.050
   17  0.002  0.000  0.057  0.059
   18  0.002  0.000  0.057  0.059
   19  0.003  0.000  0.053  0.056
   20  0.001  0.001  0.010  0.012
   21  0.001  0.001  0.010  0.012
   22  0.000  0.000  0.045  0.045
   23  0.001  0.001  0.010  0.012
   24  0.000  0.000  0.045  0.045
   25  0.003  0.000  0.053  0.056
   26  0.003  0.000  0.053  0.056
   27  0.000  0.000  0.045  0.045
   28  0.000  0.000  0.015  0.016
   29  0.000  0.000  0.007  0.008
   30  0.000  0.000  0.007  0.008
   31  0.000  0.000  0.007  0.008
   32  0.000  0.000  0.007  0.008
   33  0.000  0.000  0.007  0.008
   34  0.000  0.000  0.007  0.008
   35  0.000  0.000  0.000  0.001
   36  0.005  0.000  0.000  0.006
   37  0.000  0.000  0.000  0.000
tot    0.049  0.007  0.792  0.848
 
band    12 # energy   -5.06803709 # occ.  2.00000000
 
ion      s      p      d    tot
    1  0.000  0.000  0.016  0.017
    2  0.001  0.000  0.010  0.011
    3  0.003  0.001  0.005  0.009
    4  0.000  0.000  0.010  0.011
    5  0.000  0.000  0.008  0.008
    6  0.001  0.000  0.009  0.010
    7  0.003  0.001  0.005  0.009
    8  0.001  0.000  0.008  0.010
    9  0.000  0.000  0.007  0.007
   10  0.009  0.000  0.033  0.042
   11  0.000  0.000  0.026  0.026
   12  0.003  0.000  0.046  0.049
   13  0.000  0.000  0.027  0.027
   14  0.000  0.000  0.042  0.042
   15  0.003  0.000  0.077  0.080
   16  0.002  0.000  0.047  0.049
   17  0.003  0.000  0.074  0.077
   18  0.012  0.000  0.005  0.018
   19  0.000  0.000  0.033  0.034
   20  0.006  0.000  0.008  0.014
   21  0.001  0.000  0.046  0.047
   22  0.000  0.000  0.021  0.022
   23  0.001  0.000  0.047  0.049
   24  0.001  0.000  0.029  0.030
   25  0.002  0.000  0.028  0.030
   26  0.000  0.000  0.033  0.034
   27  0.000  0.000  0.021  0.021
   28  0.000  0.000  0.012  0.012
   29  0.002  0.000  0.004  0.007
   30  0.000  0.000  0.006  0.006
   31  0.002  0.000  0.004  0.007
   32  0.002  0.000  0.005  0.007
   33  0.000  0.000  0.006  0.006
   34  0.002  0.000  0.005  0.006
   35  0.000  0.000  0.006  0.006
   36  0.000  0.000  0.001  0.001
   37  0.000  0.000  0.000  0.000
tot    0.064  0.008  0.768  0.840
 
band    13 # energy   -5.06802911 # occ.  2.00000000
 
ion      s      p      d    tot
    1  0.000  0.000  0.016  0.017
    2  0.003  0.000  0.006  0.009
    3  0.000  0.000  0.011  0.011
    4  0.003  0.000  0.006  0.009
    5  0.000  0.000  0.008  0.008
    6  0.002  0.001  0.007  0.010
    7  0.000  0.000  0.011  0.011
    8  0.002  0.001  0.008  0.010
    9  0.000  0.000  0.007  0.007
   10  0.000  0.000  0.051  0.051
   11  0.000  0.000  0.037  0.037
   12  0.007  0.000  0.038  0.045
   13  0.000  0.000  0.036  0.037
   14  0.000  0.000  0.021  0.022
   15  0.009  0.000  0.027  0.037
   16  0.007  0.000  0.037  0.044
   17  0.009  0.000  0.030  0.039
   18  0.000  0.000  0.099  0.099
   19  0.001  0.000  0.029  0.031
   20  0.000  0.000  0.059  0.060
   21  0.004  0.000  0.022  0.026
   22  0.001  0.000  0.026  0.027
   23  0.004  0.000  0.020  0.025
   24  0.000  0.000  0.019  0.019
   25  0.000  0.000  0.035  0.035
   26  0.001  0.000  0.030  0.031
   27  0.001  0.000  0.026  0.027
   28  0.000  0.000  0.012  0.012
   29  0.000  0.000  0.006  0.006
   30  0.003  0.000  0.004  0.007
   31  0.000  0.000  0.006  0.006
   32  0.001  0.000  0.005  0.006
   33  0.003  0.000  0.004  0.007
   34  0.001  0.000  0.005  0.006
   35  0.000  0.000  0.006  0.006
   36  0.000  0.000  0.001  0.001
   37  0.000  0.000  0.000  0.000
tot    0.064  0.008  0.768  0.840
 
band    14 # energy   -5.05410727 # occ.  2.00000000
 
ion      s      p      d    tot
    1  0.000  0.000  0.005  0.005
    2  0.004  0.000  0.006  0.010
    3  0.001  0.000  0.009  0.010
    4  0.004  0.000  0.006  0.010
    5  0.000  0.000  0.012  0.012
    6  0.002  0.000  0.007  0.009
    7  0.000  0.000  0.009  0.010
    8  0.001  0.000  0.007  0.009
    9  0.000  0.000  0.019  0.019
   10  0.005  0.000  0.019  0.024
   11  0.001  0.000  0.046  0.047
   12  0.001  0.000  0.030  0.032
   13  0.002  0.000  0.043  0.045
   14  0.006  0.000  0.012  0.018
   15  0.000  0.000  0.026  0.026
   16  0.001  0.000  0.031  0.032
   17  0.000  0.000  0.027  0.027
   18  0.000  0.000  0.042  0.042
   19  0.002  0.000  0.064  0.066
   20  0.001  0.000  0.049  0.050
   21  0.000  0.000  0.021  0.022
   22  0.004  0.000  0.061  0.065
   23  0.000  0.000  0.019  0.020
   24  0.013  0.000  0.018  0.031
   25  0.007  0.000  0.010  0.017
   26  0.002  0.000  0.061  0.063
   27  0.003  0.000  0.064  0.067
   28  0.000  0.000  0.004  0.004
   29  0.000  0.000  0.007  0.007
   30  0.001  0.000  0.002  0.004
   31  0.000  0.000  0.007  0.007
   32  0.001  0.001  0.007  0.009
   33  0.001  0.000  0.002  0.004
   34  0.001  0.001  0.006  0.008
   35  0.000  0.000  0.009  0.009
   36  0.000  0.000  0.001  0.001
   37  0.000  0.000  0.000  0.000
tot    0.064  0.008  0.770  0.841
 
band    15 # energy   -5.05409412 # occ.  2.00000000
 
ion      s      p      d    tot
    1  0.000  0.000  0.005  0.005
    2  0.000  0.000  0.009  0.009
    3  0.003  0.001  0.006  0.010
    4  0.000  0.000  0.009  0.009
    5  0.000  0.000  0.012  0.012
    6  0.002  0.000  0.008  0.010
    7  0.003  0.001  0.006  0.010
    8  0.002  0.000  0.008  0.011
    9  0.000  0.000  0.019  0.019
   10  0.000  0.000  0.034  0.034
   11  0.004  0.000  0.022  0.026
   12  0.003  0.000  0.024  0.027
   13  0.004  0.000  0.024  0.028
   14  0.000  0.000  0.055  0.056
   15  0.000  0.000  0.037  0.037
   16  0.004  0.000  0.023  0.027
   17  0.000  0.000  0.036  0.036
   18  0.000  0.000  0.021  0.021
   19  0.005  0.000  0.026  0.031
   20  0.000  0.000  0.011  0.011
   21  0.001  0.000  0.038  0.039
   22  0.010  0.000  0.034  0.044
   23  0.001  0.000  0.040  0.041
   24  0.000  0.000  0.077  0.078
   25  0.000  0.000  0.080  0.080
   26  0.005  0.000  0.029  0.035
   27  0.010  0.000  0.031  0.042
   28  0.000  0.000  0.004  0.004
   29  0.002  0.001  0.004  0.006
   30  0.000  0.000  0.008  0.009
   31  0.002  0.001  0.003  0.005
   32  0.001  0.000  0.004  0.004
   33  0.000  0.000  0.008  0.009
   34  0.001  0.000  0.004  0.005
   35  0.000  0.000  0.009  0.009
   36  0.000  0.000  0.001  0.001
   37  0.000  0.000  0.000  0.000
tot    0.064  0.008  0.770  0.841
 
band    16 # energy   -5.03788215 # occ.  2.00000000
 
ion      s      p      d    tot
    1  0.001  0.000  0.008  0.009
    2  0.003  0.000  0.012  0.015
    3  0.003  0.000  0.012  0.015
    4  0.003  0.000  0.012  0.015
    5  0.006  0.000  0.007  0.013
    6  0.003  0.000  0.012  0.015
    7  0.003  0.000  0.012  0.015
    8  0.003  0.000  0.012  0.015
    9  0.003  0.000  0.018  0.021
   10  0.003  0.000  0.004  0.007
   11  0.001  0.000  0.007  0.008
   12  0.003  0.000  0.004  0.007
   13  0.001  0.000  0.007  0.008
   14  0.001  0.000  0.007  0.008
   15  0.001  0.000  0.015  0.016
   16  0.003  0.000  0.004  0.007
   17  0.001  0.000  0.015  0.016
   18  0.001  0.000  0.015  0.016
   19  0.002  0.001  0.015  0.017
   20  0.003  0.001  0.026  0.031
   21  0.003  0.001  0.026  0.031
   22  0.000  0.001  0.021  0.022
   23  0.003  0.001  0.026  0.031
   24  0.000  0.001  0.021  0.022
   25  0.002  0.001  0.015  0.017
   26  0.002  0.001  0.015  0.017
   27  0.000  0.001  0.021  0.022
   28  0.010  0.000  0.019  0.029
   29  0.013  0.000  0.028  0.041
   30  0.013  0.000  0.028  0.041
   31  0.013  0.000  0.028  0.041
   32  0.013  0.000  0.028  0.041
   33  0.013  0.000  0.028  0.041
   34  0.013  0.000  0.028  0.041
   35  0.022  0.000  0.029  0.051
   36  0.010  0.001  0.002  0.012
   37  0.001  0.000  0.000  0.001
tot    0.180  0.009  0.585  0.773
 
band    17 # energy   -4.91439309 # occ.  2.00000000
 
ion      s      p      d    tot
    1  0.001  0.000  0.000  0.001
    2  0.000  0.000  0.007  0.007
    3  0.000  0.000  0.007  0.007
    4  0.000  0.000  0.007  0.007
    5  0.000  0.000  0.018  0.018
    6  0.000  0.000  0.007  0.007
    7  0.000  0.000  0.007  0.007
    8  0.000  0.000  0.007  0.007
    9  0.002  0.001  0.005  0.007
   10  0.000  0.000  0.014  0.015
   11  0.000  0.001  0.075  0.076
   12  0.000  0.000  0.014  0.015
   13  0.000  0.001  0.075  0.076
   14  0.000  0.001  0.075  0.076
   15  0.000  0.001  0.036  0.037
   16  0.000  0.000  0.014  0.015
   17  0.000  0.001  0.036  0.037
   18  0.000  0.001  0.036  0.037
   19  0.000  0.001  0.026  0.026
   20  0.001  0.000  0.069  0.071
   21  0.001  0.000  0.069  0.071
   22  0.002  0.000  0.014  0.016
   23  0.001  0.000  0.069  0.071
   24  0.002  0.000  0.014  0.016
   25  0.000  0.001  0.026  0.026
   26  0.000  0.001  0.026  0.026
   27  0.002  0.000  0.014  0.016
   28  0.007  0.001  0.000  0.008
   29  0.001  0.000  0.010  0.011
   30  0.001  0.000  0.010  0.011
   31  0.001  0.000  0.010  0.011
   32  0.001  0.000  0.010  0.011
   33  0.001  0.000  0.010  0.011
   34  0.001  0.000  0.010  0.011
   35  0.000  0.000  0.000  0.000
   36  0.000  0.001  0.003  0.004
   37  0.000  0.000  0.000  0.000
tot    0.026  0.014  0.826  0.866
 
band    18 # energy   -4.90186007 # occ.  2.00000000
 
ion      s      p      d    tot
    1  0.000  0.000  0.001  0.001
    2  0.000  0.000  0.008  0.009
    3  0.001  0.001  0.005  0.007
    4  0.000  0.000  0.009  0.009
    5  0.000  0.001  0.017  0.018
    6  0.001  0.001  0.009  0.011
    7  0.001  0.001  0.005  0.007
    8  0.001  0.001  0.009  0.010
    9  0.000  0.000  0.010  0.010
   10  0.000  0.000  0.042  0.042
   11  0.002  0.000  0.055  0.056
   12  0.000  0.001  0.028  0.029
   13  0.001  0.000  0.058  0.060
   14  0.000  0.000  0.090  0.091
   15  0.002  0.001  0.032  0.034
   16  0.000  0.001  0.026  0.027
   17  0.002  0.001  0.029  0.032
   18  0.000  0.000  0.006  0.006
   19  0.002  0.001  0.031  0.034
   20  0.000  0.000  0.090  0.090
   21  0.002  0.000  0.055  0.057
   22  0.000  0.001  0.022  0.023
   23  0.002  0.000  0.052  0.054
   24  0.000  0.000  0.026  0.027
   25  0.000  0.000  0.011  0.011
   26  0.002  0.001  0.029  0.032
   27  0.000  0.001  0.021  0.022
   28  0.000  0.000  0.010  0.011
   29  0.001  0.001  0.007  0.008
   30  0.002  0.001  0.004  0.007
   31  0.001  0.000  0.007  0.008
   32  0.000  0.000  0.006  0.006
   33  0.002  0.001  0.004  0.007
   34  0.000  0.000  0.005  0.006
   35  0.000  0.000  0.000  0.000
   36  0.000  0.002  0.002  0.003
   37  0.000  0.000  0.000  0.000
tot    0.025  0.016  0.824  0.864
 
band    19 # energy   -4.90185219 # occ.  2.00000000
 
ion      s      p      d    tot
    1  0.000  0.000  0.001  0.001
    2  0.001  0.001  0.007  0.009
    3  0.000  0.000  0.010  0.011
    4  0.002  0.001  0.006  0.009
    5  0.000  0.001  0.017  0.018
    6  0.001  0.000  0.006  0.007
    7  0.000  0.000  0.010  0.011
    8  0.001  0.000  0.006  0.007
    9  0.000  0.000  0.010  0.010
   10  0.000  0.001  0.022  0.023
   11  0.000  0.000  0.081  0.081
   12  0.000  0.000  0.036  0.037
   13  0.001  0.000  0.077  0.078
   14  0.002  0.000  0.045  0.047
   15  0.000  0.000  0.013  0.013
   16  0.000  0.000  0.038  0.038
   17  0.001  0.000  0.015  0.016
   18  0.002  0.001  0.039  0.042
   19  0.001  0.000  0.016  0.017
   20  0.003  0.000  0.041  0.044
   21  0.001  0.000  0.076  0.077
   22  0.000  0.000  0.025  0.025
   23  0.001  0.000  0.080  0.080
   24  0.000  0.001  0.020  0.021
   25  0.003  0.001  0.037  0.040
   26  0.001  0.000  0.018  0.019
   27  0.000  0.000  0.025  0.025
   28  0.000  0.000  0.010  0.011
   29  0.001  0.000  0.004  0.006
   30  0.000  0.000  0.007  0.007
   31  0.001  0.000  0.004  0.006
   32  0.002  0.001  0.005  0.008
   33  0.000  0.000  0.007  0.007
   34  0.002  0.001  0.006  0.008
   35  0.000  0.000  0.000  0.000
   36  0.000  0.002  0.002  0.003
   37  0.000  0.000  0.000  0.000
tot    0.025  0.016  0.824  0.864
 
band    20 # energy   -4.89860051 # occ.  2.00000000
 
ion      s      p      d    tot
    1  0.001  0.000  0.007  0.009
    2  0.000  0.000  0.011  0.012
    3  0.000  0.000  0.011  0.012
    4  0.000  0.000  0.011  0.012
    5  0.004  0.001  0.000  0.005
    6  0.000  0.000  0.011  0.012
    7  0.000  0.000  0.011  0.012
    8  0.000  0.000  0.011  0.012
    9  0.001  0.000  0.004  0.005
   10  0.001  0.001  0.057  0.059
   11  0.000  0.000  0.020  0.020
   12  0.001  0.001  0.058  0.060
   13  0.000  0.000  0.020  0.020
   14  0.000  0.000  0.020  0.021
   15  0.002  0.000  0.031  0.033
   16  0.001  0.001  0.058  0.060
   17  0.002  0.000  0.031  0.033
   18  0.002  0.000  0.031  0.033
   19  0.002  0.000  0.050  0.052
   20  0.001  0.000  0.015  0.016
   21  0.001  0.000  0.015  0.016
   22  0.001  0.001  0.045  0.047
   23  0.001  0.000  0.015  0.016
   24  0.001  0.001  0.045  0.047
   25  0.002  0.000  0.050  0.052
   26  0.002  0.000  0.050  0.052
   27  0.001  0.001  0.045  0.047
   28  0.001  0.000  0.012  0.012
   29  0.000  0.000  0.009  0.010
   30  0.000  0.000  0.009  0.010
   31  0.000  0.000  0.009  0.010
   32  0.000  0.000  0.009  0.010
   33  0.000  0.000  0.009  0.010
   34  0.000  0.000  0.009  0.010
   35  0.003  0.001  0.003  0.007
   36  0.003  0.001  0.000  0.004
   37  0.000  0.000  0.000  0.000
tot    0.033  0.017  0.806  0.856
 
band    21 # energy   -4.88899533 # occ.  2.00000000
 
ion      s      p      d    tot
    1  0.000  0.001  0.018  0.018
    2  0.000  0.000  0.008  0.009
    3  0.001  0.001  0.004  0.006
    4  0.000  0.000  0.009  0.010
    5  0.000  0.000  0.001  0.001
    6  0.001  0.001  0.010  0.012
    7  0.001  0.001  0.005  0.007
    8  0.001  0.001  0.009  0.011
    9  0.000  0.000  0.008  0.009
   10  0.002  0.000  0.055  0.058
   11  0.000  0.000  0.010  0.010
   12  0.001  0.000  0.051  0.052
   13  0.000  0.000  0.014  0.015
   14  0.000  0.001  0.030  0.032
   15  0.000  0.000  0.076  0.076
   16  0.000  0.000  0.050  0.050
   17  0.000  0.000  0.066  0.066
   18  0.001  0.000  0.026  0.027
   19  0.000  0.000  0.059  0.060
   20  0.001  0.001  0.034  0.036
   21  0.000  0.000  0.012  0.013
   22  0.001  0.000  0.047  0.048
   23  0.000  0.000  0.006  0.007
   24  0.003  0.000  0.043  0.046
   25  0.001  0.000  0.023  0.024
   26  0.000  0.000  0.052  0.052
   27  0.001  0.000  0.048  0.048
   28  0.000  0.000  0.006  0.006
   29  0.001  0.001  0.007  0.008
   30  0.001  0.001  0.004  0.006
   31  0.000  0.000  0.008  0.009
   32  0.000  0.000  0.006  0.007
   33  0.001  0.001  0.003  0.005
   34  0.000  0.000  0.006  0.006
   35  0.000  0.001  0.016  0.017
   36  0.000  0.000  0.001  0.001