 vasp.6.2.0 18Jan21 (build Jun 12 2021 23:27:24) complex                        
  
 executed on             LinuxIFC date 2022.05.28  01:48:57
 running on   28 total cores
 distrk:  each k-point on   28 cores,    1 groups
 distr:  one band on NCORE=   1 cores,   28 groups


--------------------------------------------------------------------------------------------------------


 INCAR:
   ISMEAR = -5
   SIGMA = 0.1
   ISPIN = 1
   EDIFF = 1.d-5
   EDIFFG = -0.01
   NSW = 0
   NELM = 150
   ENCUT = 500
   ISIF = 2
   IBRION = 2
   LREAL = Auto
   ALGO = Fast
   ICHARG = 11
   LORBIT = 10
   LCHARG = .F.
   LWAVE = .F.

 POTCAR:    PAW_PBE Ag 02Apr2005                  
 POTCAR:    PAW_PBE Ru 04Feb2005                  
 POTCAR:    PAW_PBE C 08Apr2002                   
 POTCAR:    PAW_PBE O 08Apr2002                   
 -----------------------------------------------------------------------------
|                                                                             |
|           W    W    AA    RRRRR   N    N  II  N    N   GGGG   !!!           |
|           W    W   A  A   R    R  NN   N  II  NN   N  G    G  !!!           |
|           W    W  A    A  R    R  N N  N  II  N N  N  G       !!!           |
|           W WW W  AAAAAA  RRRRR   N  N N  II  N  N N  G  GGG   !            |
|           WW  WW  A    A  R   R   N   NN  II  N   NN  G    G                |
|           W    W  A    A  R    R  N    N  II  N    N   GGGG   !!!           |
|                                                                             |
|     For optimal performance we recommend to set                             |
|       NCORE = 2 up to number-of-cores-per-socket                            |
|     NCORE specifies how many cores store one orbital (NPAR=cpu/NCORE).      |
|     This setting can greatly improve the performance of VASP for DFT.       |
|     The default, NCORE=1 might be grossly inefficient on modern             |
|     multi-core architectures or massively parallel machines. Do your        |
|     own testing! More info at https://www.vasp.at/wiki/index.php/NCORE      |
|     Unfortunately you need to use the default for GW and RPA                |
|     calculations (for HF NCORE is supported but not extensively tested      |
|     yet).                                                                   |
|                                                                             |
 -----------------------------------------------------------------------------

 POTCAR:    PAW_PBE Ag 02Apr2005                  
   VRHFIN =Ag : s1 d10                                                                              
   LEXCH  = PE                                                                                      
   EATOM  =  1037.2675 eV,   76.2370 Ry                                                             
                                                                                                    
   TITEL  = PAW_PBE Ag 02Apr2005                                                                    
   LULTRA =        F    use ultrasoft PP ?                                                          
   IUNSCR =        1    unscreen: 0-lin 1-nonlin 2-no                                               
   RPACOR =    2.000    partial core radius                                                         
   POMASS =  107.868; ZVAL   =   11.000    mass and valenz                                          
   RCORE  =    2.500    outmost cutoff radius                                                       
   RWIGS  =    2.840; RWIGS  =    1.503    wigner-seitz radius (au A)                               
   ENMAX  =  249.844; ENMIN  =  187.383 eV                                                          
   ICORE  =        3    local potential                                                             
   LCOR   =        T    correct aug charges                                                         
   LPAW   =        T    paw PP                                                                      
   EAUG   =  412.496                                                                                
   DEXC   =    0.000                                                                                
   RMAX   =    2.560    core radius for proj-oper                                                   
   RAUG   =    1.300    factor for augmentation sphere                                              
   RDEP   =    2.576    radius for radial grids                                                     
   RDEPT  =    2.072    core radius for aug-charge                                                  
                                                                                                    
   Atomic configuration                                                                             
   12 entries                                                                                       
     n  l   j            E        occ.                                                              
     1  0  0.50    -25324.9161   2.0000                                                             
     2  0  0.50     -3728.5341   2.0000                                                             
     2  1  1.50     -3344.0404   6.0000                                                             
     3  0  0.50      -683.5581   2.0000                                                             
     3  1  1.50      -557.3225   6.0000                                                             
     3  2  2.50      -358.3853  10.0000                                                             
     4  0  0.50       -95.0341   2.0000                                                             
     4  1  1.50       -58.5511   6.0000                                                             
     4  2  2.50        -7.4440  10.0000                                                             
     5  0  0.50        -4.4045   1.0000                                                             
     5  1  0.50        -1.3606   0.0000                                                             
     4  3  2.50        -1.3606   0.0000                                                             
   Description                                                                                      
     l       E           TYP  RCUT    TYP  RCUT                                                     
     2     -7.4439781     23  2.400                                                                 
     2     -8.8045607     23  2.400                                                                 
     0     -4.4044681     23  2.400                                                                 
     0      1.9520038     23  2.400                                                                 
     1     -1.3605826     23  2.500                                                                 
     1     27.2116520     23  2.500                                                                 
     3     -4.0817478     23  2.400                                                                 
  local pseudopotential read in
  partial core-charges read in
  partial kinetic energy density read in
  atomic valenz-charges read in
  non local Contribution for L=           2  read in
    real space projection operators read in
  non local Contribution for L=           2  read in
    real space projection operators read in
  non local Contribution for L=           0  read in
    real space projection operators read in
  non local Contribution for L=           0  read in
    real space projection operators read in
  non local Contribution for L=           1  read in
    real space projection operators read in
  non local Contribution for L=           1  read in
    real space projection operators read in
    PAW grid and wavefunctions read in
 
   number of l-projection  operators is LMAX  =           6
   number of lm-projection operators is LMMAX =          18
 
 POTCAR:    PAW_PBE Ru 04Feb2005                  
   VRHFIN =Ru: s1 d7                                                                                
   LEXCH  = PE                                                                                      
   EATOM  =   454.8837 eV,   33.4330 Ry                                                             
                                                                                                    
   TITEL  = PAW_PBE Ru 04Feb2005                                                                    
   LULTRA =        F    use ultrasoft PP ?                                                          
   IUNSCR =        1    unscreen: 0-lin 1-nonlin 2-no                                               
   RPACOR =    2.170    partial core radius                                                         
   POMASS =  101.070; ZVAL   =    8.000    mass and valenz                                          
   RCORE  =    2.700    outmost cutoff radius                                                       
   RWIGS  =    2.650; RWIGS  =    1.402    wigner-seitz radius (au A)                               
   ENMAX  =  213.271; ENMIN  =  159.953 eV                                                          
   ICORE  =        3    local potential                                                             
   LCOR   =        T    correct aug charges                                                         
   LPAW   =        T    paw PP                                                                      
   EAUG   =  333.494                                                                                
   DEXC   =    0.000                                                                                
   RMAX   =    2.758    core radius for proj-oper                                                   
   RAUG   =    1.300    factor for augmentation sphere                                              
   RDEP   =    2.865    radius for radial grids                                                     
   RDEPT  =    2.250    core radius for aug-charge                                                  
                                                                                                    
   Atomic configuration                                                                             
   12 entries                                                                                       
     n  l   j            E        occ.                                                              
     1  0  0.50    -21933.2693   2.0000                                                             
     2  0  0.50     -3153.4097   2.0000                                                             
     2  1  1.50     -2823.9548   6.0000                                                             
     3  0  0.50      -555.3323   2.0000                                                             
     3  1  1.50      -447.1024   6.0000                                                             
     3  2  2.50      -273.0570  10.0000                                                             
     4  0  0.50       -76.3589   2.0000                                                             
     4  1  1.50       -46.4050   6.0000                                                             
     4  2  2.50        -5.2029   7.0000                                                             
     5  0  0.50        -4.2392   1.0000                                                             
     5  1  0.50        -1.3606   0.0000                                                             
     4  3  2.50        -1.3606   0.0000                                                             
   Description                                                                                      
     l       E           TYP  RCUT    TYP  RCUT                                                     
     2     -5.2028939     23  2.600                                                                 
     2     -6.5634765     23  2.600                                                                 
     0     -4.2392259     23  2.700                                                                 
     0     27.2116520     23  2.700                                                                 
     1     -4.0817478     23  2.700                                                                 
     1     27.2116520     23  2.700                                                                 
     3     -5.4423304     23  2.600                                                                 
  local pseudopotential read in
  partial core-charges read in
  partial kinetic energy density read in
  atomic valenz-charges read in
  non local Contribution for L=           2  read in
    real space projection operators read in
  non local Contribution for L=           2  read in
    real space projection operators read in
  non local Contribution for L=           0  read in
    real space projection operators read in
  non local Contribution for L=           0  read in
    real space projection operators read in
  non local Contribution for L=           1  read in
    real space projection operators read in
  non local Contribution for L=           1  read in
    real space projection operators read in
    PAW grid and wavefunctions read in
 
   number of l-projection  operators is LMAX  =           6
   number of lm-projection operators is LMMAX =          18
 
 POTCAR:    PAW_PBE C 08Apr2002                   
   VRHFIN =C: s2p2                                                                                  
   LEXCH  = PE                                                                                      
   EATOM  =   147.1560 eV,   10.8157 Ry                                                             
                                                                                                    
   TITEL  = PAW_PBE C 08Apr2002                                                                     
   LULTRA =        F    use ultrasoft PP ?                                                          
   IUNSCR =        1    unscreen: 0-lin 1-nonlin 2-no                                               
   RPACOR =    1.200    partial core radius                                                         
   POMASS =   12.011; ZVAL   =    4.000    mass and valenz                                          
   RCORE  =    1.500    outmost cutoff radius                                                       
   RWIGS  =    1.630; RWIGS  =    0.863    wigner-seitz radius (au A)                               
   ENMAX  =  400.000; ENMIN  =  300.000 eV                                                          
   ICORE  =        2    local potential                                                             
   LCOR   =        T    correct aug charges                                                         
   LPAW   =        T    paw PP                                                                      
   EAUG   =  644.873                                                                                
   DEXC   =    0.000                                                                                
   RMAX   =    1.529    core radius for proj-oper                                                   
   RAUG   =    1.300    factor for augmentation sphere                                              
   RDEP   =    1.501    radius for radial grids                                                     
   RDEPT  =    1.300    core radius for aug-charge                                                  
                                                                                                    
   Atomic configuration                                                                             
    4 entries                                                                                       
     n  l   j            E        occ.                                                              
     1  0  0.50      -273.3789   2.0000                                                             
     2  0  0.50       -13.7508   2.0000                                                             
     2  1  0.50        -5.2854   2.0000                                                             
     3  2  1.50        -5.4423   0.0000                                                             
   Description                                                                                      
     l       E           TYP  RCUT    TYP  RCUT                                                     
     0    -13.7508458     23  1.200                                                                 
     0     -8.2022199     23  1.200                                                                 
     1     -5.2854383     23  1.500                                                                 
     1     34.0145650     23  1.500                                                                 
     2     -5.4423304      7  1.500                                                                 
  local pseudopotential read in
  partial core-charges read in
  partial kinetic energy density read in
  atomic valenz-charges read in
  non local Contribution for L=           0  read in
    real space projection operators read in
  non local Contribution for L=           0  read in
    real space projection operators read in
  non local Contribution for L=           1  read in
    real space projection operators read in
  non local Contribution for L=           1  read in
    real space projection operators read in
    PAW grid and wavefunctions read in
 
   number of l-projection  operators is LMAX  =           4
   number of lm-projection operators is LMMAX =           8
 
 POTCAR:    PAW_PBE O 08Apr2002                   
   VRHFIN =O: s2p4                                                                                  
   LEXCH  = PE                                                                                      
   EATOM  =   432.3788 eV,   31.7789 Ry                                                             
                                                                                                    
   TITEL  = PAW_PBE O 08Apr2002                                                                     
   LULTRA =        F    use ultrasoft PP ?                                                          
   IUNSCR =        1    unscreen: 0-lin 1-nonlin 2-no                                               
   RPACOR =    1.200    partial core radius                                                         
   POMASS =   16.000; ZVAL   =    6.000    mass and valenz                                          
   RCORE  =    1.520    outmost cutoff radius                                                       
   RWIGS  =    1.550; RWIGS  =    0.820    wigner-seitz radius (au A)                               
   ENMAX  =  400.000; ENMIN  =  300.000 eV                                                          
   ICORE  =        2    local potential                                                             
   LCOR   =        T    correct aug charges                                                         
   LPAW   =        T    paw PP                                                                      
   EAUG   =  605.392                                                                                
   DEXC   =    0.000                                                                                
   RMAX   =    1.553    core radius for proj-oper                                                   
   RAUG   =    1.300    factor for augmentation sphere                                              
   RDEP   =    1.550    radius for radial grids                                                     
   RDEPT  =    1.329    core radius for aug-charge                                                  
                                                                                                    
   Atomic configuration                                                                             
    4 entries                                                                                       
     n  l   j            E        occ.                                                              
     1  0  0.50      -514.6923   2.0000                                                             
     2  0  0.50       -23.9615   2.0000                                                             
     2  1  0.50        -9.0305   4.0000                                                             
     3  2  1.50        -9.5241   0.0000                                                             
   Description                                                                                      
     l       E           TYP  RCUT    TYP  RCUT                                                     
     0    -23.9615318     23  1.200                                                                 
     0     -9.5240782     23  1.200                                                                 
     1     -9.0304911     23  1.520                                                                 
     1      8.1634956     23  1.520                                                                 
     2     -9.5240782      7  1.500                                                                 
  local pseudopotential read in
  partial core-charges read in
  partial kinetic energy density read in
  kinetic energy density of atom read in
  atomic valenz-charges read in
  non local Contribution for L=           0  read in
    real space projection operators read in
  non local Contribution for L=           0  read in
    real space projection operators read in
  non local Contribution for L=           1  read in
    real space projection operators read in
  non local Contribution for L=           1  read in
    real space projection operators read in
    PAW grid and wavefunctions read in
 
   number of l-projection  operators is LMAX  =           4
   number of lm-projection operators is LMMAX =           8
 
 Optimization of the real space projectors (new method)

 maximal supplied QI-value         = 15.12
 optimisation between [QCUT,QGAM] = [ 11.34, 22.83] = [ 36.00,145.93] Ry 
 Optimized for a Real-space Cutoff    1.43 Angstroem

   l    n(q)    QCUT    max X(q) W(low)/X(q) W(high)/X(q)  e(spline) 
   2      9    11.338    53.897    0.16E-03    0.20E-03    0.28E-06
   2      9    11.338    52.416    0.16E-03    0.20E-03    0.29E-06
   0     10    11.338   122.045    0.31E-04    0.76E-04    0.15E-06
   0     10    11.338    73.629    0.30E-04    0.72E-04    0.15E-06
   1      9    11.338    15.255    0.20E-03    0.19E-04    0.17E-06
   1      9    11.338     9.562    0.16E-03    0.15E-04    0.14E-06
 Optimization of the real space projectors (new method)

 maximal supplied QI-value         = 13.98
 optimisation between [QCUT,QGAM] = [ 11.33, 22.79] = [ 35.93,145.49] Ry 
 Optimized for a Real-space Cutoff    1.52 Angstroem

   l    n(q)    QCUT    max X(q) W(low)/X(q) W(high)/X(q)  e(spline) 
   2      9    11.327    61.733    0.26E-03    0.14E-03    0.16E-06
   2      9    11.327    59.886    0.26E-03    0.14E-03    0.17E-06
   0     10    11.327    23.358    0.19E-03    0.14E-04    0.46E-06
   0     10    11.327    11.320    0.15E-03    0.11E-04    0.37E-06
   1     10    11.327    14.765    0.49E-04    0.26E-03    0.24E-06
   1     10    11.327     8.283    0.37E-04    0.20E-03    0.18E-06
 Optimization of the real space projectors (new method)

 maximal supplied QI-value         = 25.13
 optimisation between [QCUT,QGAM] = [ 11.31, 22.87] = [ 35.82,146.48] Ry 
 Optimized for a Real-space Cutoff    1.00 Angstroem

   l    n(q)    QCUT    max X(q) W(low)/X(q) W(high)/X(q)  e(spline) 
   0      7    11.310   115.676    0.43E-03    0.13E-02    0.19E-06
   0      7    11.310    87.132    0.43E-03    0.13E-02    0.18E-06
   1      6    11.310     4.429    0.42E-03    0.74E-03    0.11E-06
   1      6    11.310     2.733    0.34E-03    0.55E-03    0.92E-07
 Optimization of the real space projectors (new method)

 maximal supplied QI-value         = 24.76
 optimisation between [QCUT,QGAM] = [ 11.39, 22.77] = [ 36.31,145.25] Ry 
 Optimized for a Real-space Cutoff    1.00 Angstroem

   l    n(q)    QCUT    max X(q) W(low)/X(q) W(high)/X(q)  e(spline) 
   0      7    11.387    20.381    0.39E-03    0.13E-02    0.15E-06
   0      7    11.387    15.268    0.42E-03    0.14E-02    0.17E-06
   1      6    11.387     5.964    0.41E-03    0.11E-02    0.17E-06
   1      6    11.387     5.382    0.39E-03    0.87E-03    0.15E-06
  PAW_PBE Ag 02Apr2005                  :
 energy of atom  1       EATOM=-1037.2675
 kinetic energy error for atom=    0.0052 (will be added to EATOM!!)
  PAW_PBE Ru 04Feb2005                  :
 energy of atom  2       EATOM= -454.8837
 kinetic energy error for atom=    0.0015 (will be added to EATOM!!)
  PAW_PBE C 08Apr2002                   :
 energy of atom  3       EATOM= -147.1560
 kinetic energy error for atom=    0.0076 (will be added to EATOM!!)
  PAW_PBE O 08Apr2002                   :
 energy of atom  4       EATOM= -432.3788
 kinetic energy error for atom=    0.0224 (will be added to EATOM!!)
 
 
 POSCAR: Ag-Ru-CO2
  positions in direct lattice
  velocities in cartesian coordinates
 exchange correlation table for  LEXCH =        8
   RHO(1)=    0.500       N(1)  =     2000
   RHO(2)=  100.500       N(2)  =     4000

 VTST: version 3.2, (02/03/18)

 CHAIN: initializing optimizer
 
 OPT: Using VASP Conjugate-Gradient optimizer
 CHAIN: Read ICHAIN            0
 
 POSCAR: Ag-Ru-CO2
  positions in direct lattice
  velocities in cartesian coordinates
 


--------------------------------------------------------------------------------------------------------


 ion  position               nearest neighbor table
   1  0.000  0.000  0.217-   2 2.93   8 2.93   7 2.93   6 2.93   4 2.93  12 2.93  16 2.93  10 2.93
                             3 2.93
   2  0.333  0.000  0.217-   1 2.93   8 2.93   9 2.93   3 2.93   4 2.93   5 2.93  10 2.93  17 2.93
                            11 2.93
   3  0.667  0.000  0.217-   9 2.93   2 2.93   5 2.93  11 2.93   7 2.93  18 2.93   1 2.93   6 2.93
                            12 2.93
   4  0.000  0.333  0.217-   5 2.93   6 2.93   2 2.93   1 2.93   7 2.93  13 2.93  15 2.93   9 2.93
                            10 2.93
   5  0.333  0.333  0.217-   4 2.93   3 2.93   7 2.93   2 2.93   8 2.93  14 2.93  13 2.93  11 2.93
                             6 2.93
   6  0.667  0.333  0.217-   4 2.93   9 2.93   1 2.93  15 2.93   8 2.93  12 2.93   3 2.93   5 2.93
                            14 2.93
   7  0.000  0.667  0.217-   8 2.93   1 2.93   5 2.93   3 2.93   4 2.93  16 2.93  18 2.93  13 2.93
                             9 2.93
   8  0.333  0.667  0.217-   7 2.93   1 2.93   2 2.93   9 2.93   5 2.93  16 2.93   6 2.93  17 2.93
                            14 2.93
   9  0.667  0.667  0.217-   3 2.93   2 2.93   8 2.93   6 2.93  17 2.93   4 2.93  15 2.93   7 2.93
                            18 2.93
  10  0.111  0.111  0.315-  20 2.90  19 2.93  26 2.93  12 2.93  16 2.93  15 2.93  17 2.93  13 2.93
                            11 2.93   2 2.93   1 2.93   4 2.93
  11  0.444  0.111  0.315-  21 2.90  20 2.90  27 2.92  14 2.93  17 2.93  18 2.93   3 2.93  12 2.93
                            13 2.93  10 2.93   5 2.93   2 2.93
  12  0.778  0.111  0.315-  21 2.90  25 2.93  19 2.93  10 2.93  16 2.93  18 2.93  15 2.93  11 2.93
                             1 2.93  14 2.93   6 2.93   3 2.93
  13  0.111  0.444  0.315-  20 2.90  23 2.90  22 2.92  15 2.93  14 2.93  18 2.93  10 2.93  11 2.93
                            16 2.93   4 2.93   5 2.93   7 2.93
  14  0.444  0.444  0.315-  23 2.90  21 2.90  24 2.92  13 2.93  11 2.93  16 2.93   5 2.93  12 2.93
                            17 2.93   8 2.93  15 2.93   6 2.93
  15  0.778  0.444  0.315-  24 2.92  22 2.92  19 2.93  13 2.93  10 2.93  12 2.93  17 2.93  18 2.93
                             4 2.93   6 2.93   9 2.93  14 2.93
  16  0.111  0.778  0.315-  23 2.90  26 2.93  25 2.93  18 2.93  12 2.93  10 2.93  14 2.93  17 2.93
                            13 2.93   7 2.93   8 2.93   1 2.93
  17  0.444  0.778  0.315-  27 2.92  24 2.92  26 2.93  11 2.93  10 2.93   9 2.93  18 2.93  15 2.93
                            16 2.93   2 2.93  14 2.93   8 2.93
  18  0.778  0.778  0.315-  22 2.92  27 2.92  25 2.93  16 2.93  12 2.93  13 2.93  11 2.93  17 2.93
                            15 2.93   7 2.93   3 2.93   9 2.93
  19  0.889  0.223  0.413-  28 2.91  15 2.93  10 2.93  12 2.93  24 2.93  22 2.93  26 2.93  25 2.93
                            20 2.94  21 2.94  32 2.94  31 2.94
  20  0.223  0.223  0.412-  36 2.77  13 2.90  11 2.90  10 2.90  21 2.92  23 2.92  31 2.92  29 2.92
                            27 2.93  22 2.93  19 2.94  26 2.94
  21  0.555  0.223  0.412-  36 2.77  11 2.90  14 2.90  12 2.90  20 2.92  23 2.92  30 2.92  32 2.92
                            27 2.93  24 2.93  25 2.94  19 2.94
  22  0.888  0.556  0.413-  35 2.91  18 2.92  15 2.92  13 2.92  33 2.92  31 2.92  24 2.92  27 2.92
                            25 2.93  19 2.93  23 2.93  20 2.93
  23  0.223  0.555  0.412-  36 2.77  14 2.90  13 2.90  16 2.90  21 2.92  20 2.92  34 2.92  33 2.92
                            22 2.93  24 2.93  26 2.94  25 2.94
  24  0.556  0.556  0.413-  35 2.91  15 2.92  17 2.92  14 2.92  32 2.92  34 2.92  27 2.92  22 2.92
                            19 2.93  26 2.93  23 2.93  21 2.93
  25  0.889  0.889  0.413-  28 2.91  18 2.93  16 2.93  12 2.93  22 2.93  27 2.93  26 2.93  19 2.93
                            23 2.94  21 2.94  33 2.94  30 2.94
  26  0.223  0.889  0.413-  28 2.91  17 2.93  16 2.93  10 2.93  27 2.93  24 2.93  25 2.93  19 2.93
                            23 2.94  20 2.94  34 2.94  29 2.94
  27  0.556  0.888  0.413-  35 2.91  17 2.92  18 2.92  11 2.92  29 2.92  30 2.92  24 2.92  22 2.92
                            26 2.93  25 2.93  20 2.93  21 2.93
  28  0.000  0.000  0.510-  26 2.91  25 2.91  19 2.91  29 2.95  34 2.95  33 2.95  32 2.95  31 2.95
                            30 2.95
  29  0.333  0.006  0.511-  31 2.88  30 2.88  36 2.89  20 2.92  27 2.92  26 2.94  28 2.95  35 2.96
                            34 3.03
  30  0.661  0.006  0.511-  32 2.88  29 2.88  36 2.89  21 2.92  27 2.92  25 2.94  28 2.95  35 2.96
                            33 3.03
  31  0.006  0.333  0.511-  29 2.88  33 2.88  36 2.89  20 2.92  22 2.92  19 2.94  28 2.95  35 2.96
                            32 3.03
  32  0.661  0.333  0.511-  30 2.88  34 2.88  36 2.89  21 2.92  24 2.92  19 2.94  28 2.95  35 2.96
                            31 3.03
  33  0.006  0.661  0.511-  34 2.88  31 2.88  36 2.89  23 2.92  22 2.92  25 2.94  28 2.95  35 2.96
                            30 3.03
  34  0.333  0.661  0.511-  33 2.88  32 2.88  36 2.89  23 2.92  24 2.92  26 2.94  28 2.95  35 2.96
                            29 3.03
  35  0.667  0.667  0.510-  24 2.91  27 2.91  22 2.91  30 2.96  32 2.96  29 2.96  34 2.96  31 2.96
                            33 2.96
  36  0.333  0.333  0.502-  37 2.03  21 2.77  20 2.77  23 2.77  31 2.89  30 2.89  33 2.89  29 2.89
                            34 2.89  32 2.89
  37  0.332  0.335  0.585-  38 1.25  39 1.25  36 2.03
  38  0.201  0.333  0.604-  37 1.25
  39  0.466  0.333  0.603-  37 1.25
 
  LATTYP: Found a hexagonal cell.
 ALAT       =     8.7913665772
 C/A-ratio  =     2.7703738524
  
  Lattice vectors:
  
 A1 = (  -4.3956832886,  -7.6135467898,   0.0000000000)
 A2 = (   8.7913665771,   0.0000000000,   0.0000000000)
 A3 = (   0.0000000000,   0.0000000000,  24.3553720923)


Analysis of symmetry for initial positions (statically):
=====================================================================
 Subroutine PRICEL returns:
 Original cell was already a primitive cell.
 

 Routine SETGRP: Setting up the symmetry group for a 
 hexagonal supercell.


 Subroutine GETGRP returns: Found  1 space group operations
 (whereof  1 operations were pure point group operations)
 out of a pool of 24 trial point group operations.


The static configuration has the point symmetry C_1 .


Analysis of symmetry for dynamics (positions and initial velocities):
=====================================================================
 Subroutine PRICEL returns:
 Original cell was already a primitive cell.
 

 Routine SETGRP: Setting up the symmetry group for a 
 hexagonal supercell.


 Subroutine GETGRP returns: Found  1 space group operations
 (whereof  1 operations were pure point group operations)
 out of a pool of 24 trial point group operations.


The dynamic configuration has the point symmetry C_1 .


Analysis of constrained symmetry for selective dynamics:
=====================================================================
 Subroutine PRICEL returns:
 Original cell was already a primitive cell.
 

 Routine SETGRP: Setting up the symmetry group for a 
 hexagonal supercell.


 Subroutine GETGRP returns: Found  1 space group operations
 (whereof  1 operations were pure point group operations)
 out of a pool of 24 trial point group operations.


The constrained configuration has the point symmetry C_1 .


 Subroutine INISYM returns: Found  1 space group operations
 (whereof  1 operations are pure point group operations),
 and found     1 'primitive' translations


----------------------------------------------------------------------------------------

                                     Primitive cell                                     

  volume of cell :    1630.1898

  direct lattice vectors                    reciprocal lattice vectors
     8.791366577  0.000000000  0.000000000     0.113747958 -0.065672414  0.000000000
     4.395683289  7.613546790  0.000000000     0.000000000  0.131344829  0.000000000
     0.000000000  0.000000000 24.355372092     0.000000000  0.000000000  0.041058703

  length of vectors
     8.791366577  8.791366577 24.355372092     0.131344829  0.131344829  0.041058703

  position of ions in fractional coordinates (direct lattice)
     0.000000000  0.000000000  0.216879796
     0.333333313  0.000000000  0.216879796
     0.666666627  0.000000000  0.216879796
     1.000000000  0.333333343  0.216879796
     0.333333313  0.333333343  0.216879796
     0.666666687  0.333333343  0.216879796
     1.000000000  0.666666687  0.216879796
     0.333333313  0.666666687  0.216879796
     0.666666627  0.666666687  0.216879796
     0.111111104  0.111111112  0.315121252
     0.444444448  0.111111112  0.315121252
     0.777777791  0.111111112  0.315121252
     0.111111097  0.444444448  0.315121252
     0.444444418  0.444444448  0.315121252
     0.777777791  0.444444448  0.315121252
     0.111111104  0.777777791  0.315121252
     0.444444448  0.777777791  0.315121252
     0.777777791  0.777777791  0.315121252
     0.888718139  0.222563739  0.413166279
     0.222682212  0.222682227  0.411841587
     0.554635515  0.222682227  0.411841587
     0.888462106  0.555768977  0.412866853
     0.222682227  0.554635575  0.411841587
     0.555768977  0.555768977  0.412866853
     0.888718139  0.888718139  0.413166279
     0.222563709  0.888718139  0.413166279
     0.555768917  0.888462106  0.412866853
     0.000000000  0.000000000  0.510113133
     0.333086067  0.005822137  0.510666817
     0.661091736  0.005822137  0.510666817
     0.005822137  0.333086097  0.510666817
     0.661091796  0.333086097  0.510666817
     0.005822137  0.661091796  0.510666817
     0.333086067  0.661091796  0.510666817
     0.666666627  0.666666687  0.509977368
     0.333333313  0.333333343  0.502170859
     0.332365591  0.334814838  0.585376527
     0.200612877  0.333373572  0.603632352
     0.465804009  0.333270504  0.603486829

  ion indices of the primitive-cell ions
   primitive index   ion index
                 1           1
                 2           2
                 3           3
                 4           4
                 5           5
                 6           6
                 7           7
                 8           8
                 9           9
                10          10
                11          11
                12          12
                13          13
                14          14
                15          15
                16          16
                17          17
                18          18
                19          19
                20          20
                21          21
                22          22
                23          23
                24          24
                25          25
                26          26
                27          27
                28          28
                29          29
                30          30
                31          31
                32          32
                33          33
                34          34
                35          35
                36          36
                37          37
                38          38
                39          39

----------------------------------------------------------------------------------------

 
 
 KPOINTS: Automatic mesh                          

Automatic generation of k-mesh.
 Grid dimensions read from file:
 generate k-points for:    8    8    1

 Generating k-lattice:

  Cartesian coordinates                     Fractional coordinates (reciprocal lattice)
     0.014218495 -0.008209052  0.000000000     0.125000000 -0.000000000  0.000000000
     0.000000000  0.016418104  0.000000000     0.000000000  0.125000000  0.000000000
     0.000000000  0.000000000  0.041058703     0.000000000  0.000000000  1.000000000

  Length of vectors
     0.016418104  0.016418104  0.041058703

  Shift w.r.t. Gamma in fractional coordinates (k-lattice)
     0.000000000  0.000000000  0.000000000

 TETIRR: Found    192 inequivalent tetrahedra from      384
 
 Subroutine IBZKPT returns following result:
 ===========================================
 
 Found     34 irreducible k-points:
 
 Following reciprocal coordinates:
            Coordinates               Weight
  0.000000  0.000000  0.000000      1.000000
  0.125000  0.000000  0.000000      2.000000
  0.125000  0.125000  0.000000      2.000000
  0.000000  0.125000  0.000000      2.000000
  0.250000  0.000000  0.000000      2.000000
  0.250000  0.250000  0.000000      2.000000
  0.000000  0.250000  0.000000      2.000000
  0.375000  0.000000  0.000000      2.000000
  0.375000  0.375000  0.000000      2.000000
  0.000000  0.375000  0.000000      2.000000
  0.500000  0.000000  0.000000      1.000000
  0.500000  0.500000  0.000000      1.000000
  0.000000  0.500000  0.000000      1.000000
  0.250000  0.125000  0.000000      2.000000
  0.125000  0.250000  0.000000      2.000000
 -0.125000  0.125000  0.000000      2.000000
  0.375000  0.125000  0.000000      2.000000
  0.250000  0.375000  0.000000      2.000000
 -0.125000  0.250000  0.000000      2.000000
  0.250000 -0.125000  0.000000      2.000000
 -0.125000 -0.375000  0.000000      2.000000
 -0.375000 -0.250000  0.000000      2.000000
  0.500000  0.125000  0.000000      2.000000
  0.375000  0.500000  0.000000      2.000000
 -0.125000  0.375000  0.000000      2.000000
  0.375000 -0.125000  0.000000      2.000000
 -0.125000  0.500000  0.000000      2.000000
  0.500000 -0.375000  0.000000      2.000000
  0.500000  0.250000  0.000000      2.000000
  0.250000  0.500000  0.000000      2.000000
 -0.250000  0.250000  0.000000      2.000000
 -0.375000  0.250000  0.000000      2.000000
  0.375000 -0.375000  0.000000      2.000000
 -0.250000  0.375000  0.000000      2.000000
 
 Following cartesian coordinates:
            Coordinates               Weight
  0.000000  0.000000  0.000000      1.000000
  0.014218 -0.008209  0.000000      2.000000
  0.014218  0.008209  0.000000      2.000000
  0.000000  0.016418  0.000000      2.000000
  0.028437 -0.016418  0.000000      2.000000
  0.028437  0.016418  0.000000      2.000000
  0.000000  0.032836  0.000000      2.000000
  0.042655 -0.024627  0.000000      2.000000
  0.042655  0.024627  0.000000      2.000000
  0.000000  0.049254  0.000000      2.000000
  0.056874 -0.032836  0.000000      1.000000
  0.056874  0.032836  0.000000      1.000000
  0.000000  0.065672  0.000000      1.000000
  0.028437 -0.000000  0.000000      2.000000
  0.014218  0.024627  0.000000      2.000000
 -0.014218  0.024627  0.000000      2.000000
  0.042655 -0.008209  0.000000      2.000000
  0.028437  0.032836  0.000000      2.000000
 -0.014218  0.041045  0.000000      2.000000
  0.028437 -0.032836  0.000000      2.000000
 -0.014218 -0.041045  0.000000      2.000000
 -0.042655 -0.008209  0.000000      2.000000
  0.056874 -0.016418  0.000000      2.000000
  0.042655  0.041045  0.000000      2.000000
 -0.014218  0.057463  0.000000      2.000000
  0.042655 -0.041045  0.000000      2.000000
 -0.014218  0.073881  0.000000      2.000000
  0.056874 -0.082091  0.000000      2.000000
  0.056874 -0.000000  0.000000      2.000000
  0.028437  0.049254  0.000000      2.000000
 -0.028437  0.049254  0.000000      2.000000
 -0.042655  0.057463  0.000000      2.000000
  0.042655 -0.073881  0.000000      2.000000
 -0.028437  0.065672  0.000000      2.000000
 


--------------------------------------------------------------------------------------------------------




 Dimension of arrays:
   k-points           NKPTS =     34   k-points in BZ     NKDIM =     34   number of bands    NBANDS=    252
   number of dos      NEDOS =    301   number of ions     NIONS =     39
   non local maximal  LDIM  =      6   non local SUM 2l+1 LMDIM =     18
   total plane-waves  NPLWV = 322560
   max r-space proj   IRMAX =   2952   max aug-charges    IRDMAX=  13581
   dimension x,y,z NGX =    48 NGY =   48 NGZ =  140
   dimension x,y,z NGXF=    96 NGYF=   96 NGZF=  280
   support grid    NGXF=    96 NGYF=   96 NGZF=  280
   ions per type =              35   1   1   2
   NGX,Y,Z   is equivalent  to a cutoff of   9.08,  9.08,  9.56 a.u.
   NGXF,Y,Z  is equivalent  to a cutoff of  18.15, 18.15, 19.11 a.u.

 SYSTEM =  unknown system                          
 POSCAR =  Ag-Ru-CO2                               

 Startparameter for this run:
   NWRITE =      2    write-flag & timer
   PREC   = normal    normal or accurate (medium, high low for compatibility)
   ISTART =      0    job   : 0-new  1-cont  2-samecut
   ICHARG =     11    charge: 1-file 2-atom 10-const
   ISPIN  =      1    spin polarized calculation?
   LNONCOLLINEAR =      F non collinear calculations
   LSORBIT =      F    spin-orbit coupling
   INIWAV =      1    electr: 0-lowe 1-rand  2-diag
   LASPH  =      F    aspherical Exc in radial PAW
   METAGGA=      F    non-selfconsistent MetaGGA calc.

 Electronic Relaxation 1
   ENCUT  =  500.0 eV  36.75 Ry    6.06 a.u.  16.03 16.03 44.41*2*pi/ulx,y,z
   ENINI  =  500.0     initial cutoff
   ENAUG  =  644.9 eV  augmentation charge cutoff
   NELM   =    150;   NELMIN=  2; NELMDL= -5     # of ELM steps 
   EDIFF  = 0.1E-04   stopping-criterion for ELM
   LREAL  =      T    real-space projection
   NLSPLINE    = F    spline interpolate recip. space projectors
   LCOMPAT=      F    compatible to vasp.4.4
   GGA_COMPAT  = T    GGA compatible to vasp.4.4-vasp.4.6
   LMAXPAW     = -100 max onsite density
   LMAXMIX     =    2 max onsite mixed and CHGCAR
   VOSKOWN=      0    Vosko Wilk Nusair interpolation
   ROPT   =   -0.00050  -0.00050  -0.00050  -0.00050
 Ionic relaxation
   EDIFFG = -.1E-01   stopping-criterion for IOM
   NSW    =      0    number of steps for IOM
   NBLOCK =      1;   KBLOCK =      1    inner block; outer block 
   IBRION =     -1    ionic relax: 0-MD 1-quasi-New 2-CG
   NFREE  =      1    steps in history (QN), initial steepest desc. (CG)
   ISIF   =      2    stress and relaxation
   IWAVPR =     10    prediction:  0-non 1-charg 2-wave 3-comb
   ISYM   =      2    0-nonsym 1-usesym 2-fastsym
   LCORR  =      T    Harris-Foulkes like correction to forces

   POTIM  = 0.5000    time-step for ionic-motion
   TEIN   =    0.0    initial temperature
   TEBEG  =    0.0;   TEEND  =   0.0 temperature during run
   SMASS  =  -3.00    Nose mass-parameter (am)
   estimated Nose-frequenzy (Omega)   =  0.10E-29 period in steps = 0.13E+47 mass=  -0.177E-26a.u.
   SCALEE = 1.0000    scale energy and forces
   NPACO  =    256;   APACO  = 16.0  distance and # of slots for P.C.
   PSTRESS=    0.0 pullay stress

  Mass of Ions in am
   POMASS = 107.87101.07 12.01 16.00
  Ionic Valenz
   ZVAL   =  11.00  8.00  4.00  6.00
  Atomic Wigner-Seitz radii
   RWIGS  =  -1.00 -1.00 -1.00 -1.00
  virtual crystal weights 
   VCA    =   1.00  1.00  1.00  1.00
   NELECT =     409.0000    total number of electrons
   NUPDOWN=      -1.0000    fix difference up-down

 DOS related values:
   EMIN   =  10.00;   EMAX   =-10.00  energy-range for DOS
   EFERMI =   0.00
   ISMEAR =    -5;   SIGMA  =   0.10  broadening in eV -4-tet -1-fermi 0-gaus

 Electronic relaxation 2 (details)
   IALGO  =     68    algorithm
   LDIAG  =      T    sub-space diagonalisation (order eigenvalues)
   LSUBROT=      F    optimize rotation matrix (better conditioning)
   TURBO    =      0    0=normal 1=particle mesh
   IRESTART =      0    0=no restart 2=restart with 2 vectors
   NREBOOT  =      0    no. of reboots
   NMIN     =      0    reboot dimension
   EREF     =   0.00    reference energy to select bands
   IMIX   =      4    mixing-type and parameters
     AMIX     =   0.40;   BMIX     =  1.00
     AMIX_MAG =   1.60;   BMIX_MAG =  1.00
     AMIN     =   0.10
     WC   =   100.;   INIMIX=   1;  MIXPRE=   1;  MAXMIX= -45

 Intra band minimization:
   WEIMIN = 0.0000     energy-eigenvalue tresh-hold
   EBREAK =  0.99E-08  absolut break condition
   DEPER  =   0.30     relativ break condition  

   TIME   =   0.40     timestep for ELM

  volume/ion in A,a.u.               =      41.80       282.08
  Fermi-wavevector in a.u.,A,eV,Ry     =   1.032531  1.951201 14.505454  1.066121
  Thomas-Fermi vector in A             =   2.166734
 
 Write flags
   LWAVE        =      F    write WAVECAR
   LDOWNSAMPLE  =      F    k-point downsampling of WAVECAR
   LCHARG       =      F    write CHGCAR
   LVTOT        =      F    write LOCPOT, total local potential
   LVHAR        =      F    write LOCPOT, Hartree potential only
   LELF         =      F    write electronic localiz. function (ELF)
   LORBIT       =     10    0 simple, 1 ext, 2 COOP (PROOUT), +10 PAW based schemes


 Dipole corrections
   LMONO  =      F    monopole corrections only (constant potential shift)
   LDIPOL =      F    correct potential (dipole corrections)
   IDIPOL =      0    1-x, 2-y, 3-z, 4-all directions 
   EPSILON=  1.0000000 bulk dielectric constant

 Exchange correlation treatment:
   GGA     =    --    GGA type
   LEXCH   =     8    internal setting for exchange type
   VOSKOWN=      0    Vosko Wilk Nusair interpolation
   LHFCALC =     F    Hartree Fock is set to
   LHFONE  =     F    Hartree Fock one center treatment
   AEXX    =    0.0000 exact exchange contribution

 Linear response parameters
   LEPSILON=     F    determine dielectric tensor
   LRPA    =     F    only Hartree local field effects (RPA)
   LNABLA  =     F    use nabla operator in PAW spheres
   LVEL    =     F    velocity operator in full k-point grid
   LINTERFAST=   F  fast interpolation
   KINTER  =     0    interpolate to denser k-point grid
   CSHIFT  =0.1000    complex shift for real part using Kramers Kronig
   OMEGAMAX=  -1.0    maximum frequency
   DEG_THRESHOLD= 0.2000000E-02 threshold for treating states as degnerate
   RTIME   =   -0.100 relaxation time in fs
  (WPLASMAI=    0.000 imaginary part of plasma frequency in eV, 0.658/RTIME)
   DFIELD  = 0.0000000 0.0000000 0.0000000 field for delta impulse in time
 
 Orbital magnetization related:
   ORBITALMAG=     F  switch on orbital magnetization
   LCHIMAG   =     F  perturbation theory with respect to B field
   DQ        =  0.001000  dq finite difference perturbation B field
   LLRAUG    =     F  two centre corrections for induced B field



--------------------------------------------------------------------------------------------------------


 Static calculation
 charge density and potential remain constant during run
 non-spin polarized calculation
 RMM-DIIS sequential band-by-band and
  variant of blocked Davidson during initial phase
 perform sub-space diagonalisation
    before iterative eigenvector-optimisation
 no mixing
 using additional bands           47
 real space projection scheme for non local part
 use partial core corrections
 calculate Harris-corrections to forces 
   (improved forces if not selfconsistent)
 use gradient corrections 
 WARNING: stress and forces are not correct
  (second derivative of E(xc) not defined)
 use of overlap-Matrix (Vanderbilt PP)
 Fermi weights with tetrahedron method with Bloechl corrections


--------------------------------------------------------------------------------------------------------


  energy-cutoff  :      500.00
  volume of cell :     1630.19
      direct lattice vectors                 reciprocal lattice vectors
     8.791366577  0.000000000  0.000000000     0.113747958 -0.065672414  0.000000000
     4.395683289  7.613546790  0.000000000     0.000000000  0.131344829  0.000000000
     0.000000000  0.000000000 24.355372092     0.000000000  0.000000000  0.041058703

  length of vectors
     8.791366577  8.791366577 24.355372092     0.131344829  0.131344829  0.041058703


 
 k-points in units of 2pi/SCALE and weight: Automatic mesh                          
   0.00000000  0.00000000  0.00000000       0.016
   0.01421849 -0.00820905  0.00000000       0.031
   0.01421849  0.00820905  0.00000000       0.031
   0.00000000  0.01641810  0.00000000       0.031
   0.02843699 -0.01641810  0.00000000       0.031
   0.02843699  0.01641810  0.00000000       0.031
   0.00000000  0.03283621  0.00000000       0.031
   0.04265548 -0.02462716  0.00000000       0.031
   0.04265548  0.02462716  0.00000000       0.031
   0.00000000  0.04925431  0.00000000       0.031
   0.05687398 -0.03283621  0.00000000       0.016
   0.05687398  0.03283621  0.00000000       0.016
   0.00000000  0.06567241  0.00000000       0.016
   0.02843699 -0.00000000  0.00000000       0.031
   0.01421849  0.02462716  0.00000000       0.031
  -0.01421849  0.02462716  0.00000000       0.031
   0.04265548 -0.00820905  0.00000000       0.031
   0.02843699  0.03283621  0.00000000       0.031
  -0.01421849  0.04104526  0.00000000       0.031
   0.02843699 -0.03283621  0.00000000       0.031
  -0.01421849 -0.04104526  0.00000000       0.031
  -0.04265548 -0.00820905  0.00000000       0.031
   0.05687398 -0.01641810  0.00000000       0.031
   0.04265548  0.04104526  0.00000000       0.031
  -0.01421849  0.05746336  0.00000000       0.031
   0.04265548 -0.04104526  0.00000000       0.031
  -0.01421849  0.07388147  0.00000000       0.031
   0.05687398 -0.08209052  0.00000000       0.031
   0.05687398 -0.00000000  0.00000000       0.031
   0.02843699  0.04925431  0.00000000       0.031
  -0.02843699  0.04925431  0.00000000       0.031
  -0.04265548  0.05746336  0.00000000       0.031
   0.04265548 -0.07388147  0.00000000       0.031
  -0.02843699  0.06567241  0.00000000       0.031
 
 k-points in reciprocal lattice and weights: Automatic mesh                          
   0.00000000  0.00000000  0.00000000       0.016
   0.12500000  0.00000000  0.00000000       0.031
   0.12500000  0.12500000  0.00000000       0.031
   0.00000000  0.12500000  0.00000000       0.031
   0.25000000  0.00000000  0.00000000       0.031
   0.25000000  0.25000000  0.00000000       0.031
   0.00000000  0.25000000  0.00000000       0.031
   0.37500000  0.00000000  0.00000000       0.031
   0.37500000  0.37500000  0.00000000       0.031
   0.00000000  0.37500000  0.00000000       0.031
   0.50000000  0.00000000  0.00000000       0.016
   0.50000000  0.50000000  0.00000000       0.016
   0.00000000  0.50000000  0.00000000       0.016
   0.25000000  0.12500000  0.00000000       0.031
   0.12500000  0.25000000  0.00000000       0.031
  -0.12500000  0.12500000  0.00000000       0.031
   0.37500000  0.12500000  0.00000000       0.031
   0.25000000  0.37500000  0.00000000       0.031
  -0.12500000  0.25000000  0.00000000       0.031
   0.25000000 -0.12500000  0.00000000       0.031
  -0.12500000 -0.37500000  0.00000000       0.031
  -0.37500000 -0.25000000  0.00000000       0.031
   0.50000000  0.12500000  0.00000000       0.031
   0.37500000  0.50000000  0.00000000       0.031
  -0.12500000  0.37500000  0.00000000       0.031
   0.37500000 -0.12500000  0.00000000       0.031
  -0.12500000  0.50000000  0.00000000       0.031
   0.50000000 -0.37500000  0.00000000       0.031
   0.50000000  0.25000000  0.00000000       0.031
   0.25000000  0.50000000  0.00000000       0.031
  -0.25000000  0.25000000  0.00000000       0.031
  -0.37500000  0.25000000  0.00000000       0.031
   0.37500000 -0.37500000  0.00000000       0.031
  -0.25000000  0.37500000  0.00000000       0.031
 
 position of ions in fractional coordinates (direct lattice) 
   0.00000000  0.00000000  0.21687980
   0.33333331  0.00000000  0.21687980
   0.66666663  0.00000000  0.21687980
   0.00000000  0.33333334  0.21687980
   0.33333331  0.33333334  0.21687980
   0.66666669  0.33333334  0.21687980
   0.00000000  0.66666669  0.21687980
   0.33333331  0.66666669  0.21687980
   0.66666663  0.66666669  0.21687980
   0.11111110  0.11111111  0.31512125
   0.44444445  0.11111111  0.31512125
   0.77777779  0.11111111  0.31512125
   0.11111110  0.44444445  0.31512125
   0.44444442  0.44444445  0.31512125
   0.77777779  0.44444445  0.31512125
   0.11111110  0.77777779  0.31512125
   0.44444445  0.77777779  0.31512125
   0.77777779  0.77777779  0.31512125
   0.88871814  0.22256374  0.41316628
   0.22268221  0.22268223  0.41184159
   0.55463552  0.22268223  0.41184159
   0.88846211  0.55576898  0.41286685
   0.22268223  0.55463558  0.41184159
   0.55576898  0.55576898  0.41286685
   0.88871814  0.88871814  0.41316628
   0.22256371  0.88871814  0.41316628
   0.55576892  0.88846211  0.41286685
   0.00000000  0.00000000  0.51011313
   0.33308607  0.00582214  0.51066682
   0.66109174  0.00582214  0.51066682
   0.00582214  0.33308610  0.51066682
   0.66109180  0.33308610  0.51066682
   0.00582214  0.66109180  0.51066682
   0.33308607  0.66109180  0.51066682
   0.66666663  0.66666669  0.50997737
   0.33333331  0.33333334  0.50217086
   0.33236559  0.33481484  0.58537653
   0.20061288  0.33337357  0.60363235
   0.46580401  0.33327050  0.60348683
 
 position of ions in cartesian coordinates  (Angst):
   0.00000000  0.00000000  5.28218814
   2.93045535  0.00000000  5.28218814
   5.86091070  0.00000000  5.28218814
   1.46522781  2.53784900  5.28218814
   4.39568315  2.53784900  5.28218814
   7.32613904  2.53784900  5.28218814
   2.93045562  5.07569801  5.28218814
   5.86091096  5.07569801  5.28218814
   8.79136632  5.07569801  5.28218814
   1.46522770  0.84594965  7.67489535
   4.39568332  0.84594965  7.67489535
   7.32613893  0.84594965  7.67489535
   2.93045542  3.38379860  7.67489535
   5.86091083  3.38379860  7.67489535
   8.79136671  3.38379860  7.67489535
   4.39568328  5.92164760  7.67489535
   7.32613890  5.92164760  7.67489535
  10.25659451  5.92164760  7.67489535
   8.79136665  1.69449944 10.06281846
   2.93652150  1.69540156 10.03055511
   5.85484468  1.69540156 10.03055511
  10.25378047  4.23137311 10.05552583
   4.39568342  4.22274391 10.03055511
   7.32895321  4.23137311 10.05552583
  11.71957041  6.76629713 10.06281846
   5.86316262  6.76629713 10.06281846
   8.79136631  6.76434782 10.05552583
   0.00000000  0.00000000 12.42399517
   2.95387399  0.04432711 12.43748034
   5.83749206  0.04432711 12.43748034
   1.51532553  2.53596659 12.43748034
   7.27604131  2.53596659 12.43748034
   2.95713470  5.03325332 12.43748034
   5.83423188  5.03325332 12.43748034
   8.79136632  5.07569801 12.42068856
   4.39568315  2.53784900 12.23055812
   4.39368774  2.54912843 14.25706313
   3.22906598  2.53815529 14.70169054
   5.56000538  2.53737058 14.69814627
 


--------------------------------------------------------------------------------------------------------


 k-point   1 :   0.0000 0.0000 0.0000  plane waves:   41243
 k-point   2 :   0.1250 0.0000 0.0000  plane waves:   41326
 k-point   3 :   0.1250 0.1250 0.0000  plane waves:   41326
 k-point   4 :   0.0000 0.1250 0.0000  plane waves:   41326
 k-point   5 :   0.2500 0.0000 0.0000  plane waves:   41336
 k-point   6 :   0.2500 0.2500 0.0000  plane waves:   41336
 k-point   7 :   0.0000 0.2500 0.0000  plane waves:   41336
 k-point   8 :   0.3750 0.0000 0.0000  plane waves:   41410
 k-point   9 :   0.3750 0.3750 0.0000  plane waves:   41410
 k-point  10 :   0.0000 0.3750 0.0000  plane waves:   41410
 k-point  11 :   0.5000 0.0000 0.0000  plane waves:   41412
 k-point  12 :   0.5000 0.5000 0.0000  plane waves:   41412
 k-point  13 :   0.0000 0.5000 0.0000  plane waves:   41412
 k-point  14 :   0.2500 0.1250 0.0000  plane waves:   41324
 k-point  15 :   0.1250 0.2500 0.0000  plane waves:   41324
 k-point  16 :  -0.1250 0.1250 0.0000  plane waves:   41324
 k-point  17 :   0.3750 0.1250 0.0000  plane waves:   41412
 k-point  18 :   0.2500 0.3750 0.0000  plane waves:   41412
 k-point  19 :  -0.1250 0.2500 0.0000  plane waves:   41412
 k-point  20 :   0.2500-0.1250 0.0000  plane waves:   41412
 k-point  21 :  -0.1250-0.3750 0.0000  plane waves:   41412
 k-point  22 :  -0.3750-0.2500 0.0000  plane waves:   41412
 k-point  23 :   0.5000 0.1250 0.0000  plane waves:   41392
 k-point  24 :   0.3750 0.5000 0.0000  plane waves:   41392
 k-point  25 :  -0.1250 0.3750 0.0000  plane waves:   41392
 k-point  26 :   0.3750-0.1250 0.0000  plane waves:   41392
 k-point  27 :  -0.1250 0.5000 0.0000  plane waves:   41392
 k-point  28 :   0.5000-0.3750 0.0000  plane waves:   41392
 k-point  29 :   0.5000 0.2500 0.0000  plane waves:   41436
 k-point  30 :   0.2500 0.5000 0.0000  plane waves:   41436
 k-point  31 :  -0.2500 0.2500 0.0000  plane waves:   41436
 k-point  32 :  -0.3750 0.2500 0.0000  plane waves:   41434
 k-point  33 :   0.3750-0.3750 0.0000  plane waves:   41434
 k-point  34 :  -0.2500 0.3750 0.0000  plane waves:   41434

 maximum and minimum number of plane-waves per node :     41436    41243

 maximum number of plane-waves:     41436
 maximum index in each direction: 
   IXMAX=   16   IYMAX=   16   IZMAX=   44
   IXMIN=  -16   IYMIN=  -16   IZMIN=  -44


 serial   3D FFT for wavefunctions
 parallel 3D FFT for charge:
    minimum data exchange during FFTs selected (reduces bandwidth)


 total amount of memory used by VASP MPI-rank0   277992. kBytes
=======================================================================

   base      :      30000. kBytes
   nonlr-proj:      15675. kBytes
   fftplans  :       4808. kBytes
   grid      :      20723. kBytes
   one-center:        606. kBytes
   wavefun   :     206180. kBytes
 
     INWAV:  cpu time    0.0000: real time    0.0001
 initial charge density was supplied:
 number of electron     409.0000045 magnetization 
 keeping initial charge density in first step


--------------------------------------------------------------------------------------------------------


 Maximum index for non-local projection operator         2819
 Maximum index for augmentation-charges          717 (set IRDMAX)


--------------------------------------------------------------------------------------------------------


 First call to EWALD:  gamma=   0.151
 Maximum number of real-space cells 4x 4x 2
 Maximum number of reciprocal cells 2x 2x 5

    FEWALD:  cpu time    0.0014: real time    0.0014


--------------------------------------- Iteration      1(   1)  ---------------------------------------


    POTLOK:  cpu time    0.0477: real time    0.0479
    SETDIJ:  cpu time    0.0048: real time    0.0049
     EDDAV:  cpu time   26.3503: real time   26.3520
 BZINTS: Fermi energy:    9.415075;  409.000000 electrons
         Band energy: 0.101985E+04;  BLOECHL correction:   -0.012165
       DOS:  cpu time    0.0610: real time    0.0611
    --------------------------------------------
      LOOP:  cpu time   26.4638: real time   26.4659

 eigenvalue-minimisations  : 17136
 total energy-change (2. order) : 0.2538628E+04  (-0.1880035E+05)
 number of electron     409.0000045 magnetization 
 augmentation part      409.0000045 magnetization 

 Free energy of the ion-electron system (eV)
  ---------------------------------------------------
  alpha Z        PSCENC =       710.17011175
  Ewald energy   TEWEN  =    130161.82085990
  -Hartree energ DENC   =   -168352.89444255
  -exchange      EXHF   =         0.00000000
  -V(xc)+E(xc)   XCENC  =      -351.48891444
  PAW double counting   =     40282.00612359   -38701.75835083
  entropy T*S    EENTRO =         0.00000000
  eigenvalues    EBANDS =      1019.84795257
  atomic energy  EATOM  =     37770.92427164
  Solvation  Ediel_sol  =         0.00000000
  ---------------------------------------------------
  free energy    TOTEN  =      2538.62761163 eV

  energy without entropy =     2538.62761163  energy(sigma->0) =     2538.62761163


--------------------------------------------------------------------------------------------------------




--------------------------------------- Iteration      1(   2)  ---------------------------------------


     EDDAV:  cpu time   27.5368: real time   27.5372
 BZINTS: Fermi energy:    0.924875;  409.000000 electrons
         Band energy:-0.152487E+04;  BLOECHL correction:   -0.051434
       DOS:  cpu time    0.0588: real time    0.0588
    --------------------------------------------
      LOOP:  cpu time   27.5956: real time   27.5960

 eigenvalue-minimisations  : 18144
 total energy-change (2. order) :-0.2544718E+04  (-0.2440021E+04)
 number of electron     409.0000045 magnetization 
 augmentation part      409.0000045 magnetization 

 Free energy of the ion-electron system (eV)
  ---------------------------------------------------
  alpha Z        PSCENC =       710.17011175
  Ewald energy   TEWEN  =    130161.82085990
  -Hartree energ DENC   =   -168352.89444255
  -exchange      EXHF   =         0.00000000
  -V(xc)+E(xc)   XCENC  =      -351.48891444
  PAW double counting   =     40282.00612359   -38701.75835083
  entropy T*S    EENTRO =         0.00000000
  eigenvalues    EBANDS =     -1524.86963920
  atomic energy  EATOM  =     37770.92427164
  Solvation  Ediel_sol  =         0.00000000
  ---------------------------------------------------
  free energy    TOTEN  =        -6.08998014 eV

  energy without entropy =       -6.08998014  energy(sigma->0) =       -6.08998014


--------------------------------------------------------------------------------------------------------




--------------------------------------- Iteration      1(   3)  ---------------------------------------


     EDDAV:  cpu time   31.3243: real time   31.3246
 BZINTS: Fermi energy:    0.240550;  409.000000 electrons
         Band energy:-0.163506E+04;  BLOECHL correction:   -0.044206
       DOS:  cpu time    0.0581: real time    0.0581
    --------------------------------------------
      LOOP:  cpu time   31.3824: real time   31.3826

 eigenvalue-minimisations  : 21224
 total energy-change (2. order) :-0.1101903E+03  (-0.1078862E+03)
 number of electron     409.0000045 magnetization 
 augmentation part      409.0000045 magnetization 

 Free energy of the ion-electron system (eV)
  ---------------------------------------------------
  alpha Z        PSCENC =       710.17011175
  Ewald energy   TEWEN  =    130161.82085990
  -Hartree energ DENC   =   -168352.89444255
  -exchange      EXHF   =         0.00000000
  -V(xc)+E(xc)   XCENC  =      -351.48891444
  PAW double counting   =     40282.00612359   -38701.75835083
  entropy T*S    EENTRO =         0.00000000
  eigenvalues    EBANDS =     -1635.05996521
  atomic energy  EATOM  =     37770.92427164
  Solvation  Ediel_sol  =         0.00000000
  ---------------------------------------------------
  free energy    TOTEN  =      -116.28030615 eV

  energy without entropy =     -116.28030615  energy(sigma->0) =     -116.28030615


--------------------------------------------------------------------------------------------------------




--------------------------------------- Iteration      1(   4)  ---------------------------------------


     EDDAV:  cpu time   28.7493: real time   28.7496
 BZINTS: Fermi energy:    0.221438;  409.000000 electrons
         Band energy:-0.163729E+04;  BLOECHL correction:   -0.044471
       DOS:  cpu time    0.0529: real time    0.0528
    --------------------------------------------
      LOOP:  cpu time   28.8022: real time   28.8024

 eigenvalue-minimisations  : 19096
 total energy-change (2. order) :-0.2227974E+01  (-0.2214709E+01)
 number of electron     409.0000045 magnetization 
 augmentation part      409.0000045 magnetization 

 Free energy of the ion-electron system (eV)
  ---------------------------------------------------
  alpha Z        PSCENC =       710.17011175
  Ewald energy   TEWEN  =    130161.82085990
  -Hartree energ DENC   =   -168352.89444255
  -exchange      EXHF   =         0.00000000
  -V(xc)+E(xc)   XCENC  =      -351.48891444
  PAW double counting   =     40282.00612359   -38701.75835083
  entropy T*S    EENTRO =         0.00000000
  eigenvalues    EBANDS =     -1637.28793915
  atomic energy  EATOM  =     37770.92427164
  Solvation  Ediel_sol  =         0.00000000
  ---------------------------------------------------
  free energy    TOTEN  =      -118.50828009 eV

  energy without entropy =     -118.50828009  energy(sigma->0) =     -118.50828009


--------------------------------------------------------------------------------------------------------




--------------------------------------- Iteration      1(   5)  ---------------------------------------


     EDDAV:  cpu time   29.4404: real time   29.4434
 BZINTS: Fermi energy:    0.221019;  409.000000 electrons
         Band energy:-0.163734E+04;  BLOECHL correction:   -0.044469
       DOS:  cpu time    0.0581: real time    0.0581
    --------------------------------------------
      LOOP:  cpu time   29.4984: real time   29.5014

 eigenvalue-minimisations  : 19712
 total energy-change (2. order) :-0.5087003E-01  (-0.5085419E-01)
 number of electron     409.0000045 magnetization 
 augmentation part      409.0000045 magnetization 

 Free energy of the ion-electron system (eV)
  ---------------------------------------------------
  alpha Z        PSCENC =       710.17011175
  Ewald energy   TEWEN  =    130161.82085990
  -Hartree energ DENC   =   -168352.89444255
  -exchange      EXHF   =         0.00000000
  -V(xc)+E(xc)   XCENC  =      -351.48891444
  PAW double counting   =     40282.00612359   -38701.75835083
  entropy T*S    EENTRO =         0.00000000
  eigenvalues    EBANDS =     -1637.33880918
  atomic energy  EATOM  =     37770.92427164
  Solvation  Ediel_sol  =         0.00000000
  ---------------------------------------------------
  free energy    TOTEN  =      -118.55915012 eV

  energy without entropy =     -118.55915012  energy(sigma->0) =     -118.55915012


--------------------------------------------------------------------------------------------------------




--------------------------------------- Iteration      1(   6)  ---------------------------------------


    EDDIAG:  cpu time    5.2057: real time    5.2059
  RMM-DIIS:  cpu time   15.8260: real time   15.8260
    ORTHCH:  cpu time    0.9615: real time    0.9615
 BZINTS: Fermi energy:    0.221013;  409.000000 electrons
         Band energy:-0.163734E+04;  BLOECHL correction:   -0.044469
       DOS:  cpu time    0.0581: real time    0.0581
    --------------------------------------------
      LOOP:  cpu time   22.0512: real time   22.0515

 eigenvalue-minimisations  : 17796
 total energy-change (2. order) :-0.1178120E-02  (-0.1177740E-02)
 number of electron     409.0000045 magnetization 
 augmentation part      409.0000045 magnetization 

 Free energy of the ion-electron system (eV)
  ---------------------------------------------------
  alpha Z        PSCENC =       710.17011175
  Ewald energy   TEWEN  =    130161.82085990
  -Hartree energ DENC   =   -168352.89444255
  -exchange      EXHF   =         0.00000000
  -V(xc)+E(xc)   XCENC  =      -351.48891444
  PAW double counting   =     40282.00612359   -38701.75835083
  entropy T*S    EENTRO =         0.00000000
  eigenvalues    EBANDS =     -1637.33998730
  atomic energy  EATOM  =     37770.92427164
  Solvation  Ediel_sol  =         0.00000000
  ---------------------------------------------------
  free energy    TOTEN  =      -118.56032824 eV

  energy without entropy =     -118.56032824  energy(sigma->0) =     -118.56032824


--------------------------------------------------------------------------------------------------------




--------------------------------------- Iteration      1(   7)  ---------------------------------------


    EDDIAG:  cpu time    5.2016: real time    5.2018
  RMM-DIIS:  cpu time   21.9809: real time   21.9810
    ORTHCH:  cpu time    0.9607: real time    0.9607
 BZINTS: Fermi energy:    0.221011;  409.000000 electrons
         Band energy:-0.163734E+04;  BLOECHL correction:   -0.044469
       DOS:  cpu time    0.0581: real time    0.0581
    --------------------------------------------
      LOOP:  cpu time   28.2013: real time   28.2016

 eigenvalue-minimisations  : 25559
 total energy-change (2. order) :-0.4305099E-03  (-0.4302722E-03)
 number of electron     409.0000045 magnetization 
 augmentation part      409.0000045 magnetization 

 Free energy of the ion-electron system (eV)
  ---------------------------------------------------
  alpha Z        PSCENC =       710.17011175
  Ewald energy   TEWEN  =    130161.82085990
  -Hartree energ DENC   =   -168352.89444255
  -exchange      EXHF   =         0.00000000
  -V(xc)+E(xc)   XCENC  =      -351.48891444
  PAW double counting   =     40282.00612359   -38701.75835083
  entropy T*S    EENTRO =         0.00000000
  eigenvalues    EBANDS =     -1637.34041781
  atomic energy  EATOM  =     37770.92427164
  Solvation  Ediel_sol  =         0.00000000
  ---------------------------------------------------
  free energy    TOTEN  =      -118.56075875 eV

  energy without entropy =     -118.56075875  energy(sigma->0) =     -118.56075875


--------------------------------------------------------------------------------------------------------




--------------------------------------- Iteration      1(   8)  ---------------------------------------


    EDDIAG:  cpu time    5.2013: real time    5.2015
  RMM-DIIS:  cpu time   16.6486: real time   16.6487
    ORTHCH:  cpu time    0.9612: real time    0.9613
 BZINTS: Fermi energy:    0.221011;  409.000000 electrons
         Band energy:-0.163734E+04;  BLOECHL correction:   -0.044469
       DOS:  cpu time    0.0594: real time    0.0594
    --------------------------------------------
      LOOP:  cpu time   22.8706: real time   22.8708

 eigenvalue-minimisations  : 18634
 total energy-change (2. order) :-0.2213870E-04  (-0.2542871E-04)
 number of electron     409.0000045 magnetization 
 augmentation part      409.0000045 magnetization 

 Free energy of the ion-electron system (eV)
  ---------------------------------------------------
  alpha Z        PSCENC =       710.17011175
  Ewald energy   TEWEN  =    130161.82085990
  -Hartree energ DENC   =   -168352.89444255
  -exchange      EXHF   =         0.00000000
  -V(xc)+E(xc)   XCENC  =      -351.48891444
  PAW double counting   =     40282.00612359   -38701.75835083
  entropy T*S    EENTRO =         0.00000000
  eigenvalues    EBANDS =     -1637.34043995
  atomic energy  EATOM  =     37770.92427164
  Solvation  Ediel_sol  =         0.00000000
  ---------------------------------------------------
  free energy    TOTEN  =      -118.56078089 eV

  energy without entropy =     -118.56078089  energy(sigma->0) =     -118.56078089


--------------------------------------------------------------------------------------------------------




--------------------------------------- Iteration      1(   9)  ---------------------------------------


    EDDIAG:  cpu time    5.2057: real time    5.2058
  RMM-DIIS:  cpu time   13.0594: real time   13.0595
    ORTHCH:  cpu time    0.9624: real time    0.9624
 BZINTS: Fermi energy:    0.221011;  409.000000 electrons
         Band energy:-0.163734E+04;  BLOECHL correction:   -0.044469
       DOS:  cpu time    0.0582: real time    0.0582
    --------------------------------------------
      LOOP:  cpu time   19.2857: real time   19.2858

 eigenvalue-minimisations  : 13146
 total energy-change (2. order) :-0.4094269E-05  (-0.4230618E-05)
 number of electron     409.0000045 magnetization 
 augmentation part      409.0000045 magnetization 

 Free energy of the ion-electron system (eV)
  ---------------------------------------------------
  alpha Z        PSCENC =       710.17011175
  Ewald energy   TEWEN  =    130161.82085990
  -Hartree energ DENC   =   -168352.89444255
  -exchange      EXHF   =         0.00000000
  -V(xc)+E(xc)   XCENC  =      -351.48891444
  PAW double counting   =     40282.00612359   -38701.75835083
  entropy T*S    EENTRO =         0.00000000
  eigenvalues    EBANDS =     -1637.34044404
  atomic energy  EATOM  =     37770.92427164
  Solvation  Ediel_sol  =         0.00000000
  ---------------------------------------------------
  free energy    TOTEN  =      -118.56078498 eV

  energy without entropy =     -118.56078498  energy(sigma->0) =     -118.56078498


--------------------------------------------------------------------------------------------------------




 average (electrostatic) potential at core
  the test charge radii are     1.1249  1.2511  0.6991  0.7215
  (the norm of the test charge is              1.0000)
       1 -78.6845       2 -78.6661       3 -78.6662       4 -78.6589       5 -78.6493
       6 -78.6588       7 -78.6629       8 -78.6628       9 -78.6833      10 -78.8853
      11 -78.8814      12 -78.8850      13 -78.8811      14 -78.8810      15 -78.8896
      16 -78.8928      17 -78.8880      18 -78.8881      19 -78.8553      20 -78.8541
      21 -78.8533      22 -78.8787      23 -78.8407      24 -78.8787      25 -78.8613
      26 -78.8612      27 -78.8725      28 -78.6250      29 -78.5725      30 -78.5730
      31 -78.5681      32 -78.5685      33 -78.5632      34 -78.5633      35 -78.6259
      36 -66.9922      37 -56.7353      38 -75.8274      39 -75.8351
 
 
 
 E-fermi :   0.2210     XC(G=0):  -5.5361     alpha+bet : -5.2457

 Fermi energy:         0.2210110854

 k-point     1 :       0.0000    0.0000    0.0000
  band No.  band energies     occupation 
      1     -21.9953      2.00000
      2     -20.2890      2.00000
      3      -8.0558      2.00000
      4      -6.9224      2.00000
      5      -6.5561      2.00000
      6      -6.0753      2.00000
      7      -5.9639      2.00000
      8      -5.9449      2.00000
      9      -5.7202      2.00000
     10      -5.6042      2.00000
     11      -5.5996      2.00000
     12      -5.5995      2.00000
     13      -5.5939      2.00000
     14      -5.5934      2.00000
     15      -5.5893      2.00000
     16      -5.5711      2.00000
     17      -5.5538      2.00000
     18      -5.5532      2.00000
     19      -5.5499      2.00000
     20      -5.5485      2.00000
     21      -5.5483      2.00000
     22      -5.4882      2.00000
     23      -5.3875      2.00000
     24      -5.3852      2.00000
     25      -5.3849      2.00000
     26      -5.3816      2.00000
     27      -5.3816      2.00000
     28      -5.3798      2.00000
     29      -5.2057      2.00000
     30      -5.2041      2.00000
     31      -5.2026      2.00000
     32      -5.1827      2.00000
     33      -5.1740      2.00000
     34      -5.1725      2.00000
     35      -5.1682      2.00000
     36      -5.1649      2.00000
     37      -5.1421      2.00000
     38      -5.1404      2.00000
     39      -5.1346      2.00000
     40      -5.1335      2.00000
     41      -5.0380      2.00000
     42      -5.0326      2.00000
     43      -5.0259      2.00000
     44      -4.9414      2.00000
     45      -4.9325      2.00000
     46      -4.9172      2.00000
     47      -4.8181      2.00000
     48      -4.8177      2.00000
     49      -4.8004      2.00000
     50      -4.7985      2.00000
     51      -4.7897      2.00000
     52      -4.7822      2.00000
     53      -4.7821      2.00000
     54      -4.7754      2.00000
     55      -4.7401      2.00000
     56      -4.7280      2.00000
     57      -4.6551      2.00000
     58      -4.6496      2.00000
     59      -4.6084      2.00000
     60      -4.6056      2.00000
     61      -4.4165      2.00000
     62      -4.4163      2.00000
     63      -4.4145      2.00000
     64      -4.4101      2.00000
     65      -4.4038      2.00000
     66      -4.4023      2.00000
     67      -4.3826      2.00000
     68      -4.3821      2.00000
     69      -4.3803      2.00000
     70      -4.3456      2.00000
     71      -4.3455      2.00000
     72      -4.2576      2.00000
     73      -4.2544      2.00000
     74      -4.2347      2.00000
     75      -4.2343      2.00000
     76      -4.2258      2.00000
     77      -4.2234      2.00000
     78      -4.2156      2.00000
     79      -4.2099      2.00000
     80      -4.1970      2.00000
     81      -4.1866      2.00000
     82      -4.1769      2.00000
     83      -4.1728      2.00000
     84      -4.1692      2.00000
     85      -4.1618      2.00000
     86      -4.1462      2.00000
     87      -4.1406      2.00000
     88      -4.1360      2.00000
     89      -4.1127      2.00000
     90      -4.1126      2.00000
     91      -4.0230      2.00000
[...]
  0.000   0.000   0.000   0.000   0.000   0.000   0.000   0.000   0.000   0.000   1.000   0.000   0.000   0.000   0.000   0.000
  0.000   0.000   0.000   0.000   0.000   0.000   0.000   0.000   0.000   0.000   0.000   0.000   0.000   0.000   0.000   0.000
  0.000   0.000   0.000   0.000   0.000   0.000   0.000   0.000   0.000   0.000   0.000   0.000   0.000   0.000   0.000   0.000
  0.000   0.000   0.000   0.000   0.000   0.000   0.000   0.000   0.000   0.000   0.000   0.000   0.000   0.000   0.000   0.000
  0.000   0.000   0.000   0.000   0.000   0.000   0.000   0.000   0.000   0.000   0.000   0.000   0.000   0.000   0.000   0.000
  0.000   0.000   0.000   0.000   0.000   0.000   0.000   0.000   0.000   0.000   0.000   0.000   0.000   0.000   0.000   0.000
  0.000   0.000   0.000   0.000   0.000   0.000   0.000   0.000   0.000   0.000   0.000   0.000   0.000   0.000   0.000   0.000
  0.000   0.000   0.000   0.000   0.000   0.000   0.000   0.000   0.000   0.000   0.000   0.000   0.000   0.000   0.000   0.000


------------------------ aborting loop because EDIFF is reached ----------------------------------------





 total charge

# of ion       s       p       d       tot
------------------------------------------
    1        0.416   0.202   9.178   9.796
    2        0.417   0.203   9.177   9.797
    3        0.417   0.203   9.177   9.796
    4        0.417   0.203   9.178   9.797
    5        0.416   0.203   9.178   9.796
    6        0.417   0.203   9.178   9.797
    7        0.417   0.203   9.177   9.797
    8        0.417   0.203   9.177   9.797
    9        0.415   0.202   9.178   9.795
   10        0.407   0.271   9.163   9.840
   11        0.408   0.269   9.166   9.843
   12        0.407   0.271   9.163   9.840
   13        0.407   0.269   9.166   9.842
   14        0.407   0.269   9.166   9.842
   15        0.403   0.270   9.165   9.838
   16        0.405   0.270   9.164   9.838
   17        0.403   0.268   9.166   9.838
   18        0.403   0.268   9.166   9.838
   19        0.398   0.267   9.168   9.834
   20        0.422   0.294   9.151   9.867
   21        0.422   0.294   9.152   9.867
   22        0.394   0.273   9.167   9.834
   23        0.419   0.290   9.158   9.866
   24        0.394   0.273   9.167   9.834
   25        0.402   0.265   9.168   9.835
   26        0.402   0.265   9.168   9.835
   27        0.396   0.272   9.169   9.836
   28        0.415   0.194   9.182   9.792
   29        0.415   0.206   9.176   9.798
   30        0.415   0.206   9.176   9.798
   31        0.395   0.209   9.180   9.785
   32        0.395   0.209   9.180   9.785
   33        0.415   0.206   9.177   9.798
   34        0.415   0.206   9.177   9.798
   35        0.406   0.198   9.182   9.786
   36        0.480   0.394   6.778   7.653
   37        0.885   1.689   0.000   2.574
   38        1.597   3.476   0.000   5.073
   39        1.597   3.476   0.000   5.073
--------------------------------------------------
tot         18.879  17.412 327.758 364.048
 
    CHARGE:  cpu time    1.2325: real time    1.2326
    FORLOC:  cpu time    0.0124: real time    0.0124
    FORNL :  cpu time    5.4212: real time    5.4214
    STRESS:  cpu time   16.2783: real time   16.2786
    FORCOR:  cpu time    0.0504: real time    0.0506
    FORHAR:  cpu time    0.0197: real time    0.0198
    OFIELD:  cpu time    0.0003: real time    0.0003

  FORCE on cell =-STRESS in cart. coord.  units (eV):
  Direction    XX          YY          ZZ          XY          YZ          ZX
  --------------------------------------------------------------------------------------
  Alpha Z   710.17011   710.17011   710.17011
  Ewald  153291.36705152593.55017************    -0.22163    -1.21179    -0.93542
  Hartree163273.98068162919.85084************    -0.11300    -0.72754    -0.43845
  E(xc)   -2140.44913 -2142.43672 -2147.32196    -0.00056     0.00143     0.00107
  Local  ************************326854.44866     0.32241     2.00285     1.32735
  n-local  -371.71233  -365.77943  -369.38647     0.00193     0.27532    -0.04469
  augment  3277.17845  3279.85929  3288.91721     0.00038    -0.11898     0.00279
  Kinetic  5157.43060  5203.81739  5221.10199     0.01228    -0.28542     0.06008
  Fock        0.00000     0.00000     0.00000     0.00000     0.00000     0.00000
  -------------------------------------------------------------------------------------
  Total      -7.36315    -7.05798    -0.69268     0.00182    -0.06412    -0.02727
  in kB      -7.23662    -6.93670    -0.68078     0.00179    -0.06302    -0.02680
  external pressure =       -4.95 kB  Pullay stress =        0.00 kB


 VOLUME and BASIS-vectors are now :
 -----------------------------------------------------------------------------
  energy-cutoff  :      500.00
  volume of cell :     1630.19
      direct lattice vectors                 reciprocal lattice vectors
     8.791366577  0.000000000  0.000000000     0.113747958 -0.065672414  0.000000000
     4.395683289  7.613546790  0.000000000     0.000000000  0.131344829  0.000000000
     0.000000000  0.000000000 24.355372092     0.000000000  0.000000000  0.041058703

  length of vectors
     8.791366577  8.791366577 24.355372092     0.131344829  0.131344829  0.041058703


 FORCES acting on ions
    electron-ion (+dipol)            ewald-force                    non-local-force                 convergence-correction
 -----------------------------------------------------------------------------------------------
   0.308E-02 0.675E-01 0.272E+04   -.908E-04 -.425E-01 -.271E+04   -.179E-02 -.280E-01 -.210E+01   -.974E-03 0.623E-03 -.253E+00
   0.508E+00 0.716E+00 0.272E+04   -.434E+00 -.601E+00 -.271E+04   -.399E-01 -.424E-01 -.170E+01   -.275E-01 -.637E-01 -.142E+00
   -.510E+00 0.707E+00 0.272E+04   0.434E+00 -.601E+00 -.271E+04   0.416E-01 -.428E-01 -.170E+01   0.273E-01 -.552E-01 -.141E+00
   0.705E+00 0.615E-01 0.272E+04   -.701E+00 -.978E-01 -.271E+04   0.369E-01 0.143E-01 -.171E+01   -.355E-01 0.237E-01 -.150E+00
   -.633E-02 -.844E-02 0.272E+04   0.143E-03 -.101E-02 -.272E+04   -.507E-02 -.454E-02 -.155E+01   0.117E-01 0.101E-01 -.533E-01
   -.704E+00 0.577E-01 0.272E+04   0.701E+00 -.978E-01 -.271E+04   -.341E-01 0.134E-01 -.171E+01   0.313E-01 0.287E-01 -.147E+00
   0.350E+00 -.750E+00 0.272E+04   -.266E+00 0.699E+00 -.271E+04   -.180E-01 0.138E-01 -.165E+01   -.586E-01 0.313E-01 -.115E+00
   -.360E+00 -.748E+00 0.272E+04   0.266E+00 0.699E+00 -.271E+04   0.185E-01 0.149E-01 -.165E+01   0.681E-01 0.283E-01 -.116E+00
   0.149E-01 -.111E+00 0.272E+04   0.278E-04 0.434E-01 -.271E+04   0.215E-02 0.634E-01 -.186E+01   -.171E-01 0.324E-02 -.128E+00
   0.491E+01 0.327E+01 0.975E+03   -.465E+01 -.303E+01 -.974E+03   -.307E+00 -.208E+00 -.802E+00   0.538E-01 -.292E-01 0.165E-01
   -.111E-01 0.614E+01 0.982E+03   0.974E-04 -.613E+01 -.981E+03   -.698E-03 -.220E-01 -.722E+00   0.118E-01 -.778E-02 0.276E-01
   -.490E+01 0.327E+01 0.975E+03   0.465E+01 -.303E+01 -.974E+03   0.305E+00 -.207E+00 -.799E+00   -.583E-01 -.253E-01 0.151E-01
   0.487E+01 -.317E+01 0.982E+03   -.499E+01 0.311E+01 -.981E+03   0.307E-01 0.154E-01 -.573E+00   0.549E-01 0.478E-01 0.563E-01
   -.489E+01 -.317E+01 0.982E+03   0.499E+01 0.311E+01 -.981E+03   -.338E-01 0.153E-01 -.577E+00   -.343E-01 0.496E-01 0.516E-01
   0.776E-02 0.126E+00 0.975E+03   -.480E-03 -.359E+00 -.974E+03   0.328E-03 0.104E+00 -.778E+00   -.751E-02 0.110E+00 0.265E-01
   -.480E-02 -.565E+01 0.974E+03   0.289E-03 0.548E+01 -.973E+03   0.536E-03 0.240E+00 -.694E+00   0.372E-02 -.785E-01 0.323E-01
   0.317E+00 -.406E+00 0.974E+03   -.496E+00 0.418E+00 -.973E+03   0.117E+00 0.194E-01 -.617E+00   0.452E-01 -.296E-01 0.121E-01
   -.311E+00 -.415E+00 0.974E+03   0.496E+00 0.418E+00 -.973E+03   -.119E+00 0.187E-01 -.618E+00   -.490E-01 -.206E-01 0.135E-01
   0.287E-02 0.267E+01 -.796E+03   -.199E-02 -.288E+01 0.795E+03   0.298E-03 0.165E+00 0.726E+00   -.129E-02 0.462E-01 0.186E+00
   0.142E+02 0.103E+02 -.758E+03   -.134E+02 -.971E+01 0.759E+03   -.940E+00 -.646E+00 -.118E+01   -.143E-01 -.299E-01 -.962E-02
   -.142E+02 0.103E+02 -.758E+03   0.134E+02 -.970E+01 0.759E+03   0.932E+00 -.640E+00 -.117E+01   0.147E-01 -.273E-01 -.790E-02
   0.673E+01 -.617E+01 -.787E+03   -.702E+01 0.641E+01 0.786E+03   0.321E+00 -.256E+00 0.561E+00   0.209E-02 -.966E-02 0.777E-01
   -.764E-02 -.191E+02 -.760E+03   0.254E-02 0.183E+02 0.761E+03   0.264E-03 0.949E+00 -.782E+00   0.378E-02 0.333E-01 -.345E-01
   -.672E+01 -.617E+01 -.787E+03   0.702E+01 0.641E+01 0.786E+03   -.320E+00 -.256E+00 0.561E+00   -.494E-02 -.785E-02 0.788E-01
   -.113E+01 0.258E+00 -.800E+03   0.122E+01 -.178E+00 0.799E+03   -.656E-01 -.585E-01 0.676E+00   -.282E-01 -.194E-01 0.129E+00
   0.113E+01 0.265E+00 -.800E+03   -.122E+01 -.181E+00 0.799E+03   0.658E-01 -.585E-01 0.676E+00   0.303E-01 -.239E-01 0.131E+00
   0.364E-02 0.814E+01 -.790E+03   -.108E-02 -.846E+01 0.789E+03   0.193E-04 0.332E+00 0.633E+00   -.258E-02 0.777E-02 0.683E-01
   0.463E-02 0.106E+02 -.256E+04   -.738E-02 -.105E+02 0.256E+04   0.147E-02 -.162E+00 0.209E+01   0.125E-02 0.108E-01 0.632E-01
   0.306E+02 0.754E+02 -.253E+04   -.298E+02 -.750E+02 0.252E+04   -.803E+00 -.558E+00 0.221E+01   -.831E-02 -.206E-01 0.606E-01
   -.306E+02 0.754E+02 -.253E+04   0.298E+02 -.750E+02 0.252E+04   0.802E+00 -.553E+00 0.221E+01   0.622E-02 -.103E-01 0.623E-01
   0.879E+02 0.509E-01 -.249E+04   -.878E+02 0.979E-01 0.249E+04   -.237E+00 -.134E+00 0.280E+01   -.624E-01 -.322E-03 0.414E-01
   -.879E+02 0.238E-01 -.249E+04   0.878E+02 0.121E+00 0.249E+04   0.228E+00 -.134E+00 0.280E+01   0.550E-01 0.439E-02 0.435E-01
   0.311E+02 -.756E+02 -.253E+04   -.306E+02 0.750E+02 0.252E+04   -.545E+00 0.689E+00 0.217E+01   -.350E-01 0.297E-01 0.492E-01
   -.312E+02 -.755E+02 -.253E+04   0.306E+02 0.750E+02 0.252E+04   0.545E+00 0.687E+00 0.217E+01   0.445E-01 0.281E-01 0.506E-01
   0.355E-01 -.108E+02 -.256E+04   -.215E-01 0.107E+02 0.256E+04   0.280E-02 0.180E+00 0.224E+01   -.168E-01 -.127E-01 0.107E+00
   -.190E-01 0.715E+00 -.158E+04   -.739E-02 -.583E+00 0.158E+04   0.263E-01 -.162E+00 -.725E+00   0.692E-02 -.218E-01 0.655E-01
   0.974E-01 -.384E+01 -.999E+03   -.131E+00 0.399E+01 0.994E+03   0.200E-01 -.138E+00 0.566E+01   0.492E-02 -.698E-02 0.113E+00
   0.226E+03 0.139E+01 -.168E+04   -.273E+03 -.181E+01 0.171E+04   0.464E+02 0.427E+00 -.209E+02   -.372E-01 -.827E-02 0.608E-01
   -.226E+03 0.154E+01 -.168E+04   0.273E+03 -.199E+01 0.171E+04   -.464E+02 0.466E+00 -.208E+02   0.356E-01 -.835E-02 0.442E-01
 -----------------------------------------------------------------------------------------------
   -.319E-01 -.883E-01 0.387E+02   0.114E-12 0.123E-12 -.546E-11   0.246E-01 0.119E+00 -.391E+02   0.132E-01 -.240E-01 0.385E+00
 
 
 POSITION                                       TOTAL-FORCE (eV/Angst)
 -----------------------------------------------------------------------------------
      0.00000      0.00000      5.28219         0.000082     -0.002447      0.030809
      2.93046      0.00000      5.28219         0.006097      0.008293      0.027353
      5.86091      0.00000      5.28219        -0.006660      0.008237      0.027381
      1.46523      2.53785      5.28219         0.004957      0.001602      0.022404
      4.39568      2.53785      5.28219         0.000274     -0.004028     -0.021014
      7.32614      2.53785      5.28219        -0.005452      0.001750      0.022570
      2.93046      5.07570      5.28219         0.006989     -0.006401      0.027023
      5.86091      5.07570      5.28219        -0.007494     -0.006520      0.027212
      8.79137      5.07570      5.28219        -0.000160     -0.001477      0.014645
      1.46523      0.84595      7.67490         0.006673      0.008413      0.001896
      4.39568      0.84595      7.67490        -0.000025     -0.015276     -0.067767
      7.32614      0.84595      7.67490        -0.006845      0.008411      0.001915
      2.93046      3.38380      7.67490        -0.032623      0.009635     -0.074740
      5.86091      3.38380      7.67490         0.032869      0.009562     -0.074645
      8.79137      3.38380      7.67490        -0.000049     -0.019192      0.003366
      4.39568      5.92165      7.67490        -0.000408     -0.010814     -0.001597
      7.32614      5.92165      7.67490        -0.016921      0.001364      0.012108
     10.25659      5.92165      7.67490         0.016905      0.001073      0.012205
      8.79137      1.69450     10.06282        -0.000257      0.000474      0.055703
      2.93652      1.69540     10.03056        -0.122837     -0.041669     -0.050117
      5.85484      1.69540     10.03056         0.124465     -0.043023     -0.052160
     10.25378      4.23137     10.05553         0.029950     -0.019019      0.020231
      4.39568      4.22274     10.03056        -0.001202      0.140389     -0.115843
      7.32895      4.23137     10.05553        -0.030217     -0.019169      0.020064
     11.71957      6.76630     10.06282        -0.002489      0.001652      0.008442
      5.86316      6.76630     10.06282         0.002184      0.001615      0.008171
      8.79137      6.76435     10.05553        -0.000159      0.027450     -0.000046
      0.00000      0.00000     12.42400        -0.000178     -0.023335      0.011627
      2.95387      0.04433     12.43748        -0.020611     -0.175152     -0.087785
      5.83749      0.04433     12.43748         0.020344     -0.176336     -0.088664
      1.51533      2.53597     12.43748        -0.146656      0.014624      0.033302
      7.27604      2.53597     12.43748         0.147571      0.014657      0.031650
      2.95713      5.03325     12.43748        -0.028912      0.160204     -0.077667
      5.83423      5.03325     12.43748         0.028520      0.160788     -0.078711
      8.79137      5.07570     12.42069        -0.000148      0.023960      0.000603
      4.39568      2.53785     12.23056         0.006671     -0.051086      0.379921
      4.39369      2.54913     14.25706        -0.008411      0.001697     -0.001322
      3.22907      2.53816     14.70169        -0.002814      0.000790     -0.004432
      5.56001      2.53737     14.69815         0.006976      0.008310     -0.004093
 -----------------------------------------------------------------------------------
    total drift:                                0.005857      0.006322     -0.027110


--------------------------------------------------------------------------------------------------------



  FREE ENERGIE OF THE ION-ELECTRON SYSTEM (eV)
  ---------------------------------------------------
  free  energy   TOTEN  =      -118.56078498 eV

  energy  without entropy=     -118.56078498  energy(sigma->0) =     -118.56078498
 


--------------------------------------------------------------------------------------------------------


    POTLOK:  cpu time    0.0491: real time    0.0491


--------------------------------------------------------------------------------------------------------


 stress matrix after NEB project (eV)
     -7.36315      0.00182     -0.02727
      0.00182     -7.05798     -0.06413
     -0.02727     -0.06412     -0.69268
  FORCES: max atom, RMS     0.011597    0.002470
  FORCE total and by dimension    0.015428    0.008411
  Stress total and by dimension   10.223527    7.363147
     LOOP+:  cpu time  259.3400: real time  259.3520
 -----------------------------------------------------------------------------
|                                                                             |
|           W    W    AA    RRRRR   N    N  II  N    N   GGGG   !!!           |
|           W    W   A  A   R    R  NN   N  II  NN   N  G    G  !!!           |
|           W    W  A    A  R    R  N N  N  II  N N  N  G       !!!           |
|           W WW W  AAAAAA  RRRRR   N  N N  II  N  N N  G  GGG   !            |
|           WW  WW  A    A  R   R   N   NN  II  N   NN  G    G                |
|           W    W  A    A  R    R  N    N  II  N    N   GGGG   !!!           |
|                                                                             |
|     Tetrahedron method does not include variations of the Fermi             |
|     occupations, so forces and stress will be inaccurate. We suggest        |
|     using a different smearing scheme ISMEAR = 1 or 2 for metals in         |
|     relaxations.                                                            |
|                                                                             |
 -----------------------------------------------------------------------------

    4ORBIT:  cpu time    0.0000: real time    0.0000



 total charge

# of ion       s       p       d       tot
------------------------------------------
    1        0.416   0.202   9.178   9.796
    2        0.417   0.203   9.177   9.797
    3        0.417   0.203   9.177   9.796
    4        0.417   0.203   9.178   9.797
    5        0.416   0.203   9.178   9.796
    6        0.417   0.203   9.178   9.797
    7        0.417   0.203   9.177   9.797
    8        0.417   0.203   9.177   9.797
    9        0.415   0.202   9.178   9.795
   10        0.407   0.271   9.163   9.840
   11        0.408   0.269   9.166   9.843
   12        0.407   0.271   9.163   9.840
   13        0.407   0.269   9.166   9.842
   14        0.407   0.269   9.166   9.842
   15        0.403   0.270   9.165   9.838
   16        0.405   0.270   9.164   9.838
   17        0.403   0.268   9.166   9.838
   18        0.403   0.268   9.166   9.838
   19        0.398   0.267   9.168   9.834
   20        0.422   0.294   9.151   9.867
   21        0.422   0.294   9.152   9.867
   22        0.394   0.273   9.167   9.834
   23        0.419   0.290   9.158   9.866
   24        0.394   0.273   9.167   9.834
   25        0.402   0.265   9.168   9.835
   26        0.402   0.265   9.168   9.835
   27        0.396   0.272   9.169   9.836
   28        0.415   0.194   9.182   9.792
   29        0.415   0.206   9.176   9.798
   30        0.415   0.206   9.176   9.798
   31        0.395   0.209   9.180   9.785
   32        0.395   0.209   9.180   9.785
   33        0.415   0.206   9.177   9.798
   34        0.415   0.206   9.177   9.798
   35        0.406   0.198   9.182   9.786
   36        0.480   0.394   6.778   7.653
   37        0.885   1.689   0.000   2.574
   38        1.597   3.476   0.000   5.073
   39        1.597   3.476   0.000   5.073
--------------------------------------------------
tot         18.879  17.412 327.758 364.048
 
 BZINTS: Fermi energy:    0.221011;  409.000000 electrons
         Band energy:-0.163734E+04;  BLOECHL correction:   -0.044469

 total amount of memory used by VASP MPI-rank0   277992. kBytes
=======================================================================

   base      :      30000. kBytes
   nonlr-proj:      15675. kBytes
   fftplans  :       4808. kBytes
   grid      :      20723. kBytes
   one-center:        606. kBytes
   wavefun   :     206180. kBytes
 
  
  
 General timing and accounting informations for this job:
 ========================================================
  
                  Total CPU time used (sec):      282.392
                            User time (sec):      272.394
                          System time (sec):        9.998
                         Elapsed time (sec):      282.985
  
                   Maximum memory used (kb):      577236.
                   Average memory used (kb):          N/A
  
                          Minor page faults:       122020
                          Major page faults:            0
                 Voluntary context switches:         7921
