 vasp.6.2.0 18Jan21 (build Jun 12 2021 23:27:24) complex                        
  
 executed on             LinuxIFC date 2022.05.27  05:33:58
 running on   16 total cores
 distrk:  each k-point on   16 cores,    1 groups
 distr:  one band on NCORE=   1 cores,   16 groups


--------------------------------------------------------------------------------------------------------


 INCAR:
   ISMEAR = -5
   SIGMA = 0.1
   ISPIN = 1
   EDIFF = 1.d-5
   EDIFFG = -0.01
   NSW = 0
   NELM = 150
   ENCUT = 500
   ISIF = 2
   IBRION = 2
   LREAL = Auto
   ALGO = Fast
   ICHARG = 11
   LORBIT = 10
   LCHARG = .F.
   LWAVE = .F.

 POTCAR:    PAW_PBE Ag 02Apr2005                  
 POTCAR:    PAW_PBE Fe 06Sep2000                  
 POTCAR:    PAW_PBE N 08Apr2002                   
 -----------------------------------------------------------------------------
|                                                                             |
|           W    W    AA    RRRRR   N    N  II  N    N   GGGG   !!!           |
|           W    W   A  A   R    R  NN   N  II  NN   N  G    G  !!!           |
|           W    W  A    A  R    R  N N  N  II  N N  N  G       !!!           |
|           W WW W  AAAAAA  RRRRR   N  N N  II  N  N N  G  GGG   !            |
|           WW  WW  A    A  R   R   N   NN  II  N   NN  G    G                |
|           W    W  A    A  R    R  N    N  II  N    N   GGGG   !!!           |
|                                                                             |
|     For optimal performance we recommend to set                             |
|       NCORE = 2 up to number-of-cores-per-socket                            |
|     NCORE specifies how many cores store one orbital (NPAR=cpu/NCORE).      |
|     This setting can greatly improve the performance of VASP for DFT.       |
|     The default, NCORE=1 might be grossly inefficient on modern             |
|     multi-core architectures or massively parallel machines. Do your        |
|     own testing! More info at https://www.vasp.at/wiki/index.php/NCORE      |
|     Unfortunately you need to use the default for GW and RPA                |
|     calculations (for HF NCORE is supported but not extensively tested      |
|     yet).                                                                   |
|                                                                             |
 -----------------------------------------------------------------------------

 POTCAR:    PAW_PBE Ag 02Apr2005                  
   VRHFIN =Ag : s1 d10                                                                              
   LEXCH  = PE                                                                                      
   EATOM  =  1037.2675 eV,   76.2370 Ry                                                             
                                                                                                    
   TITEL  = PAW_PBE Ag 02Apr2005                                                                    
   LULTRA =        F    use ultrasoft PP ?                                                          
   IUNSCR =        1    unscreen: 0-lin 1-nonlin 2-no                                               
   RPACOR =    2.000    partial core radius                                                         
   POMASS =  107.868; ZVAL   =   11.000    mass and valenz                                          
   RCORE  =    2.500    outmost cutoff radius                                                       
   RWIGS  =    2.840; RWIGS  =    1.503    wigner-seitz radius (au A)                               
   ENMAX  =  249.844; ENMIN  =  187.383 eV                                                          
   ICORE  =        3    local potential                                                             
   LCOR   =        T    correct aug charges                                                         
   LPAW   =        T    paw PP                                                                      
   EAUG   =  412.496                                                                                
   DEXC   =    0.000                                                                                
   RMAX   =    2.560    core radius for proj-oper                                                   
   RAUG   =    1.300    factor for augmentation sphere                                              
   RDEP   =    2.576    radius for radial grids                                                     
   RDEPT  =    2.072    core radius for aug-charge                                                  
                                                                                                    
   Atomic configuration                                                                             
   12 entries                                                                                       
     n  l   j            E        occ.                                                              
     1  0  0.50    -25324.9161   2.0000                                                             
     2  0  0.50     -3728.5341   2.0000                                                             
     2  1  1.50     -3344.0404   6.0000                                                             
     3  0  0.50      -683.5581   2.0000                                                             
     3  1  1.50      -557.3225   6.0000                                                             
     3  2  2.50      -358.3853  10.0000                                                             
     4  0  0.50       -95.0341   2.0000                                                             
     4  1  1.50       -58.5511   6.0000                                                             
     4  2  2.50        -7.4440  10.0000                                                             
     5  0  0.50        -4.4045   1.0000                                                             
     5  1  0.50        -1.3606   0.0000                                                             
     4  3  2.50        -1.3606   0.0000                                                             
   Description                                                                                      
     l       E           TYP  RCUT    TYP  RCUT                                                     
     2     -7.4439781     23  2.400                                                                 
     2     -8.8045607     23  2.400                                                                 
     0     -4.4044681     23  2.400                                                                 
     0      1.9520038     23  2.400                                                                 
     1     -1.3605826     23  2.500                                                                 
     1     27.2116520     23  2.500                                                                 
     3     -4.0817478     23  2.400                                                                 
  local pseudopotential read in
  partial core-charges read in
  partial kinetic energy density read in
  atomic valenz-charges read in
  non local Contribution for L=           2  read in
    real space projection operators read in
  non local Contribution for L=           2  read in
    real space projection operators read in
  non local Contribution for L=           0  read in
    real space projection operators read in
  non local Contribution for L=           0  read in
    real space projection operators read in
  non local Contribution for L=           1  read in
    real space projection operators read in
  non local Contribution for L=           1  read in
    real space projection operators read in
    PAW grid and wavefunctions read in
 
   number of l-projection  operators is LMAX  =           6
   number of lm-projection operators is LMMAX =          18
 
 POTCAR:    PAW_PBE Fe 06Sep2000                  
   VRHFIN =Fe:  d7 s1                                                                               
   LEXCH  = PE                                                                                      
   EATOM  =   594.3153 eV,   43.6809 Ry                                                             
                                                                                                    
   TITEL  = PAW_PBE Fe 06Sep2000                                                                    
   LULTRA =        F    use ultrasoft PP ?                                                          
   IUNSCR =        1    unscreen: 0-lin 1-nonlin 2-no                                               
   RPACOR =    2.000    partial core radius                                                         
   POMASS =   55.847; ZVAL   =    8.000    mass and valenz                                          
   RCORE  =    2.300    outmost cutoff radius                                                       
   RWIGS  =    2.460; RWIGS  =    1.302    wigner-seitz radius (au A)                               
   ENMAX  =  267.882; ENMIN  =  200.911 eV                                                          
   RCLOC  =    1.701    cutoff for local pot                                                        
   LCOR   =        T    correct aug charges                                                         
   LPAW   =        T    paw PP                                                                      
   EAUG   =  511.368                                                                                
   DEXC   =    0.000                                                                                
   RMAX   =    2.356    core radius for proj-oper                                                   
   RAUG   =    1.300    factor for augmentation sphere                                              
   RDEP   =    2.442    radius for radial grids                                                     
   RDEPT  =    1.890    core radius for aug-charge                                                  
                                                                                                    
   Atomic configuration                                                                             
    9 entries                                                                                       
     n  l   j            E        occ.                                                              
     1  0  0.50     -6993.8440   2.0000                                                             
     2  0  0.50      -814.6047   2.0000                                                             
     2  1  1.50      -693.3689   6.0000                                                             
     3  0  0.50       -89.4732   2.0000                                                             
     3  1  1.50       -55.6373   6.0000                                                             
     3  2  2.50        -3.8151   7.0000                                                             
     4  0  0.50        -4.2551   1.0000                                                             
     4  1  1.50        -3.4015   0.0000                                                             
     4  3  2.50        -1.3606   0.0000                                                             
   Description                                                                                      
     l       E           TYP  RCUT    TYP  RCUT                                                     
     2     -3.8151135     23  2.300                                                                 
     2     -5.1756961     23  2.300                                                                 
     0     -4.2550963     23  2.300                                                                 
     0      7.2035603     23  2.300                                                                 
     1     -2.7211652     23  2.300                                                                 
     1     18.4316424     23  2.300                                                                 
  local pseudopotential read in
  partial core-charges read in
  partial kinetic energy density read in
  atomic valenz-charges read in
  non local Contribution for L=           2  read in
    real space projection operators read in
  non local Contribution for L=           2  read in
    real space projection operators read in
  non local Contribution for L=           0  read in
    real space projection operators read in
  non local Contribution for L=           0  read in
    real space projection operators read in
  non local Contribution for L=           1  read in
    real space projection operators read in
  non local Contribution for L=           1  read in
    real space projection operators read in
    PAW grid and wavefunctions read in
 
   number of l-projection  operators is LMAX  =           6
   number of lm-projection operators is LMMAX =          18
 
 POTCAR:    PAW_PBE N 08Apr2002                   
   VRHFIN =N: s2p3                                                                                  
   LEXCH  = PE                                                                                      
   EATOM  =   264.5486 eV,   19.4438 Ry                                                             
                                                                                                    
   TITEL  = PAW_PBE N 08Apr2002                                                                     
   LULTRA =        F    use ultrasoft PP ?                                                          
   IUNSCR =        1    unscreen: 0-lin 1-nonlin 2-no                                               
   RPACOR =    1.200    partial core radius                                                         
   POMASS =   14.001; ZVAL   =    5.000    mass and valenz                                          
   RCORE  =    1.500    outmost cutoff radius                                                       
   RWIGS  =    1.400; RWIGS  =    0.741    wigner-seitz radius (au A)                               
   ENMAX  =  400.000; ENMIN  =  300.000 eV                                                          
   ICORE  =        2    local potential                                                             
   LCOR   =        T    correct aug charges                                                         
   LPAW   =        T    paw PP                                                                      
   EAUG   =  627.112                                                                                
   DEXC   =    0.000                                                                                
   RMAX   =    1.529    core radius for proj-oper                                                   
   RAUG   =    1.300    factor for augmentation sphere                                              
   RDEP   =    1.514    radius for radial grids                                                     
   RDEPT  =    1.338    core radius for aug-charge                                                  
                                                                                                    
   Atomic configuration                                                                             
    4 entries                                                                                       
     n  l   j            E        occ.                                                              
     1  0  0.50      -384.7179   2.0000                                                             
     2  0  0.50       -18.5828   2.0000                                                             
     2  1  0.50        -7.0898   3.0000                                                             
     3  2  1.50        -6.8029   0.0000                                                             
   Description                                                                                      
     l       E           TYP  RCUT    TYP  RCUT                                                     
     0    -18.5828119     23  1.200                                                                 
     0    -13.5018863     23  1.200                                                                 
     1     -7.0897853     23  1.500                                                                 
     1      9.5240782     23  1.500                                                                 
     2     -6.8029130      7  1.500                                                                 
  local pseudopotential read in
  partial core-charges read in
  partial kinetic energy density read in
  atomic valenz-charges read in
  non local Contribution for L=           0  read in
    real space projection operators read in
  non local Contribution for L=           0  read in
    real space projection operators read in
  non local Contribution for L=           1  read in
    real space projection operators read in
  non local Contribution for L=           1  read in
    real space projection operators read in
    PAW grid and wavefunctions read in
 
   number of l-projection  operators is LMAX  =           4
   number of lm-projection operators is LMMAX =           8
 
 Optimization of the real space projectors (new method)

 maximal supplied QI-value         = 15.12
 optimisation between [QCUT,QGAM] = [ 11.34, 22.83] = [ 36.00,145.93] Ry 
 Optimized for a Real-space Cutoff    1.43 Angstroem

   l    n(q)    QCUT    max X(q) W(low)/X(q) W(high)/X(q)  e(spline) 
   2      9    11.338    53.897    0.16E-03    0.20E-03    0.28E-06
   2      9    11.338    52.416    0.16E-03    0.20E-03    0.29E-06
   0     10    11.338   122.045    0.31E-04    0.76E-04    0.15E-06
   0     10    11.338    73.629    0.30E-04    0.72E-04    0.15E-06
   1      9    11.338    15.255    0.20E-03    0.19E-04    0.17E-06
   1      9    11.338     9.562    0.16E-03    0.15E-04    0.14E-06
 Optimization of the real space projectors (new method)

 maximal supplied QI-value         = 16.25
 optimisation between [QCUT,QGAM] = [ 11.38, 22.75] = [ 36.24,144.96] Ry 
 Optimized for a Real-space Cutoff    1.39 Angstroem

   l    n(q)    QCUT    max X(q) W(low)/X(q) W(high)/X(q)  e(spline) 
   2      8    11.376    80.901    0.45E-03    0.44E-04    0.21E-06
   2      8    11.376    75.754    0.45E-03    0.45E-04    0.22E-06
   0      9    11.376    58.752    0.65E-04    0.95E-04    0.17E-06
   0      9    11.376    30.679    0.59E-04    0.87E-04    0.16E-06
   1      9    11.376    17.977    0.38E-03    0.10E-03    0.14E-06
   1      9    11.376    13.559    0.31E-03    0.90E-04    0.12E-06
 Optimization of the real space projectors (new method)

 maximal supplied QI-value         = 25.13
 optimisation between [QCUT,QGAM] = [ 11.31, 22.87] = [ 35.82,146.48] Ry 
 Optimized for a Real-space Cutoff    1.27 Angstroem

   l    n(q)    QCUT    max X(q) W(low)/X(q) W(high)/X(q)  e(spline) 
   0      9    11.310    79.467    0.75E-04    0.16E-03    0.36E-06
   0      9    11.310    66.151    0.74E-04    0.16E-03    0.36E-06
   1      8    11.310    17.416    0.35E-03    0.12E-03    0.95E-06
   1      8    11.310    12.382    0.37E-03    0.13E-03    0.98E-06
  PAW_PBE Ag 02Apr2005                  :
 energy of atom  1       EATOM=-1037.2675
 kinetic energy error for atom=    0.0052 (will be added to EATOM!!)
  PAW_PBE Fe 06Sep2000                  :
 energy of atom  2       EATOM= -594.3153
 kinetic energy error for atom=    0.0026 (will be added to EATOM!!)
  PAW_PBE N 08Apr2002                   :
 energy of atom  3       EATOM= -264.5486
 kinetic energy error for atom=    0.0138 (will be added to EATOM!!)
 
 
 POSCAR: Ag-Fe-N2
  positions in direct lattice
  velocities in cartesian coordinates
 exchange correlation table for  LEXCH =        8
   RHO(1)=    0.500       N(1)  =     2000
   RHO(2)=  100.500       N(2)  =     4000

 VTST: version 3.2, (02/03/18)

 CHAIN: initializing optimizer
 
 OPT: Using VASP Conjugate-Gradient optimizer
 CHAIN: Read ICHAIN            0
 
 POSCAR: Ag-Fe-N2
  positions in direct lattice
  velocities in cartesian coordinates
 


--------------------------------------------------------------------------------------------------------


 ion  position               nearest neighbor table
   1  0.000  0.000  0.220-   2 2.93   8 2.93   7 2.93   6 2.93   4 2.93  12 2.93  16 2.93  10 2.93
                             3 2.93
   2  0.333  0.000  0.220-   1 2.93   8 2.93   9 2.93   3 2.93   4 2.93   5 2.93  10 2.93  17 2.93
                            11 2.93
   3  0.667  0.000  0.220-   9 2.93   2 2.93   5 2.93  11 2.93   7 2.93  18 2.93   1 2.93   6 2.93
                            12 2.93
   4  0.000  0.333  0.220-   5 2.93   6 2.93   2 2.93   1 2.93   7 2.93  13 2.93  15 2.93   9 2.93
                            10 2.93
   5  0.333  0.333  0.220-   4 2.93   3 2.93   7 2.93   2 2.93   8 2.93  14 2.93  13 2.93  11 2.93
                             6 2.93
   6  0.667  0.333  0.220-   4 2.93   9 2.93   1 2.93  15 2.93   8 2.93  12 2.93   3 2.93   5 2.93
                            14 2.93
   7  0.000  0.667  0.220-   8 2.93   1 2.93   5 2.93   3 2.93   4 2.93  16 2.93  18 2.93  13 2.93
                             9 2.93
   8  0.333  0.667  0.220-   7 2.93   1 2.93   2 2.93   9 2.93   5 2.93  16 2.93   6 2.93  17 2.93
                            14 2.93
   9  0.667  0.667  0.220-   3 2.93   2 2.93   8 2.93   6 2.93  17 2.93   4 2.93  15 2.93   7 2.93
                            18 2.93
  10  0.111  0.111  0.320-  20 2.92  19 2.93  26 2.93  12 2.93  16 2.93  15 2.93  17 2.93  13 2.93
                            11 2.93   2 2.93   1 2.93   4 2.93
  11  0.444  0.111  0.320-  21 2.90  20 2.90  27 2.92  14 2.93  17 2.93  18 2.93   3 2.93  12 2.93
                            13 2.93  10 2.93   5 2.93   2 2.93
  12  0.778  0.111  0.320-  21 2.92  25 2.93  19 2.93  10 2.93  16 2.93  18 2.93  15 2.93  11 2.93
                             1 2.93  14 2.93   6 2.93   3 2.93
  13  0.111  0.444  0.320-  20 2.90  23 2.90  22 2.92  15 2.93  14 2.93  18 2.93  10 2.93  11 2.93
                            16 2.93   4 2.93   5 2.93   7 2.93
  14  0.444  0.444  0.320-  23 2.90  21 2.90  24 2.92  13 2.93  11 2.93  16 2.93   5 2.93  12 2.93
                            17 2.93   8 2.93  15 2.93   6 2.93
  15  0.778  0.444  0.320-  24 2.92  22 2.92  19 2.93  13 2.93  10 2.93  12 2.93  17 2.93  18 2.93
                             4 2.93   6 2.93   9 2.93  14 2.93
  16  0.111  0.778  0.320-  23 2.92  26 2.93  25 2.93  18 2.93  12 2.93  10 2.93  14 2.93  17 2.93
                            13 2.93   7 2.93   8 2.93   1 2.93
  17  0.444  0.778  0.320-  27 2.92  24 2.92  26 2.93  11 2.93  10 2.93   9 2.93  18 2.93  15 2.93
                            16 2.93   2 2.93  14 2.93   8 2.93
  18  0.778  0.778  0.320-  22 2.92  27 2.92  25 2.93  16 2.93  12 2.93  13 2.93  11 2.93  17 2.93
                            15 2.93   7 2.93   3 2.93   9 2.93
  19  0.889  0.222  0.419-  28 2.91  15 2.93  10 2.93  12 2.93  24 2.93  22 2.93  26 2.93  25 2.93
                            20 2.94  21 2.94  32 2.94  31 2.94
  20  0.223  0.223  0.418-  36 2.70  31 2.89  29 2.89  13 2.90  11 2.90  21 2.91  23 2.91  10 2.92
                            27 2.94  22 2.94  19 2.94  26 2.94
  21  0.554  0.223  0.418-  36 2.70  30 2.89  32 2.89  11 2.90  14 2.90  20 2.91  23 2.91  12 2.92
                            27 2.94  24 2.94  25 2.94  19 2.94
  22  0.888  0.556  0.419-  35 2.91  18 2.92  15 2.92  33 2.92  31 2.92  13 2.92  24 2.92  27 2.92
                            25 2.93  19 2.93  23 2.94  20 2.94
  23  0.223  0.554  0.418-  36 2.70  34 2.89  33 2.89  14 2.90  13 2.90  21 2.91  20 2.91  16 2.92
                            22 2.94  24 2.94  26 2.94  25 2.94
  24  0.556  0.556  0.419-  35 2.91  15 2.92  17 2.92  32 2.92  34 2.92  14 2.92  27 2.92  22 2.92
                            19 2.93  26 2.93  23 2.94  21 2.94
  25  0.889  0.889  0.419-  28 2.91  18 2.93  16 2.93  12 2.93  22 2.93  27 2.93  26 2.93  19 2.93
                            23 2.94  21 2.94  33 2.94  30 2.94
  26  0.222  0.889  0.419-  28 2.91  17 2.93  16 2.93  10 2.93  27 2.93  24 2.93  25 2.93  19 2.93
                            23 2.94  20 2.94  34 2.94  29 2.94
  27  0.556  0.888  0.419-  35 2.91  17 2.92  18 2.92  29 2.92  30 2.92  11 2.92  24 2.92  22 2.92
                            26 2.93  25 2.93  20 2.94  21 2.94
  28  0.000  0.000  0.518-  26 2.91  25 2.91  19 2.91  29 2.97  34 2.97  33 2.97  32 2.97  31 2.97
                            30 2.97
  29  0.333  0.008  0.518-  31 2.86  30 2.86  36 2.87  20 2.89  27 2.92  26 2.94  28 2.97  35 2.97
                            34 3.07
  30  0.659  0.008  0.518-  32 2.86  29 2.86  36 2.87  21 2.89  27 2.92  25 2.94  28 2.97  35 2.97
                            33 3.07
  31  0.008  0.333  0.518-  29 2.86  33 2.86  36 2.87  20 2.89  22 2.92  19 2.94  28 2.97  35 2.97
                            32 3.07
  32  0.659  0.333  0.518-  30 2.86  34 2.86  36 2.87  21 2.89  24 2.92  19 2.94  28 2.97  35 2.97
                            31 3.07
  33  0.008  0.659  0.518-  34 2.86  31 2.86  36 2.87  23 2.89  22 2.92  25 2.94  28 2.97  35 2.97
                            30 3.07
  34  0.333  0.659  0.518-  33 2.86  32 2.86  36 2.87  23 2.89  24 2.92  26 2.94  28 2.97  35 2.97
                            29 3.07
  35  0.667  0.667  0.517-  24 2.91  27 2.91  22 2.91  32 2.97  30 2.97  29 2.97  34 2.97  31 2.97
                            33 2.97
  36  0.333  0.333  0.506-  38 2.02  37 2.02  21 2.70  20 2.70  23 2.70  31 2.87  30 2.87  33 2.87
                            29 2.87  34 2.87  32 2.87
  37  0.267  0.332  0.587-  38 1.17  36 2.02
  38  0.400  0.332  0.587-  37 1.17  36 2.02
 
  LATTYP: Found a hexagonal cell.
 ALAT       =     8.7913665772
 C/A-ratio  =     2.7306349153
  
  Lattice vectors:
  
 A1 = (  -4.3956832886,  -7.6135467898,   0.0000000000)
 A2 = (   8.7913665771,   0.0000000000,   0.0000000000)
 A3 = (   0.0000000000,   0.0000000000,  24.0060125285)


Analysis of symmetry for initial positions (statically):
=====================================================================
 Subroutine PRICEL returns:
 Original cell was already a primitive cell.
 

 Routine SETGRP: Setting up the symmetry group for a 
 hexagonal supercell.


 Subroutine GETGRP returns: Found  2 space group operations
 (whereof  2 operations were pure point group operations)
 out of a pool of 24 trial point group operations.


The static configuration has the point symmetry C_1h.


Analysis of symmetry for dynamics (positions and initial velocities):
=====================================================================
 Subroutine PRICEL returns:
 Original cell was already a primitive cell.
 

 Routine SETGRP: Setting up the symmetry group for a 
 hexagonal supercell.


 Subroutine GETGRP returns: Found  2 space group operations
 (whereof  2 operations were pure point group operations)
 out of a pool of 24 trial point group operations.


The dynamic configuration has the point symmetry C_1h.


Analysis of constrained symmetry for selective dynamics:
=====================================================================
 Subroutine PRICEL returns:
 Original cell was already a primitive cell.
 

 Routine SETGRP: Setting up the symmetry group for a 
 hexagonal supercell.


 Subroutine GETGRP returns: Found  2 space group operations
 (whereof  2 operations were pure point group operations)
 out of a pool of 24 trial point group operations.


The constrained configuration has the point symmetry C_1h.


 Subroutine INISYM returns: Found  2 space group operations
 (whereof  2 operations are pure point group operations),
 and found     1 'primitive' translations


----------------------------------------------------------------------------------------

                                     Primitive cell                                     

  volume of cell :    1606.8060

  direct lattice vectors                    reciprocal lattice vectors
     8.791366577  0.000000000  0.000000000     0.113747958 -0.065672414  0.000000000
     4.395683289  7.613546790  0.000000000     0.000000000  0.131344829  0.000000000
     0.000000000  0.000000000 24.006012529     0.000000000  0.000000000  0.041656231

  length of vectors
     8.791366577  8.791366577 24.006012529     0.131344829  0.131344829  0.041656231

  position of ions in fractional coordinates (direct lattice)
     0.000000000  0.000000000  0.220036049
     0.333333313  0.000000000  0.220036049
     0.666666627  0.000000000  0.220036049
     0.000000000  0.333333343  0.220036049
     0.333333313  0.333333343  0.220036049
     0.666666687  0.333333343  0.220036049
     0.000000000  0.666666687  0.220036049
     0.333333313  0.666666687  0.220036049
     0.666666627  0.666666687  0.220036049
     0.111111104  0.111111112  0.319707212
     0.444444448  0.111111112  0.319707212
     0.777777791  0.111111112  0.319707212
     0.111111097  0.444444448  0.319707212
     0.444444418  0.444444448  0.319707212
     0.777777791  0.444444448  0.319707212
     0.111111104  0.777777791  0.319707212
     0.444444448  0.777777791  0.319707212
     0.777777791  0.777777791  0.319707212
     0.888789545  0.222420926  0.419172159
     0.223169922  0.223169937  0.418213470
     0.553660096  0.223169937  0.418213470
     0.888210350  0.555894855  0.418735643
     0.223169937  0.553660156  0.418213470
     0.555894855  0.555894855  0.418735643
     0.888789545  0.888789545  0.419172159
     0.222420896  0.888789545  0.419172159
     0.555894795  0.888210350  0.418735643
     0.000000000  0.000000000  0.517663536
     0.333170386  0.008273592  0.517694234
     0.658555962  0.008273592  0.517694234
     0.008273592  0.333170416  0.517694234
     0.658556022  0.333170416  0.517694234
     0.008273592  0.658556022  0.517694234
     0.333170386  0.658556022  0.517694234
     0.666666627  0.666666687  0.517480324
     0.333333313  0.333333343  0.506199384
     0.267048538  0.332463972  0.586879130
     0.400487458  0.332463972  0.586879130

  ion indices of the primitive-cell ions
   primitive index   ion index
                 1           1
                 2           2
                 3           3
                 4           4
                 5           5
                 6           6
                 7           7
                 8           8
                 9           9
                10          10
                11          11
                12          12
                13          13
                14          14
                15          15
                16          16
                17          17
                18          18
                19          19
                20          20
                21          21
                22          22
                23          23
                24          24
                25          25
                26          26
                27          27
                28          28
                29          29
                30          30
                31          31
                32          32
                33          33
                34          34
                35          35
                36          36
                37          37
                38          38

----------------------------------------------------------------------------------------

 
 
 KPOINTS: Automatic mesh                          

Automatic generation of k-mesh.
 Grid dimensions read from file:
 generate k-points for:    8    8    1

 Generating k-lattice:

  Cartesian coordinates                     Fractional coordinates (reciprocal lattice)
     0.014218495 -0.008209052  0.000000000     0.125000000  0.000000000  0.000000000
     0.000000000  0.016418104  0.000000000     0.000000000  0.125000000  0.000000000
     0.000000000  0.000000000  0.041656231     0.000000000  0.000000000  1.000000000

  Length of vectors
     0.016418104  0.016418104  0.041656231

  Shift w.r.t. Gamma in fractional coordinates (k-lattice)
     0.000000000  0.000000000  0.000000000

 TETIRR: Found    100 inequivalent tetrahedra from      384
 
 Subroutine IBZKPT returns following result:
 ===========================================
 
 Found     21 irreducible k-points:
 
 Following reciprocal coordinates:
            Coordinates               Weight
  0.000000  0.000000  0.000000      1.000000
  0.125000 -0.000000  0.000000      4.000000
  0.000000  0.125000  0.000000      2.000000
  0.250000 -0.000000  0.000000      4.000000
  0.000000  0.250000  0.000000      2.000000
  0.375000 -0.000000  0.000000      4.000000
  0.000000  0.375000  0.000000      2.000000
  0.500000 -0.000000  0.000000      2.000000
  0.000000  0.500000  0.000000      1.000000
  0.250000  0.125000  0.000000      2.000000
  0.125000  0.250000  0.000000      4.000000
  0.375000  0.125000  0.000000      4.000000
  0.250000  0.375000  0.000000      4.000000
 -0.125000  0.250000  0.000000      4.000000
  0.500000  0.125000  0.000000      4.000000
  0.375000  0.500000  0.000000      4.000000
 -0.125000  0.375000  0.000000      4.000000
  0.500000  0.250000  0.000000      2.000000
  0.250000  0.500000  0.000000      4.000000
 -0.375000  0.250000  0.000000      4.000000
 -0.250000  0.375000  0.000000      2.000000
 
 Following cartesian coordinates:
            Coordinates               Weight
  0.000000  0.000000  0.000000      1.000000
  0.014218 -0.008209  0.000000      4.000000
  0.000000  0.016418  0.000000      2.000000
  0.028437 -0.016418  0.000000      4.000000
  0.000000  0.032836  0.000000      2.000000
  0.042655 -0.024627  0.000000      4.000000
  0.000000  0.049254  0.000000      2.000000
  0.056874 -0.032836  0.000000      2.000000
  0.000000  0.065672  0.000000      1.000000
  0.028437 -0.000000  0.000000      2.000000
  0.014218  0.024627  0.000000      4.000000
  0.042655 -0.008209  0.000000      4.000000
  0.028437  0.032836  0.000000      4.000000
 -0.014218  0.041045  0.000000      4.000000
  0.056874 -0.016418  0.000000      4.000000
  0.042655  0.041045  0.000000      4.000000
 -0.014218  0.057463  0.000000      4.000000
  0.056874 -0.000000  0.000000      2.000000
  0.028437  0.049254  0.000000      4.000000
 -0.042655  0.057463  0.000000      4.000000
 -0.028437  0.065672  0.000000      2.000000
 


--------------------------------------------------------------------------------------------------------




 Dimension of arrays:
   k-points           NKPTS =     21   k-points in BZ     NKDIM =     21   number of bands    NBANDS=    256
   number of dos      NEDOS =    301   number of ions     NIONS =     38
   non local maximal  LDIM  =      6   non local SUM 2l+1 LMDIM =     18
   total plane-waves  NPLWV = 322560
   max r-space proj   IRMAX =   2516   max aug-charges    IRDMAX=  10069
   dimension x,y,z NGX =    48 NGY =   48 NGZ =  140
   dimension x,y,z NGXF=    96 NGYF=   96 NGZF=  280
   support grid    NGXF=    96 NGYF=   96 NGZF=  280
   ions per type =              35   1   2
   NGX,Y,Z   is equivalent  to a cutoff of   9.08,  9.08,  9.70 a.u.
   NGXF,Y,Z  is equivalent  to a cutoff of  18.15, 18.15, 19.39 a.u.

 SYSTEM =  unknown system                          
 POSCAR =  Ag-Fe-N2                                

 Startparameter for this run:
   NWRITE =      2    write-flag & timer
   PREC   = normal    normal or accurate (medium, high low for compatibility)
   ISTART =      0    job   : 0-new  1-cont  2-samecut
   ICHARG =     11    charge: 1-file 2-atom 10-const
   ISPIN  =      1    spin polarized calculation?
   LNONCOLLINEAR =      F non collinear calculations
   LSORBIT =      F    spin-orbit coupling
   INIWAV =      1    electr: 0-lowe 1-rand  2-diag
   LASPH  =      F    aspherical Exc in radial PAW
   METAGGA=      F    non-selfconsistent MetaGGA calc.

 Electronic Relaxation 1
   ENCUT  =  500.0 eV  36.75 Ry    6.06 a.u.  16.03 16.03 43.77*2*pi/ulx,y,z
   ENINI  =  500.0     initial cutoff
   ENAUG  =  627.1 eV  augmentation charge cutoff
   NELM   =    150;   NELMIN=  2; NELMDL= -5     # of ELM steps 
   EDIFF  = 0.1E-04   stopping-criterion for ELM
   LREAL  =      T    real-space projection
   NLSPLINE    = F    spline interpolate recip. space projectors
   LCOMPAT=      F    compatible to vasp.4.4
   GGA_COMPAT  = T    GGA compatible to vasp.4.4-vasp.4.6
   LMAXPAW     = -100 max onsite density
   LMAXMIX     =    2 max onsite mixed and CHGCAR
   VOSKOWN=      0    Vosko Wilk Nusair interpolation
   ROPT   =   -0.00050  -0.00050  -0.00050
 Ionic relaxation
   EDIFFG = -.1E-01   stopping-criterion for IOM
   NSW    =      0    number of steps for IOM
   NBLOCK =      1;   KBLOCK =      1    inner block; outer block 
   IBRION =     -1    ionic relax: 0-MD 1-quasi-New 2-CG
   NFREE  =      1    steps in history (QN), initial steepest desc. (CG)
   ISIF   =      2    stress and relaxation
   IWAVPR =     10    prediction:  0-non 1-charg 2-wave 3-comb
   ISYM   =      2    0-nonsym 1-usesym 2-fastsym
   LCORR  =      T    Harris-Foulkes like correction to forces

   POTIM  = 0.5000    time-step for ionic-motion
   TEIN   =    0.0    initial temperature
   TEBEG  =    0.0;   TEEND  =   0.0 temperature during run
   SMASS  =  -3.00    Nose mass-parameter (am)
   estimated Nose-frequenzy (Omega)   =  0.10E-29 period in steps = 0.13E+47 mass=  -0.177E-26a.u.
   SCALEE = 1.0000    scale energy and forces
   NPACO  =    256;   APACO  = 16.0  distance and # of slots for P.C.
   PSTRESS=    0.0 pullay stress

  Mass of Ions in am
   POMASS = 107.87 55.85 14.00
  Ionic Valenz
   ZVAL   =  11.00  8.00  5.00
  Atomic Wigner-Seitz radii
   RWIGS  =  -1.00 -1.00 -1.00
  virtual crystal weights 
   VCA    =   1.00  1.00  1.00
   NELECT =     403.0000    total number of electrons
   NUPDOWN=      -1.0000    fix difference up-down

 DOS related values:
   EMIN   =  10.00;   EMAX   =-10.00  energy-range for DOS
   EFERMI =   0.00
   ISMEAR =    -5;   SIGMA  =   0.10  broadening in eV -4-tet -1-fermi 0-gaus

 Electronic relaxation 2 (details)
   IALGO  =     68    algorithm
   LDIAG  =      T    sub-space diagonalisation (order eigenvalues)
   LSUBROT=      F    optimize rotation matrix (better conditioning)
   TURBO    =      0    0=normal 1=particle mesh
   IRESTART =      0    0=no restart 2=restart with 2 vectors
   NREBOOT  =      0    no. of reboots
   NMIN     =      0    reboot dimension
   EREF     =   0.00    reference energy to select bands
   IMIX   =      4    mixing-type and parameters
     AMIX     =   0.40;   BMIX     =  1.00
     AMIX_MAG =   1.60;   BMIX_MAG =  1.00
     AMIN     =   0.10
     WC   =   100.;   INIMIX=   1;  MIXPRE=   1;  MAXMIX= -45

 Intra band minimization:
   WEIMIN = 0.0000     energy-eigenvalue tresh-hold
   EBREAK =  0.98E-08  absolut break condition
   DEPER  =   0.30     relativ break condition  

   TIME   =   0.40     timestep for ELM

  volume/ion in A,a.u.               =      42.28       285.35
  Fermi-wavevector in a.u.,A,eV,Ry     =   1.032418  1.950986 14.502259  1.065886
  Thomas-Fermi vector in A             =   2.166614
 
 Write flags
   LWAVE        =      F    write WAVECAR
   LDOWNSAMPLE  =      F    k-point downsampling of WAVECAR
   LCHARG       =      F    write CHGCAR
   LVTOT        =      F    write LOCPOT, total local potential
   LVHAR        =      F    write LOCPOT, Hartree potential only
   LELF         =      F    write electronic localiz. function (ELF)
   LORBIT       =     10    0 simple, 1 ext, 2 COOP (PROOUT), +10 PAW based schemes


 Dipole corrections
   LMONO  =      F    monopole corrections only (constant potential shift)
   LDIPOL =      F    correct potential (dipole corrections)
   IDIPOL =      0    1-x, 2-y, 3-z, 4-all directions 
   EPSILON=  1.0000000 bulk dielectric constant

 Exchange correlation treatment:
   GGA     =    --    GGA type
   LEXCH   =     8    internal setting for exchange type
   VOSKOWN=      0    Vosko Wilk Nusair interpolation
   LHFCALC =     F    Hartree Fock is set to
   LHFONE  =     F    Hartree Fock one center treatment
   AEXX    =    0.0000 exact exchange contribution

 Linear response parameters
   LEPSILON=     F    determine dielectric tensor
   LRPA    =     F    only Hartree local field effects (RPA)
   LNABLA  =     F    use nabla operator in PAW spheres
   LVEL    =     F    velocity operator in full k-point grid
   LINTERFAST=   F  fast interpolation
   KINTER  =     0    interpolate to denser k-point grid
   CSHIFT  =0.1000    complex shift for real part using Kramers Kronig
   OMEGAMAX=  -1.0    maximum frequency
   DEG_THRESHOLD= 0.2000000E-02 threshold for treating states as degnerate
   RTIME   =   -0.100 relaxation time in fs
  (WPLASMAI=    0.000 imaginary part of plasma frequency in eV, 0.658/RTIME)
   DFIELD  = 0.0000000 0.0000000 0.0000000 field for delta impulse in time
 
 Orbital magnetization related:
   ORBITALMAG=     F  switch on orbital magnetization
   LCHIMAG   =     F  perturbation theory with respect to B field
   DQ        =  0.001000  dq finite difference perturbation B field
   LLRAUG    =     F  two centre corrections for induced B field



--------------------------------------------------------------------------------------------------------


 Static calculation
 charge density and potential remain constant during run
 non-spin polarized calculation
 RMM-DIIS sequential band-by-band and
  variant of blocked Davidson during initial phase
 perform sub-space diagonalisation
    before iterative eigenvector-optimisation
 no mixing
 using additional bands           54
 real space projection scheme for non local part
 use partial core corrections
 calculate Harris-corrections to forces 
   (improved forces if not selfconsistent)
 use gradient corrections 
 WARNING: stress and forces are not correct
  (second derivative of E(xc) not defined)
 use of overlap-Matrix (Vanderbilt PP)
 Fermi weights with tetrahedron method with Bloechl corrections


--------------------------------------------------------------------------------------------------------


  energy-cutoff  :      500.00
  volume of cell :     1606.81
      direct lattice vectors                 reciprocal lattice vectors
     8.791366577  0.000000000  0.000000000     0.113747958 -0.065672414  0.000000000
     4.395683289  7.613546790  0.000000000     0.000000000  0.131344829  0.000000000
     0.000000000  0.000000000 24.006012529     0.000000000  0.000000000  0.041656231

  length of vectors
     8.791366577  8.791366577 24.006012529     0.131344829  0.131344829  0.041656231


 
 k-points in units of 2pi/SCALE and weight: Automatic mesh                          
   0.00000000  0.00000000  0.00000000       0.016
   0.01421849 -0.00820905  0.00000000       0.062
   0.00000000  0.01641810  0.00000000       0.031
   0.02843699 -0.01641810  0.00000000       0.062
   0.00000000  0.03283621  0.00000000       0.031
   0.04265548 -0.02462716  0.00000000       0.062
   0.00000000  0.04925431  0.00000000       0.031
   0.05687398 -0.03283621  0.00000000       0.031
   0.00000000  0.06567241  0.00000000       0.016
   0.02843699 -0.00000000  0.00000000       0.031
   0.01421849  0.02462716  0.00000000       0.062
   0.04265548 -0.00820905  0.00000000       0.062
   0.02843699  0.03283621  0.00000000       0.062
  -0.01421849  0.04104526  0.00000000       0.062
   0.05687398 -0.01641810  0.00000000       0.062
   0.04265548  0.04104526  0.00000000       0.062
  -0.01421849  0.05746336  0.00000000       0.062
   0.05687398 -0.00000000  0.00000000       0.031
   0.02843699  0.04925431  0.00000000       0.062
  -0.04265548  0.05746336  0.00000000       0.062
  -0.02843699  0.06567241  0.00000000       0.031
 
 k-points in reciprocal lattice and weights: Automatic mesh                          
   0.00000000  0.00000000  0.00000000       0.016
   0.12500000 -0.00000000  0.00000000       0.062
   0.00000000  0.12500000  0.00000000       0.031
   0.25000000 -0.00000000  0.00000000       0.062
   0.00000000  0.25000000  0.00000000       0.031
   0.37500000 -0.00000000  0.00000000       0.062
   0.00000000  0.37500000  0.00000000       0.031
   0.50000000 -0.00000000  0.00000000       0.031
   0.00000000  0.50000000  0.00000000       0.016
   0.25000000  0.12500000  0.00000000       0.031
   0.12500000  0.25000000  0.00000000       0.062
   0.37500000  0.12500000  0.00000000       0.062
   0.25000000  0.37500000  0.00000000       0.062
  -0.12500000  0.25000000  0.00000000       0.062
   0.50000000  0.12500000  0.00000000       0.062
   0.37500000  0.50000000  0.00000000       0.062
  -0.12500000  0.37500000  0.00000000       0.062
   0.50000000  0.25000000  0.00000000       0.031
   0.25000000  0.50000000  0.00000000       0.062
  -0.37500000  0.25000000  0.00000000       0.062
  -0.25000000  0.37500000  0.00000000       0.031
 
 position of ions in fractional coordinates (direct lattice) 
   0.00000000  0.00000000  0.22003605
   0.33333331  0.00000000  0.22003605
   0.66666663  0.00000000  0.22003605
   0.00000000  0.33333334  0.22003605
   0.33333331  0.33333334  0.22003605
   0.66666669  0.33333334  0.22003605
   0.00000000  0.66666669  0.22003605
   0.33333331  0.66666669  0.22003605
   0.66666663  0.66666669  0.22003605
   0.11111110  0.11111111  0.31970721
   0.44444445  0.11111111  0.31970721
   0.77777779  0.11111111  0.31970721
   0.11111110  0.44444445  0.31970721
   0.44444442  0.44444445  0.31970721
   0.77777779  0.44444445  0.31970721
   0.11111110  0.77777779  0.31970721
   0.44444445  0.77777779  0.31970721
   0.77777779  0.77777779  0.31970721
   0.88878954  0.22242093  0.41917216
   0.22316992  0.22316994  0.41821347
   0.55366010  0.22316994  0.41821347
   0.88821035  0.55589485  0.41873564
   0.22316994  0.55366016  0.41821347
   0.55589485  0.55589485  0.41873564
   0.88878954  0.88878954  0.41917216
   0.22242090  0.88878954  0.41917216
   0.55589479  0.88821035  0.41873564
   0.00000000  0.00000000  0.51766354
   0.33317039  0.00827359  0.51769423
   0.65855596  0.00827359  0.51769423
   0.00827359  0.33317042  0.51769423
   0.65855602  0.33317042  0.51769423
   0.00827359  0.65855602  0.51769423
   0.33317039  0.65855602  0.51769423
   0.66666663  0.66666669  0.51748032
   0.33333331  0.33333334  0.50619938
   0.26704854  0.33246397  0.58687913
   0.40048746  0.33246397  0.58687913
 
 position of ions in cartesian coordinates  (Angst):
   0.00000000  0.00000000  5.28218814
   2.93045535  0.00000000  5.28218814
   5.86091070  0.00000000  5.28218814
   1.46522781  2.53784900  5.28218814
   4.39568315  2.53784900  5.28218814
   7.32613904  2.53784900  5.28218814
   2.93045562  5.07569801  5.28218814
   5.86091096  5.07569801  5.28218814
   8.79136632  5.07569801  5.28218814
   1.46522770  0.84594965  7.67489535
   4.39568332  0.84594965  7.67489535
   7.32613893  0.84594965  7.67489535
   2.93045542  3.38379860  7.67489535
   5.86091083  3.38379860  7.67489535
   8.79136671  3.38379860  7.67489535
   4.39568328  5.92164760  7.67489535
   7.32613890  5.92164760  7.67489535
  10.25659451  5.92164760  7.67489535
   8.79136665  1.69341213 10.06265211
   2.94295296  1.69911476 10.03963781
   5.84841322  1.69911476 10.03963781
  10.25212051  4.23233149 10.05217308
   4.39568342  4.21531750 10.03963781
   7.33061317  4.23233149 10.05217308
  11.72051205  6.76684079 10.06265211
   5.86222098  6.76684079 10.06265211
   8.79136631  6.76243106 10.05217308
   0.00000000  0.00000000 12.42703732
   2.96539108  0.06299138 12.42777426
   5.82597496  0.06299138 12.42777426
   1.53724781  2.53660855 12.42777426
   7.25411903  2.53660855 12.42777426
   2.96753988  5.01394709 12.42777426
   5.82382669  5.01394709 12.42777426
   8.79136632  5.07569801 12.42263914
   4.39568315  2.53784900 12.15182876
   3.80912792  2.53123001 14.08862774
   4.98223838  2.53123001 14.08862774
 


--------------------------------------------------------------------------------------------------------


 k-point   1 :   0.0000 0.0000 0.0000  plane waves:   40737
 k-point   2 :   0.1250-0.0000 0.0000  plane waves:   40720
 k-point   3 :   0.0000 0.1250 0.0000  plane waves:   40720
 k-point   4 :   0.2500-0.0000 0.0000  plane waves:   40814
 k-point   5 :   0.0000 0.2500 0.0000  plane waves:   40814
 k-point   6 :   0.3750-0.0000 0.0000  plane waves:   40772
 k-point   7 :   0.0000 0.3750 0.0000  plane waves:   40772
 k-point   8 :   0.5000-0.0000 0.0000  plane waves:   40812
 k-point   9 :   0.0000 0.5000 0.0000  plane waves:   40812
 k-point  10 :   0.2500 0.1250 0.0000  plane waves:   40784
 k-point  11 :   0.1250 0.2500 0.0000  plane waves:   40784
 k-point  12 :   0.3750 0.1250 0.0000  plane waves:   40812
 k-point  13 :   0.2500 0.3750 0.0000  plane waves:   40812
 k-point  14 :  -0.1250 0.2500 0.0000  plane waves:   40812
 k-point  15 :   0.5000 0.1250 0.0000  plane waves:   40812
 k-point  16 :   0.3750 0.5000 0.0000  plane waves:   40812
 k-point  17 :  -0.1250 0.3750 0.0000  plane waves:   40812
 k-point  18 :   0.5000 0.2500 0.0000  plane waves:   40796
 k-point  19 :   0.2500 0.5000 0.0000  plane waves:   40796
 k-point  20 :  -0.3750 0.2500 0.0000  plane waves:   40808
 k-point  21 :  -0.2500 0.3750 0.0000  plane waves:   40808

 maximum and minimum number of plane-waves per node :     40814    40720

 maximum number of plane-waves:     40814
 maximum index in each direction: 
   IXMAX=   16   IYMAX=   16   IZMAX=   43
   IXMIN=  -16   IYMIN=  -16   IZMIN=  -43


 serial   3D FFT for wavefunctions
 parallel 3D FFT for charge:
    minimum data exchange during FFTs selected (reduces bandwidth)


 total amount of memory used by VASP MPI-rank0   299160. kBytes
=======================================================================

   base      :      30000. kBytes
   nonlr-proj:      15460. kBytes
   fftplans  :       6755. kBytes
   grid      :      23316. kBytes
   one-center:        590. kBytes
   wavefun   :     223039. kBytes
 
     INWAV:  cpu time    0.0000: real time    0.0000
 initial charge density was supplied:
 number of electron     403.0000060 magnetization 
 keeping initial charge density in first step


--------------------------------------------------------------------------------------------------------


 Maximum index for non-local projection operator         2408
 Maximum index for augmentation-charges          662 (set IRDMAX)


--------------------------------------------------------------------------------------------------------


 First call to EWALD:  gamma=   0.151
 Maximum number of real-space cells 4x 4x 2
 Maximum number of reciprocal cells 2x 2x 5

    FEWALD:  cpu time    0.0014: real time    0.0014


--------------------------------------- Iteration      1(   1)  ---------------------------------------


    POTLOK:  cpu time    0.0658: real time    0.0662
    SETDIJ:  cpu time    0.0059: real time    0.0060
     EDDAV:  cpu time   21.9827: real time   21.9836
 BZINTS: Fermi energy:    9.444607;  403.000000 electrons
         Band energy: 0.113160E+04;  BLOECHL correction:   -0.030341
       DOS:  cpu time    0.0295: real time    0.0295
    --------------------------------------------
      LOOP:  cpu time   22.0840: real time   22.0853

 eigenvalue-minimisations  : 10768
 total energy-change (2. order) : 0.2517436E+04  (-0.1834795E+05)
 number of electron     403.0000060 magnetization 
 augmentation part      403.0000060 magnetization 

 Free energy of the ion-electron system (eV)
  ---------------------------------------------------
  alpha Z        PSCENC =       711.26059551
  Ewald energy   TEWEN  =    126238.10562522
  -Hartree energ DENC   =   -164171.45937919
  -exchange      EXHF   =         0.00000000
  -V(xc)+E(xc)   XCENC  =      -346.12369728
  PAW double counting   =     39905.81683566   -38379.32245631
  entropy T*S    EENTRO =         0.00000000
  eigenvalues    EBANDS =      1131.59526055
  atomic energy  EATOM  =     37427.56319479
  Solvation  Ediel_sol  =         0.00000000
  ---------------------------------------------------
  free energy    TOTEN  =      2517.43597895 eV

  energy without entropy =     2517.43597895  energy(sigma->0) =     2517.43597895


--------------------------------------------------------------------------------------------------------




--------------------------------------- Iteration      1(   2)  ---------------------------------------


     EDDAV:  cpu time   23.0027: real time   23.0028
 BZINTS: Fermi energy:    1.182035;  403.000000 electrons
         Band energy:-0.138750E+04;  BLOECHL correction:   -0.017604
       DOS:  cpu time    0.0285: real time    0.0285
    --------------------------------------------
      LOOP:  cpu time   23.0312: real time   23.0313

 eigenvalue-minimisations  : 11424
 total energy-change (2. order) :-0.2519092E+04  (-0.2394134E+04)
 number of electron     403.0000060 magnetization 
 augmentation part      403.0000060 magnetization 

 Free energy of the ion-electron system (eV)
  ---------------------------------------------------
  alpha Z        PSCENC =       711.26059551
  Ewald energy   TEWEN  =    126238.10562522
  -Hartree energ DENC   =   -164171.45937919
  -exchange      EXHF   =         0.00000000
  -V(xc)+E(xc)   XCENC  =      -346.12369728
  PAW double counting   =     39905.81683566   -38379.32245631
  entropy T*S    EENTRO =         0.00000000
  eigenvalues    EBANDS =     -1387.49674275
  atomic energy  EATOM  =     37427.56319479
  Solvation  Ediel_sol  =         0.00000000
  ---------------------------------------------------
  free energy    TOTEN  =        -1.65602435 eV

  energy without entropy =       -1.65602435  energy(sigma->0) =       -1.65602435


--------------------------------------------------------------------------------------------------------




--------------------------------------- Iteration      1(   3)  ---------------------------------------


     EDDAV:  cpu time   24.6604: real time   24.6606
 BZINTS: Fermi energy:    0.472861;  403.000000 electrons
         Band energy:-0.149456E+04;  BLOECHL correction:   -0.035093
       DOS:  cpu time    0.0311: real time    0.0311
    --------------------------------------------
      LOOP:  cpu time   24.6916: real time   24.6917

 eigenvalue-minimisations  : 12480
 total energy-change (2. order) :-0.1070603E+03  (-0.1043224E+03)
 number of electron     403.0000060 magnetization 
 augmentation part      403.0000060 magnetization 

 Free energy of the ion-electron system (eV)
  ---------------------------------------------------
  alpha Z        PSCENC =       711.26059551
  Ewald energy   TEWEN  =    126238.10562522
  -Hartree energ DENC   =   -164171.45937919
  -exchange      EXHF   =         0.00000000
  -V(xc)+E(xc)   XCENC  =      -346.12369728
  PAW double counting   =     39905.81683566   -38379.32245631
  entropy T*S    EENTRO =         0.00000000
  eigenvalues    EBANDS =     -1494.55708147
  atomic energy  EATOM  =     37427.56319479
  Solvation  Ediel_sol  =         0.00000000
  ---------------------------------------------------
  free energy    TOTEN  =      -108.71636307 eV

  energy without entropy =     -108.71636307  energy(sigma->0) =     -108.71636307


--------------------------------------------------------------------------------------------------------




--------------------------------------- Iteration      1(   4)  ---------------------------------------


     EDDAV:  cpu time   24.1756: real time   24.1758
 BZINTS: Fermi energy:    0.450803;  403.000000 electrons
         Band energy:-0.149699E+04;  BLOECHL correction:   -0.035537
       DOS:  cpu time    0.0312: real time    0.0312
    --------------------------------------------
      LOOP:  cpu time   24.2069: real time   24.2071

 eigenvalue-minimisations  : 12176
 total energy-change (2. order) :-0.2437816E+01  (-0.2405930E+01)
 number of electron     403.0000060 magnetization 
 augmentation part      403.0000060 magnetization 

 Free energy of the ion-electron system (eV)
  ---------------------------------------------------
  alpha Z        PSCENC =       711.26059551
  Ewald energy   TEWEN  =    126238.10562522
  -Hartree energ DENC   =   -164171.45937919
  -exchange      EXHF   =         0.00000000
  -V(xc)+E(xc)   XCENC  =      -346.12369728
  PAW double counting   =     39905.81683566   -38379.32245631
  entropy T*S    EENTRO =         0.00000000
  eigenvalues    EBANDS =     -1496.99489721
  atomic energy  EATOM  =     37427.56319479
  Solvation  Ediel_sol  =         0.00000000
  ---------------------------------------------------
  free energy    TOTEN  =      -111.15417881 eV

  energy without entropy =     -111.15417881  energy(sigma->0) =     -111.15417881


--------------------------------------------------------------------------------------------------------




--------------------------------------- Iteration      1(   5)  ---------------------------------------


     EDDAV:  cpu time   24.8663: real time   24.8664
 BZINTS: Fermi energy:    0.450483;  403.000000 electrons
         Band energy:-0.149705E+04;  BLOECHL correction:   -0.035524
       DOS:  cpu time    0.0293: real time    0.0293
    --------------------------------------------
      LOOP:  cpu time   24.8956: real time   24.8958

 eigenvalue-minimisations  : 12608
 total energy-change (2. order) :-0.5728505E-01  (-0.5728230E-01)
 number of electron     403.0000060 magnetization 
 augmentation part      403.0000060 magnetization 

 Free energy of the ion-electron system (eV)
  ---------------------------------------------------
  alpha Z        PSCENC =       711.26059551
  Ewald energy   TEWEN  =    126238.10562522
  -Hartree energ DENC   =   -164171.45937919
  -exchange      EXHF   =         0.00000000
  -V(xc)+E(xc)   XCENC  =      -346.12369728
  PAW double counting   =     39905.81683566   -38379.32245631
  entropy T*S    EENTRO =         0.00000000
  eigenvalues    EBANDS =     -1497.05218226
  atomic energy  EATOM  =     37427.56319479
  Solvation  Ediel_sol  =         0.00000000
  ---------------------------------------------------
  free energy    TOTEN  =      -111.21146386 eV

  energy without entropy =     -111.21146386  energy(sigma->0) =     -111.21146386


--------------------------------------------------------------------------------------------------------




--------------------------------------- Iteration      1(   6)  ---------------------------------------


    EDDIAG:  cpu time    4.0494: real time    4.0495
  RMM-DIIS:  cpu time   11.5604: real time   11.5604
    ORTHCH:  cpu time    0.8903: real time    0.8904
 BZINTS: Fermi energy:    0.450473;  403.000000 electrons
         Band energy:-0.149705E+04;  BLOECHL correction:   -0.035524
       DOS:  cpu time    0.0306: real time    0.0306
    --------------------------------------------
      LOOP:  cpu time   16.5307: real time   16.5309

 eigenvalue-minimisations  : 11186
 total energy-change (2. order) :-0.1365095E-02  (-0.1365321E-02)
 number of electron     403.0000060 magnetization 
 augmentation part      403.0000060 magnetization 

 Free energy of the ion-electron system (eV)
  ---------------------------------------------------
  alpha Z        PSCENC =       711.26059551
  Ewald energy   TEWEN  =    126238.10562522
  -Hartree energ DENC   =   -164171.45937919
  -exchange      EXHF   =         0.00000000
  -V(xc)+E(xc)   XCENC  =      -346.12369728
  PAW double counting   =     39905.81683566   -38379.32245631
  entropy T*S    EENTRO =         0.00000000
  eigenvalues    EBANDS =     -1497.05354736
  atomic energy  EATOM  =     37427.56319479
  Solvation  Ediel_sol  =         0.00000000
  ---------------------------------------------------
  free energy    TOTEN  =      -111.21282896 eV

  energy without entropy =     -111.21282896  energy(sigma->0) =     -111.21282896


--------------------------------------------------------------------------------------------------------




--------------------------------------- Iteration      1(   7)  ---------------------------------------


    EDDIAG:  cpu time    4.0446: real time    4.0446
  RMM-DIIS:  cpu time   16.2920: real time   16.2920
    ORTHCH:  cpu time    0.8909: real time    0.8909
 BZINTS: Fermi energy:    0.450468;  403.000000 electrons
         Band energy:-0.149705E+04;  BLOECHL correction:   -0.035524
       DOS:  cpu time    0.0300: real time    0.0300
    --------------------------------------------
      LOOP:  cpu time   21.2575: real time   21.2576

 eigenvalue-minimisations  : 16217
 total energy-change (2. order) :-0.6119655E-03  (-0.5986644E-03)
 number of electron     403.0000060 magnetization 
 augmentation part      403.0000060 magnetization 

 Free energy of the ion-electron system (eV)
  ---------------------------------------------------
  alpha Z        PSCENC =       711.26059551
  Ewald energy   TEWEN  =    126238.10562522
  -Hartree energ DENC   =   -164171.45937919
  -exchange      EXHF   =         0.00000000
  -V(xc)+E(xc)   XCENC  =      -346.12369728
  PAW double counting   =     39905.81683566   -38379.32245631
  entropy T*S    EENTRO =         0.00000000
  eigenvalues    EBANDS =     -1497.05415932
  atomic energy  EATOM  =     37427.56319479
  Solvation  Ediel_sol  =         0.00000000
  ---------------------------------------------------
  free energy    TOTEN  =      -111.21344092 eV

  energy without entropy =     -111.21344092  energy(sigma->0) =     -111.21344092


--------------------------------------------------------------------------------------------------------




--------------------------------------- Iteration      1(   8)  ---------------------------------------


    EDDIAG:  cpu time    4.0428: real time    4.0429
  RMM-DIIS:  cpu time   12.2007: real time   12.2007
    ORTHCH:  cpu time    0.8901: real time    0.8901
 BZINTS: Fermi energy:    0.450468;  403.000000 electrons
         Band energy:-0.149705E+04;  BLOECHL correction:   -0.035524
       DOS:  cpu time    0.0300: real time    0.0300
    --------------------------------------------
      LOOP:  cpu time   17.1636: real time   17.1637

 eigenvalue-minimisations  : 11825
 total energy-change (2. order) :-0.4201589E-04  (-0.4190149E-04)
 number of electron     403.0000060 magnetization 
 augmentation part      403.0000060 magnetization 

 Free energy of the ion-electron system (eV)
  ---------------------------------------------------
  alpha Z        PSCENC =       711.26059551
  Ewald energy   TEWEN  =    126238.10562522
  -Hartree energ DENC   =   -164171.45937919
  -exchange      EXHF   =         0.00000000
  -V(xc)+E(xc)   XCENC  =      -346.12369728
  PAW double counting   =     39905.81683566   -38379.32245631
  entropy T*S    EENTRO =         0.00000000
  eigenvalues    EBANDS =     -1497.05420134
  atomic energy  EATOM  =     37427.56319479
  Solvation  Ediel_sol  =         0.00000000
  ---------------------------------------------------
  free energy    TOTEN  =      -111.21348294 eV

  energy without entropy =     -111.21348294  energy(sigma->0) =     -111.21348294


--------------------------------------------------------------------------------------------------------




--------------------------------------- Iteration      1(   9)  ---------------------------------------


    EDDIAG:  cpu time    4.0442: real time    4.0442
  RMM-DIIS:  cpu time   12.2080: real time   12.2081
    ORTHCH:  cpu time    0.8912: real time    0.8912
 BZINTS: Fermi energy:    0.450468;  403.000000 electrons
         Band energy:-0.149705E+04;  BLOECHL correction:   -0.035524
       DOS:  cpu time    0.0299: real time    0.0299
    --------------------------------------------
      LOOP:  cpu time   17.1733: real time   17.1734

 eigenvalue-minimisations  : 11423
 total energy-change (2. order) :-0.1079228E-04  (-0.1083159E-04)
 number of electron     403.0000060 magnetization 
 augmentation part      403.0000060 magnetization 

 Free energy of the ion-electron system (eV)
  ---------------------------------------------------
  alpha Z        PSCENC =       711.26059551
  Ewald energy   TEWEN  =    126238.10562522
  -Hartree energ DENC   =   -164171.45937919
  -exchange      EXHF   =         0.00000000
  -V(xc)+E(xc)   XCENC  =      -346.12369728
  PAW double counting   =     39905.81683566   -38379.32245631
  entropy T*S    EENTRO =         0.00000000
  eigenvalues    EBANDS =     -1497.05421213
  atomic energy  EATOM  =     37427.56319479
  Solvation  Ediel_sol  =         0.00000000
  ---------------------------------------------------
  free energy    TOTEN  =      -111.21349373 eV

  energy without entropy =     -111.21349373  energy(sigma->0) =     -111.21349373


--------------------------------------------------------------------------------------------------------




--------------------------------------- Iteration      1(  10)  ---------------------------------------


    EDDIAG:  cpu time    4.0442: real time    4.0442
  RMM-DIIS:  cpu time    8.5708: real time    8.5708
    ORTHCH:  cpu time    0.8907: real time    0.8908
 BZINTS: Fermi energy:    0.450468;  403.000000 electrons
         Band energy:-0.149705E+04;  BLOECHL correction:   -0.035524
       DOS:  cpu time    0.0300: real time    0.0332
    --------------------------------------------
      LOOP:  cpu time   13.5357: real time   13.5390

 eigenvalue-minimisations  :  7343
 total energy-change (2. order) :-0.1166452E-05  (-0.1166650E-05)
 number of electron     403.0000060 magnetization 
 augmentation part      403.0000060 magnetization 

 Free energy of the ion-electron system (eV)
  ---------------------------------------------------
  alpha Z        PSCENC =       711.26059551
  Ewald energy   TEWEN  =    126238.10562522
  -Hartree energ DENC   =   -164171.45937919
  -exchange      EXHF   =         0.00000000
  -V(xc)+E(xc)   XCENC  =      -346.12369728
  PAW double counting   =     39905.81683566   -38379.32245631
  entropy T*S    EENTRO =         0.00000000
  eigenvalues    EBANDS =     -1497.05421330
  atomic energy  EATOM  =     37427.56319479
  Solvation  Ediel_sol  =         0.00000000
  ---------------------------------------------------
  free energy    TOTEN  =      -111.21349490 eV

  energy without entropy =     -111.21349490  energy(sigma->0) =     -111.21349490


--------------------------------------------------------------------------------------------------------




 average (electrostatic) potential at core
  the test charge radii are     1.1249  1.0103  0.7089
  (the norm of the test charge is              1.0000)
       1 -78.4549       2 -78.4171       3 -78.4170       4 -78.4219       5 -78.4130
       6 -78.4216       7 -78.4139       8 -78.4137       9 -78.4460      10 -78.6634
      11 -78.6331      12 -78.6630      13 -78.6331      14 -78.6328      15 -78.6590
      16 -78.6566      17 -78.6539      18 -78.6539      19 -78.6311      20 -78.6628
      21 -78.6624      22 -78.6416      23 -78.6616      24 -78.6415      25 -78.6248
      26 -78.6250      27 -78.6383      28 -78.4020      29 -78.3887      30 -78.3886
      31 -78.3794      32 -78.3791      33 -78.3894      34 -78.3893      35 -78.3853
      36 -48.2219      37 -70.4566      38 -70.4565
 
 
 
 E-fermi :   0.4505     XC(G=0):  -5.5256     alpha+bet : -5.2044

 Fermi energy:         0.4504676239

 k-point     1 :       0.0000    0.0000    0.0000
  band No.  band energies     occupation 
      1     -22.1717      2.00000
      2      -9.0926      2.00000
      3      -7.0571      2.00000
      4      -6.5829      2.00000
      5      -6.2925      2.00000
      6      -5.7621      2.00000
      7      -5.5056      2.00000
      8      -5.3987      2.00000
      9      -5.3742      2.00000
     10      -5.3674      2.00000
     11      -5.3650      2.00000
     12      -5.3649      2.00000
     13      -5.3608      2.00000
     14      -5.3566      2.00000
     15      -5.3413      2.00000
     16      -5.3258      2.00000
     17      -5.3248      2.00000
     18      -5.3189      2.00000
     19      -5.3135      2.00000
     20      -5.3104      2.00000
     21      -5.1774      2.00000
     22      -5.1615      2.00000
     23      -5.1529      2.00000
     24      -5.1521      2.00000
     25      -5.1515      2.00000
     26      -5.1508      2.00000
     27      -5.1118      2.00000
     28      -4.9778      2.00000
     29      -4.9736      2.00000
     30      -4.9716      2.00000
     31      -4.9515      2.00000
     32      -4.9328      2.00000
     33      -4.9323      2.00000
     34      -4.9322      2.00000
     35      -4.9210      2.00000
     36      -4.9155      2.00000
     37      -4.9067      2.00000
     38      -4.9027      2.00000
     39      -4.9015      2.00000
     40      -4.8182      2.00000
     41      -4.8026      2.00000
     42      -4.7994      2.00000
     43      -4.7138      2.00000
     44      -4.6672      2.00000
     45      -4.6359      2.00000
     46      -4.5932      2.00000
     47      -4.5908      2.00000
     48      -4.5792      2.00000
     49      -4.5743      2.00000
     50      -4.5739      2.00000
     51      -4.5484      2.00000
     52      -4.5477      2.00000
     53      -4.5098      2.00000
     54      -4.5063      2.00000
     55      -4.4756      2.00000
     56      -4.4229      2.00000
     57      -4.4156      2.00000
     58      -4.3948      2.00000
     59      -4.3872      2.00000
     60      -4.1881      2.00000
     61      -4.1826      2.00000
     62      -4.1819      2.00000
     63      -4.1791      2.00000
     64      -4.1724      2.00000
     65      -4.1722      2.00000
     66      -4.1462      2.00000
     67      -4.1461      2.00000
     68      -4.1176      2.00000
     69      -4.1176      2.00000
     70      -4.1117      2.00000
     71      -4.0231      2.00000
     72      -4.0225      2.00000
     73      -4.0119      2.00000
     74      -4.0116      2.00000
     75      -4.0039      2.00000
     76      -3.9999      2.00000
     77      -3.9998      2.00000
     78      -3.9758      2.00000
     79      -3.9739      2.00000
     80      -3.9731      2.00000
     81      -3.9563      2.00000
     82      -3.9393      2.00000
     83      -3.9389      2.00000
     84      -3.9327      2.00000
     85      -3.9244      2.00000
     86      -3.9144      2.00000
     87      -3.9112      2.00000
     88      -3.8720      2.00000
     89      -3.8718      2.00000
     90      -3.8033      2.00000
     91      -3.8023      2.00000
     92      -3.7883      2.00000
     93      -3.7745      2.00000
     94      -3.7742      2.00000
     95      -3.7475      2.00000
     96      -3.7391      2.00000
     97      -3.7285      2.00000
     98      -3.7279      2.00000
     99      -3.7014      2.00000
    100      -3.7006      2.00000
    101      -3.6759      2.00000
    102      -3.5981      2.00000
    103      -3.5838      2.00000
    104      -3.4788      2.00000
    105      -3.4775      2.00000
    106      -3.4754      2.00000
    107      -3.4549      2.00000
    108      -3.4517      2.00000
    109      -3.4513      2.00000
    110      -3.4262      2.00000
    111      -3.4163      2.00000
    112      -3.3991      2.00000
    113      -3.3973      2.00000
    114      -3.3818      2.00000
    115      -3.3427      2.00000
    116      -3.3386      2.00000
    117      -3.2649      2.00000
    118      -3.2622      2.00000
    119      -3.2521      2.00000
    120      -3.2093      2.00000
    121      -3.2040      2.00000
    122      -3.1851      2.00000
    123      -3.1830      2.00000
    124      -3.1384      2.00000
    125      -3.1364      2.00000
    126      -3.1174      2.00000
    127      -3.1025      2.00000
    128      -3.1002      2.00000
    129      -3.0923      2.00000
    130      -3.0898      2.00000
    131      -3.0821      2.00000
    132      -3.0818      2.00000
    133      -3.0764      2.00000
    134      -3.0680      2.00000
    135      -3.0668      2.00000
    136      -3.0634      2.00000
    137      -3.0331      2.00000
    138      -2.9381      2.00000
    139      -2.9318      2.00000
    140      -2.8931      2.00000
    141      -2.8824      2.00000
    142      -2.8799      2.00000
    143      -2.8761      2.00000
    144      -2.8754      2.00000
    145      -2.8666      2.00000
    146      -2.8629      2.00000
    147      -2.8618      2.00000
    148      -2.8566      2.00000
    149      -2.8500      2.00000
    150      -2.8371      2.00000
    151      -2.8330      2.00000
    152      -2.7952      2.00000
    153      -2.7811      2.00000
    154      -2.7788      2.00000
    155      -2.7784      2.00000
    156      -2.7699      2.00000
    157      -2.7687      2.00000
    158      -2.7668      2.00000
    159      -2.7274      2.00000
    160      -2.7264      2.00000
    161      -2.7198      2.00000
    162      -2.7050      2.00000
    163      -2.7029      2.00000
    164      -2.6791      2.00000
    165      -2.6770      2.00000
    166      -2.6769      2.00000
    167      -2.6753      2.00000
    168      -2.6600      2.00000
    169      -2.6525      2.00000
    170      -2.6322      2.00000
    171      -2.6319      2.00000
    172      -2.6311      2.00000
    173      -2.6085      2.00000
    174      -2.6058      2.00000
    175      -2.6045      2.00000
    176      -2.5639      2.00000
    177      -2.5635      2.00000
    178      -2.5142      2.00000
    179      -2.5141      2.00000
    180      -2.4812      2.00000
    181      -2.4800      2.00000
    182      -2.4673      2.00000
    183      -2.4553      2.00000
    184      -2.4068      2.00000
    185      -2.3731      2.00000
    186      -2.3725      2.00000
    187      -2.3545      2.00000
    188      -2.3494      2.00000
    189      -2.3141      2.00000
    190      -1.6290      2.00000
    191      -1.6210      2.00000
    192      -1.6136      2.00000
    193      -1.5588      2.00000
    194      -1.5571      2.00000
    195      -1.3750      2.00000
    196      -0.4358      2.00000
    197      -0.2698      2.00000
    198      -0.1458      2.00000
    199      -0.0370      2.00000
    200       0.0600      2.00000
    201       0.1274      2.00000
    202       0.1966      2.00000
    203       0.2573      2.00000
    204       0.3060      2.00000
    205       0.3399      1.17555
    206       0.3719      0.51186
    207       0.8620      0.00000
    208       1.3894      0.00000
    209       2.0487      0.00000
    210       2.3378      0.00000
    211       2.3877      0.00000
    212       2.5060      0.00000
    213       2.5446      0.00000
    214       2.8329      0.00000
    215       3.0685      0.00000
    216       3.3911      0.00000
    217       3.7387      0.00000
    218       3.7478      0.00000
    219       3.9020      0.00000
    220       3.9112      0.00000
    221       3.9248      0.00000
    222       4.0509      0.00000
    223       4.5927      0.00000
    224       4.6260      0.00000
    225       4.6916      0.00000
    226       4.7097      0.00000
    227       4.7260      0.00000
    228       4.7513      0.00000
    229       4.7640      0.00000
    230       4.8058      0.00000
    231       4.8611      0.00000
    232       4.9001      0.00000
    233       4.9967      0.00000
    234       5.0079      0.00000
    235       5.0789      0.00000
    236       5.4839      0.00000
    237       5.8017      0.00000
    238       6.0925      0.00000
    239       6.3003      0.00000
    240       6.3352      0.00000
    241       6.3661      0.00000
    242       6.4642      0.00000
    243       6.5826      0.00000
    244       6.6408      0.00000
    245       6.6454      0.00000
    246       6.6844      0.00000
    247       6.7017      0.00000
    248       6.7437      0.00000
    249       6.8051      0.00000
    250       6.9079      0.00000
    251       6.9425      0.00000
    252       6.9876      0.00000
    253       7.0268      0.00000
    254       7.0617      0.00000
    255       7.0893      0.00000
    256       7.2004      0.00000

 k-point     2 :       0.1250   -0.0000    0.0000
  band No.  band energies     occupation 
      1     -22.1717      2.00000
      2      -9.0933      2.00000
      3      -7.0468      2.00000
      4      -6.5438      2.00000
      5      -6.2940      2.00000
      6      -5.7237      2.00000
      7      -5.4779      2.00000
      8      -5.4274      2.00000
      9      -5.3985      2.00000
     10      -5.3786      2.00000
     11      -5.3644      2.00000
     12      -5.3622      2.00000
     13      -5.3516      2.00000
     14      -5.3429      2.00000
     15      -5.3356      2.00000
     16      -5.3281      2.00000
     17      -5.3177      2.00000
     18      -5.2631      2.00000
     19      -5.2599      2.00000
     20      -5.2491      2.00000
     21      -5.2342      2.00000
     22      -5.2084      2.00000
     23      -5.1990      2.00000
     24      -5.1158      2.00000
     25      -5.0946      2.00000
     26      -5.0852      2.00000
     27      -5.0445      2.00000
     28      -5.0343      2.00000
     29      -5.0227      2.00000
     30      -5.0208      2.00000
     31      -4.9732      2.00000
     32      -4.9667      2.00000
     33      -4.9285      2.00000
     34      -4.9227      2.00000
     35      -4.8929      2.00000
     36      -4.8876      2.00000
     37      -4.8814      2.00000
     38      -4.8336      2.00000
     39      -4.8168      2.00000
     40      -4.8132      2.00000
     41      -4.7885      2.00000
     42      -4.7784      2.00000
     43      -4.6834      2.00000
     44      -4.6573      2.00000
     45      -4.6493      2.00000
     46      -4.6442      2.00000
     47      -4.6305      2.00000
     48      -4.6265      2.00000
[...]
  0.000   0.000   0.000   0.000   0.000   0.000   0.000   0.000   0.000   0.000   0.000   0.000   0.000   0.000   0.000   0.000
  0.000   0.000   0.000   0.000   0.000   0.000   0.000   0.000   0.000   0.000   0.000   0.000   0.000   0.000   0.000   0.000
  0.000   0.000   0.000   0.000   0.000   0.000   0.000   0.000   0.000   0.000   1.000   0.000   0.000   0.000   0.000   0.000
  0.000   0.000   0.000   0.000   0.000   0.000   0.000   0.000   0.000   0.000   0.000   0.000   0.000   0.000   0.000   0.000
  0.000   0.000   0.000   0.000   0.000   0.000   0.000   0.000   0.000   0.000   0.000   0.000   0.000   0.000   0.000   0.000
  0.000   0.000   0.000   0.000   0.000   0.000   0.000   0.000   0.000   0.000   0.000   0.000   0.000   0.000   0.000   0.000
  0.000   0.000   0.000   0.000   0.000   0.000   0.000   0.000   0.000   0.000   0.000   0.000   0.000   0.000   0.000   0.000
  0.000   0.000   0.000   0.000   0.000   0.000   0.000   0.000   0.000   0.000   0.000   0.000   0.000   0.000   0.000   0.000
  0.000   0.000   0.000   0.000   0.000   0.000   0.000   0.000   0.000   0.000   0.000   0.000   0.000   0.000   0.000   0.000
  0.000   0.000   0.000   0.000   0.000   0.000   0.000   0.000   0.000   0.000   0.000   0.000   0.000   0.000   0.000   0.000


------------------------ aborting loop because EDIFF is reached ----------------------------------------





 total charge

# of ion       s       p       d       tot
------------------------------------------
    1        0.417   0.202   9.177   9.797
    2        0.417   0.204   9.177   9.798
    3        0.417   0.204   9.177   9.798
    4        0.417   0.203   9.177   9.797
    5        0.418   0.203   9.176   9.797
    6        0.417   0.203   9.177   9.797
    7        0.418   0.203   9.177   9.798
    8        0.418   0.203   9.177   9.798
    9        0.413   0.203   9.179   9.795
   10        0.406   0.268   9.164   9.839
   11        0.408   0.268   9.168   9.844
   12        0.406   0.268   9.164   9.839
   13        0.408   0.268   9.168   9.844
   14        0.408   0.268   9.168   9.844
   15        0.402   0.270   9.165   9.837
   16        0.406   0.269   9.164   9.839
   17        0.401   0.271   9.165   9.837
   18        0.401   0.271   9.165   9.837
   19        0.397   0.267   9.167   9.831
   20        0.425   0.293   9.148   9.866
   21        0.425   0.293   9.148   9.866
   22        0.397   0.275   9.166   9.838
   23        0.425   0.296   9.145   9.867
   24        0.397   0.275   9.166   9.838
   25        0.403   0.265   9.167   9.835
   26        0.403   0.265   9.167   9.835
   27        0.397   0.274   9.167   9.838
   28        0.414   0.195   9.179   9.788
   29        0.417   0.204   9.180   9.801
   30        0.417   0.204   9.180   9.801
   31        0.406   0.206   9.181   9.793
   32        0.406   0.206   9.181   9.793
   33        0.417   0.204   9.180   9.801
   34        0.417   0.204   9.180   9.801
   35        0.408   0.198   9.179   9.785
   36        0.347   0.340   6.394   7.081
   37        1.339   2.456   0.000   3.795
   38        1.339   2.456   0.000   3.795
--------------------------------------------------
tot         17.397  13.622 327.360 358.380
 
    CHARGE:  cpu time    0.9164: real time    0.9164
    FORLOC:  cpu time    0.0198: real time    0.0198
    FORNL :  cpu time    4.3195: real time    4.3196
    STRESS:  cpu time   13.0235: real time   13.0237
    FORCOR:  cpu time    0.0746: real time    0.0746
    FORHAR:  cpu time    0.0301: real time    0.0301
    OFIELD:  cpu time    0.0003: real time    0.0003

  FORCE on cell =-STRESS in cart. coord.  units (eV):
  Direction    XX          YY          ZZ          XY          YZ          ZX
  --------------------------------------------------------------------------------------
  Alpha Z   711.26060   711.26060   711.26060
  Ewald  149176.33809148852.75963************     0.00006     0.21435     0.00007
  Hartree159213.63035159089.10547************     0.00003     0.22036     0.00003
  E(xc)   -2109.93372 -2111.12430 -2115.87317     0.00002    -0.00494     0.00000
  Local  ************************319368.21112     0.00081    -0.49894    -0.00018
  n-local  -377.23999  -366.46166  -374.85257     2.35057     0.12322     0.13964
  augment  3259.34257  3258.79718  3267.02083    -0.00017    -0.06012     0.00004
  Kinetic  5022.76487  5036.75787  5061.18103     1.39401     0.11174    -0.01337
  Fock        0.00000     0.00000     0.00000     0.00000     0.00000     0.00000
  -------------------------------------------------------------------------------------
  Total      -7.47415    -7.37553    -0.69095    -0.00000     0.10567     0.00000
  in kB      -7.45262    -7.35429    -0.68896    -0.00000     0.10537     0.00000
  external pressure =       -5.17 kB  Pullay stress =        0.00 kB


 VOLUME and BASIS-vectors are now :
 -----------------------------------------------------------------------------
  energy-cutoff  :      500.00
  volume of cell :     1606.81
      direct lattice vectors                 reciprocal lattice vectors
     8.791366577  0.000000000  0.000000000     0.113747958 -0.065672414  0.000000000
     4.395683289  7.613546790  0.000000000     0.000000000  0.131344829  0.000000000
     0.000000000  0.000000000 24.006012529     0.000000000  0.000000000  0.041656231

  length of vectors
     8.791366577  8.791366577 24.006012529     0.131344829  0.131344829  0.041656231


 FORCES acting on ions
    electron-ion (+dipol)            ewald-force                    non-local-force                 convergence-correction
 -----------------------------------------------------------------------------------------------
   0.460E-04 -.165E-01 0.268E+04   -.954E-04 -.164E-01 -.267E+04   0.148E-12 0.225E-01 -.219E+01   -.163E-03 0.510E-02 -.502E-01
   0.544E+00 0.561E+00 0.268E+04   -.585E+00 -.612E+00 -.267E+04   0.436E-01 0.741E-01 -.160E+01   0.579E-03 -.133E-01 -.835E-01
   -.544E+00 0.561E+00 0.268E+04   0.585E+00 -.612E+00 -.267E+04   -.436E-01 0.741E-01 -.160E+01   -.107E-02 -.113E-01 -.827E-01
   0.697E+00 0.138E+00 0.268E+04   -.809E+00 -.207E+00 -.267E+04   0.123E+00 0.596E-02 -.162E+01   0.151E-02 0.590E-01 -.554E-01
   -.710E-05 -.399E-01 0.268E+04   0.981E-04 0.167E-02 -.268E+04   0.162E-12 0.246E-01 -.144E+01   0.628E-02 0.125E-01 -.191E-01
   -.697E+00 0.138E+00 0.268E+04   0.809E+00 -.207E+00 -.267E+04   -.123E+00 0.596E-02 -.162E+01   -.294E-02 0.599E-01 -.545E-01
   0.245E+00 -.691E+00 0.268E+04   -.223E+00 0.820E+00 -.267E+04   0.432E-01 -.991E-01 -.157E+01   -.512E-01 -.333E-01 -.437E-01
   -.245E+00 -.691E+00 0.268E+04   0.223E+00 0.820E+00 -.267E+04   -.432E-01 -.991E-01 -.157E+01   0.528E-01 -.344E-01 -.436E-01
   0.361E-04 0.468E-01 0.268E+04   0.792E-04 0.147E-01 -.267E+04   -.910E-13 -.139E-01 -.199E+01   -.664E-02 -.451E-01 -.116E+00
   0.539E+01 0.314E+01 0.932E+03   -.498E+01 -.300E+01 -.932E+03   -.379E+00 -.188E+00 -.713E+00   -.158E-01 0.527E-01 0.266E+00
   -.300E-04 0.657E+01 0.942E+03   0.417E-04 -.680E+01 -.942E+03   0.115E-11 0.176E+00 -.407E+00   0.665E-02 0.211E-02 0.233E+00
   -.539E+01 0.314E+01 0.932E+03   0.498E+01 -.300E+01 -.932E+03   0.379E+00 -.188E+00 -.713E+00   0.139E-01 0.539E-01 0.266E+00
   0.567E+01 -.334E+01 0.942E+03   -.577E+01 0.343E+01 -.942E+03   0.132E+00 -.112E+00 -.401E+00   -.595E-01 0.409E-01 0.211E+00
   -.567E+01 -.334E+01 0.942E+03   0.577E+01 0.343E+01 -.942E+03   -.132E+00 -.112E+00 -.401E+00   0.703E-01 0.398E-01 0.210E+00
   0.165E-04 0.125E+01 0.934E+03   -.109E-03 -.131E+01 -.933E+03   0.275E-12 0.419E-01 -.794E+00   -.185E-02 -.657E-02 0.241E+00
   -.792E-05 -.623E+01 0.932E+03   0.208E-04 0.578E+01 -.932E+03   0.313E-11 0.476E+00 -.759E+00   0.154E-04 -.482E-01 0.206E+00
   0.117E+01 -.608E+00 0.933E+03   -.121E+01 0.734E+00 -.933E+03   0.167E-01 -.510E-01 -.688E+00   0.896E-03 -.642E-01 0.219E+00
   -.117E+01 -.608E+00 0.933E+03   0.121E+01 0.734E+00 -.933E+03   -.167E-01 -.510E-01 -.688E+00   -.612E-03 -.619E-01 0.220E+00
   0.407E-04 0.252E+01 -.844E+03   -.129E-03 -.275E+01 0.842E+03   0.131E-11 0.200E+00 0.908E+00   -.645E-02 0.329E-01 0.380E+00
   0.290E+02 0.175E+02 -.793E+03   -.277E+02 -.168E+02 0.794E+03   -.121E+01 -.738E+00 -.104E+01   -.486E-01 -.309E-01 0.417E+00
   -.290E+02 0.175E+02 -.793E+03   0.277E+02 -.168E+02 0.794E+03   0.121E+01 -.738E+00 -.104E+01   0.500E-01 -.313E-01 0.417E+00
   0.121E+02 -.765E+01 -.829E+03   -.121E+02 0.786E+01 0.828E+03   0.179E+00 -.178E+00 0.518E+00   -.443E-01 -.517E-01 0.302E+00
   -.618E-04 -.347E+02 -.794E+03   0.455E-04 0.331E+02 0.795E+03   0.101E-10 0.154E+01 -.113E+01   0.734E-03 -.321E-02 0.392E+00
   -.121E+02 -.765E+01 -.829E+03   0.121E+02 0.786E+01 0.828E+03   -.179E+00 -.178E+00 0.518E+00   0.445E-01 -.534E-01 0.302E+00
   -.194E+01 -.787E+00 -.845E+03   0.201E+01 0.745E+00 0.844E+03   -.596E-01 -.107E-01 0.820E+00   -.182E-01 0.514E-01 0.415E+00
   0.195E+01 -.787E+00 -.845E+03   -.201E+01 0.745E+00 0.844E+03   0.596E-01 -.107E-01 0.820E+00   0.738E-02 0.500E-01 0.415E+00
   0.199E-04 0.138E+02 -.830E+03   0.109E-03 -.141E+02 0.829E+03   0.239E-11 0.363E+00 0.583E+00   0.102E-02 0.242E-01 0.354E+00
   0.541E-04 0.317E+01 -.260E+04   -.116E-03 -.318E+01 0.260E+04   -.149E-12 -.227E-01 0.187E+01   -.202E-03 0.137E-01 0.157E+00
   0.413E+02 0.804E+02 -.257E+04   -.408E+02 -.802E+02 0.257E+04   -.491E+00 -.346E+00 0.230E+01   -.915E-01 -.931E-01 0.120E+00
   -.413E+02 0.804E+02 -.257E+04   0.408E+02 -.802E+02 0.257E+04   0.491E+00 -.346E+00 0.230E+01   0.914E-01 -.919E-01 0.119E+00
   0.962E+02 -.281E+00 -.257E+04   -.963E+02 0.446E+00 0.256E+04   -.152E+00 -.103E+00 0.304E+01   -.649E-01 -.439E-01 0.925E-01
   -.962E+02 -.281E+00 -.257E+04   0.963E+02 0.446E+00 0.256E+04   0.152E+00 -.103E+00 0.304E+01   0.643E-01 -.435E-01 0.916E-01
   0.409E+02 -.798E+02 -.257E+04   -.406E+02 0.794E+02 0.257E+04   -.332E+00 0.481E+00 0.231E+01   -.834E-01 0.130E+00 0.117E+00
   -.409E+02 -.798E+02 -.257E+04   0.406E+02 0.794E+02 0.257E+04   0.332E+00 0.481E+00 0.231E+01   0.845E-01 0.129E+00 0.118E+00
   0.201E-04 -.298E+01 -.260E+04   0.107E-03 0.291E+01 0.260E+04   0.339E-12 0.516E-01 0.195E+01   -.634E-02 0.318E-01 0.217E+00
   -.291E-04 -.886E+00 -.158E+04   0.771E-04 0.866E+00 0.158E+04   0.824E-12 0.125E+00 0.317E+01   0.447E-02 -.213E-01 -.204E-01
   0.214E+03 -.838E-01 -.144E+04   -.254E+03 0.993E-01 0.145E+04   0.395E+02 -.679E-02 -.888E+01   -.796E-01 -.189E-01 0.869E-01
   -.214E+03 -.838E-01 -.144E+04   0.254E+03 0.993E-01 0.145E+04   -.395E+02 -.679E-02 -.888E+01   0.800E-01 -.188E-01 0.865E-01
 -----------------------------------------------------------------------------------------------
   0.461E-03 -.405E+00 0.918E+01   0.284E-13 -.538E-14 0.114E-11   0.286E-11 0.437E+00 -.153E+02   -.202E-02 -.308E-01 0.610E+01
 
 
 POSITION                                       TOTAL-FORCE (eV/Angst)
 -----------------------------------------------------------------------------------
      0.00000      0.00000      5.28219        -0.000000     -0.005211     -0.001047
      2.93046      0.00000      5.28219         0.003578      0.010315      0.046163
      5.86091      0.00000      5.28219        -0.003578      0.010315      0.046163
      1.46523      2.53785      5.28219         0.013177     -0.004441      0.039818
      4.39568      2.53785      5.28219        -0.000000     -0.001083      0.009630
      7.32614      2.53785      5.28219        -0.013177     -0.004441      0.039818
      2.93046      5.07570      5.28219         0.012839     -0.004214      0.034892
      5.86091      5.07570      5.28219        -0.012839     -0.004214      0.034892
      8.79137      5.07570      5.28219         0.000000      0.002492      0.024695
      1.46523      0.84595      7.67490         0.009915      0.008672      0.000066
      4.39568      0.84595      7.67490        -0.000000     -0.044947     -0.075264
      7.32614      0.84595      7.67490        -0.009915      0.008672      0.000066
      2.93046      3.38380      7.67490        -0.032626      0.022321     -0.061930
      5.86091      3.38380      7.67490         0.032626      0.022321     -0.061930
      8.79137      3.38380      7.67490        -0.000000     -0.023391     -0.007298
      4.39568      5.92165      7.67490        -0.000000     -0.024144      0.015058
      7.32614      5.92165      7.67490        -0.019515      0.011749      0.012282
     10.25659      5.92165      7.67490         0.019515      0.011749      0.012282
      8.79137      1.69341     10.06265         0.000000      0.001195      0.040287
      2.94295      1.69911     10.03964        -0.001996     -0.013933     -0.080510
      5.84841      1.69911     10.03964         0.001996     -0.013933     -0.080510
     10.25212      4.23233     10.05217         0.054420     -0.023503      0.000880
      4.39568      4.21532     10.03964        -0.000000     -0.017993     -0.063296
      7.33061      4.23233     10.05217        -0.054420     -0.023503      0.000880
     11.72051      6.76684     10.06265        -0.002793     -0.001932     -0.007287
      5.86222      6.76684     10.06265         0.002793     -0.001932     -0.007287
      8.79137      6.76243     10.05217         0.000000      0.040244     -0.014886
      0.00000      0.00000     12.42704        -0.000000     -0.021781      0.006866
      2.96539      0.06299     12.42777        -0.102896     -0.236068     -0.166183
      5.82597      0.06299     12.42777         0.102896     -0.236068     -0.166183
      1.53725      2.53661     12.42777        -0.253458      0.017741     -0.172968
      7.25412      2.53661     12.42777         0.253458      0.017741     -0.172968
      2.96754      5.01395     12.42777        -0.126016      0.219151     -0.166015
      5.82383      5.01395     12.42777         0.126016      0.219151     -0.166015
      8.79137      5.07570     12.42264         0.000000      0.019246      0.012057
      4.39568      2.53785     12.15183         0.000000      0.083934      1.062514
      3.80913      2.53123     14.08863         0.074129     -0.010137      0.016135
      4.98224      2.53123     14.08863        -0.074129     -0.010137      0.016135
 -----------------------------------------------------------------------------------
    total drift:                               -0.001557      0.000686      0.002213


--------------------------------------------------------------------------------------------------------



  FREE ENERGIE OF THE ION-ELECTRON SYSTEM (eV)
  ---------------------------------------------------
  free  energy   TOTEN  =      -111.21349490 eV

  energy  without entropy=     -111.21349490  energy(sigma->0) =     -111.21349490
 


--------------------------------------------------------------------------------------------------------


    POTLOK:  cpu time    0.0647: real time    0.0647


--------------------------------------------------------------------------------------------------------


 stress matrix after NEB project (eV)
     -7.47415     -0.00000      0.00000
     -0.00000     -7.37553      0.10567
      0.00000      0.10567     -0.69095
  FORCES: max atom, RMS     0.076539    0.017559
  FORCE total and by dimension    0.108243    0.074129
  Stress total and by dimension   10.524314    7.474152
     LOOP+:  cpu time  223.0986: real time  223.1084
 -----------------------------------------------------------------------------
|                                                                             |
|           W    W    AA    RRRRR   N    N  II  N    N   GGGG   !!!           |
|           W    W   A  A   R    R  NN   N  II  NN   N  G    G  !!!           |
|           W    W  A    A  R    R  N N  N  II  N N  N  G       !!!           |
|           W WW W  AAAAAA  RRRRR   N  N N  II  N  N N  G  GGG   !            |
|           WW  WW  A    A  R   R   N   NN  II  N   NN  G    G                |
|           W    W  A    A  R    R  N    N  II  N    N   GGGG   !!!           |
|                                                                             |
|     Tetrahedron method does not include variations of the Fermi             |
|     occupations, so forces and stress will be inaccurate. We suggest        |
|     using a different smearing scheme ISMEAR = 1 or 2 for metals in         |
|     relaxations.                                                            |
|                                                                             |
 -----------------------------------------------------------------------------

    4ORBIT:  cpu time    0.0000: real time    0.0000



 total charge

# of ion       s       p       d       tot
------------------------------------------
    1        0.417   0.202   9.177   9.797
    2        0.417   0.204   9.177   9.798
    3        0.417   0.204   9.177   9.798
    4        0.417   0.203   9.177   9.797
    5        0.418   0.203   9.176   9.797
    6        0.417   0.203   9.177   9.797
    7        0.418   0.203   9.177   9.798
    8        0.418   0.203   9.177   9.798
    9        0.413   0.203   9.179   9.795
   10        0.406   0.268   9.164   9.839
   11        0.408   0.268   9.168   9.844
   12        0.406   0.268   9.164   9.839
   13        0.408   0.268   9.168   9.844
   14        0.408   0.268   9.168   9.844
   15        0.402   0.270   9.165   9.837
   16        0.406   0.269   9.164   9.839
   17        0.401   0.271   9.165   9.837
   18        0.401   0.271   9.165   9.837
   19        0.397   0.267   9.167   9.831
   20        0.425   0.293   9.148   9.866
   21        0.425   0.293   9.148   9.866
   22        0.397   0.275   9.166   9.838
   23        0.425   0.296   9.145   9.867
   24        0.397   0.275   9.166   9.838
   25        0.403   0.265   9.167   9.835
   26        0.403   0.265   9.167   9.835
   27        0.397   0.274   9.167   9.838
   28        0.414   0.195   9.179   9.788
   29        0.417   0.204   9.180   9.801
   30        0.417   0.204   9.180   9.801
   31        0.406   0.206   9.181   9.793
   32        0.406   0.206   9.181   9.793
   33        0.417   0.204   9.180   9.801
   34        0.417   0.204   9.180   9.801
   35        0.408   0.198   9.179   9.785
   36        0.347   0.340   6.394   7.081
   37        1.339   2.456   0.000   3.795
   38        1.339   2.456   0.000   3.795
--------------------------------------------------
tot         17.397  13.622 327.360 358.380
 
 BZINTS: Fermi energy:    0.450468;  403.000000 electrons
         Band energy:-0.149705E+04;  BLOECHL correction:   -0.035524

 total amount of memory used by VASP MPI-rank0   299160. kBytes
=======================================================================

   base      :      30000. kBytes
   nonlr-proj:      15460. kBytes
   fftplans  :       6755. kBytes
   grid      :      23316. kBytes
   one-center:        590. kBytes
   wavefun   :     223039. kBytes
 
  
  
 General timing and accounting informations for this job:
 ========================================================
  
                  Total CPU time used (sec):      238.588
                            User time (sec):      230.221
                          System time (sec):        8.367
                         Elapsed time (sec):      238.950
  
                   Maximum memory used (kb):      569236.
                   Average memory used (kb):          N/A
  
                          Minor page faults:       100137
                          Major page faults:            0
                 Voluntary context switches:         5288
