 vasp.6.2.0 18Jan21 (build Jun 12 2021 23:27:24) complex                        
  
 executed on             LinuxIFC date 2022.05.28  00:47:19
 running on   28 total cores
 distrk:  each k-point on   28 cores,    1 groups
 distr:  one band on NCORE=   1 cores,   28 groups


--------------------------------------------------------------------------------------------------------


 INCAR:
   ISMEAR = -5
   SIGMA = 0.1
   ISPIN = 1
   EDIFF = 1.d-5
   EDIFFG = -0.01
   NSW = 0
   NELM = 150
   ENCUT = 500
   ISIF = 2
   IBRION = 2
   LREAL = Auto
   ALGO = Fast
   ICHARG = 11
   LORBIT = 10
   LCHARG = .F.
   LWAVE = .F.

 POTCAR:    PAW_PBE Au 04Oct2007                  
 POTCAR:    PAW_PBE Co 02Aug2007                  
 POTCAR:    PAW_PBE C 08Apr2002                   
 POTCAR:    PAW_PBE O 08Apr2002                   
 -----------------------------------------------------------------------------
|                                                                             |
|           W    W    AA    RRRRR   N    N  II  N    N   GGGG   !!!           |
|           W    W   A  A   R    R  NN   N  II  NN   N  G    G  !!!           |
|           W    W  A    A  R    R  N N  N  II  N N  N  G       !!!           |
|           W WW W  AAAAAA  RRRRR   N  N N  II  N  N N  G  GGG   !            |
|           WW  WW  A    A  R   R   N   NN  II  N   NN  G    G                |
|           W    W  A    A  R    R  N    N  II  N    N   GGGG   !!!           |
|                                                                             |
|     For optimal performance we recommend to set                             |
|       NCORE = 2 up to number-of-cores-per-socket                            |
|     NCORE specifies how many cores store one orbital (NPAR=cpu/NCORE).      |
|     This setting can greatly improve the performance of VASP for DFT.       |
|     The default, NCORE=1 might be grossly inefficient on modern             |
|     multi-core architectures or massively parallel machines. Do your        |
|     own testing! More info at https://www.vasp.at/wiki/index.php/NCORE      |
|     Unfortunately you need to use the default for GW and RPA                |
|     calculations (for HF NCORE is supported but not extensively tested      |
|     yet).                                                                   |
|                                                                             |
 -----------------------------------------------------------------------------

 POTCAR:    PAW_PBE Au 04Oct2007                  
   VRHFIN =Au: s1d10                                                                                
   LEXCH  = PE                                                                                      
   EATOM  =   926.0867 eV,   68.0654 Ry                                                             
                                                                                                    
   TITEL  = PAW_PBE Au 04Oct2007                                                                    
   LULTRA =        F    use ultrasoft PP ?                                                          
   IUNSCR =        1    unscreen: 0-lin 1-nonlin 2-no                                               
   RPACOR =    2.330    partial core radius                                                         
   POMASS =  196.966; ZVAL   =   11.000    mass and valenz                                          
   RCORE  =    2.500    outmost cutoff radius                                                       
   RWIGS  =    2.840; RWIGS  =    1.503    wigner-seitz radius (au A)                               
   ENMAX  =  229.943; ENMIN  =  172.457 eV                                                          
   ICORE  =        3    local potential                                                             
   LCOR   =        T    correct aug charges                                                         
   LPAW   =        T    paw PP                                                                      
   EAUG   =  356.670                                                                                
   DEXC   =    0.000                                                                                
   RMAX   =    2.562    core radius for proj-oper                                                   
   RAUG   =    1.300    factor for augmentation sphere                                              
   RDEP   =    2.598    radius for radial grids                                                     
   RDEPT  =    2.193    core radius for aug-charge                                                  
                                                                                                    
   Atomic configuration                                                                             
   16 entries                                                                                       
     n  l   j            E        occ.                                                              
     1  0  0.50    -80748.5001   2.0000                                                             
     2  0  0.50    -14244.7466   2.0000                                                             
     2  1  1.50    -12310.9591   6.0000                                                             
     3  0  0.50     -3362.1768   2.0000                                                             
     3  1  1.50     -2801.5463   6.0000                                                             
     3  2  2.50     -2203.8206  10.0000                                                             
     4  0  0.50      -729.8168   2.0000                                                             
     4  1  1.50      -546.0527   6.0000                                                             
     4  2  2.50      -325.7302  10.0000                                                             
     4  3  3.50       -81.1472  14.0000                                                             
     5  0  0.50      -108.3201   2.0000                                                             
     5  1  1.50       -59.7479   6.0000                                                             
     5  2  2.50        -6.8783  10.0000                                                             
     6  0  0.50        -5.7602   1.0000                                                             
     6  1  1.50        -6.8029   0.0000                                                             
     5  3  2.50        -1.3606   0.0000                                                             
   Description                                                                                      
     l       E           TYP  RCUT    TYP  RCUT                                                     
     2     -6.8782861     23  2.500                                                                 
     2     -8.2388687     23  2.500                                                                 
     0     -5.7601759     23  2.500                                                                 
     0     -0.8493231     23  2.500                                                                 
     1     -2.7211652     23  2.500                                                                 
     1     27.2116520     23  2.500                                                                 
     3     -1.3605826     23  2.500                                                                 
  local pseudopotential read in
  partial core-charges read in
  partial kinetic energy density read in
  atomic valenz-charges read in
  non local Contribution for L=           2  read in
    real space projection operators read in
  non local Contribution for L=           2  read in
    real space projection operators read in
  non local Contribution for L=           0  read in
    real space projection operators read in
  non local Contribution for L=           0  read in
    real space projection operators read in
  non local Contribution for L=           1  read in
    real space projection operators read in
  non local Contribution for L=           1  read in
    real space projection operators read in
    PAW grid and wavefunctions read in
 
   number of l-projection  operators is LMAX  =           6
   number of lm-projection operators is LMMAX =          18
 
 POTCAR:    PAW_PBE Co 02Aug2007                  
   VRHFIN =Co: d8 s1                                                                                
   LEXCH  = PE                                                                                      
   EATOM  =   813.3670 eV,   59.7808 Ry                                                             
                                                                                                    
   TITEL  = PAW_PBE Co 02Aug2007                                                                    
   LULTRA =        F    use ultrasoft PP ?                                                          
   IUNSCR =        1    unscreen: 0-lin 1-nonlin 2-no                                               
   RPACOR =    2.000    partial core radius                                                         
   POMASS =   58.933; ZVAL   =    9.000    mass and valenz                                          
   RCORE  =    2.300    outmost cutoff radius                                                       
   RWIGS  =    2.460; RWIGS  =    1.302    wigner-seitz radius (au A)                               
   ENMAX  =  267.968; ENMIN  =  200.976 eV                                                          
   RCLOC  =    1.203    cutoff for local pot                                                        
   LCOR   =        T    correct aug charges                                                         
   LPAW   =        T    paw PP                                                                      
   EAUG   =  477.818                                                                                
   DEXC   =    0.000                                                                                
   RMAX   =    2.360    core radius for proj-oper                                                   
   RAUG   =    1.300    factor for augmentation sphere                                              
   RDEP   =    2.393    radius for radial grids                                                     
   RDEPT  =    1.864    core radius for aug-charge                                                  
                                                                                                    
   Atomic configuration                                                                             
    9 entries                                                                                       
     n  l   j            E        occ.                                                              
     1  0  0.50     -7587.6674   2.0000                                                             
     2  0  0.50      -893.6084   2.0000                                                             
     2  1  1.50      -764.5805   6.0000                                                             
     3  0  0.50       -97.5973   2.0000                                                             
     3  1  1.50       -60.9648   6.0000                                                             
     3  2  2.50        -4.2382   8.0000                                                             
     4  0  0.50        -4.3746   1.0000                                                             
     4  1  1.50        -4.0817   0.0000                                                             
     4  3  2.50        -1.3606   0.0000                                                             
   Description                                                                                      
     l       E           TYP  RCUT    TYP  RCUT                                                     
     2     -4.2382362     23  2.300                                                                 
     2     -5.5988188     23  2.300                                                                 
     0     -4.3745797     23  2.300                                                                 
     0      5.7660125     23  2.300                                                                 
     1     -2.7211652     23  2.300                                                                 
     1     16.9860234     23  2.300                                                                 
  local pseudopotential read in
  partial core-charges read in
  partial kinetic energy density read in
  atomic valenz-charges read in
  non local Contribution for L=           2  read in
    real space projection operators read in
  non local Contribution for L=           2  read in
    real space projection operators read in
  non local Contribution for L=           0  read in
    real space projection operators read in
  non local Contribution for L=           0  read in
    real space projection operators read in
  non local Contribution for L=           1  read in
    real space projection operators read in
  non local Contribution for L=           1  read in
    real space projection operators read in
    PAW grid and wavefunctions read in
 
   number of l-projection  operators is LMAX  =           6
   number of lm-projection operators is LMMAX =          18
 
 POTCAR:    PAW_PBE C 08Apr2002                   
   VRHFIN =C: s2p2                                                                                  
   LEXCH  = PE                                                                                      
   EATOM  =   147.1560 eV,   10.8157 Ry                                                             
                                                                                                    
   TITEL  = PAW_PBE C 08Apr2002                                                                     
   LULTRA =        F    use ultrasoft PP ?                                                          
   IUNSCR =        1    unscreen: 0-lin 1-nonlin 2-no                                               
   RPACOR =    1.200    partial core radius                                                         
   POMASS =   12.011; ZVAL   =    4.000    mass and valenz                                          
   RCORE  =    1.500    outmost cutoff radius                                                       
   RWIGS  =    1.630; RWIGS  =    0.863    wigner-seitz radius (au A)                               
   ENMAX  =  400.000; ENMIN  =  300.000 eV                                                          
   ICORE  =        2    local potential                                                             
   LCOR   =        T    correct aug charges                                                         
   LPAW   =        T    paw PP                                                                      
   EAUG   =  644.873                                                                                
   DEXC   =    0.000                                                                                
   RMAX   =    1.529    core radius for proj-oper                                                   
   RAUG   =    1.300    factor for augmentation sphere                                              
   RDEP   =    1.501    radius for radial grids                                                     
   RDEPT  =    1.300    core radius for aug-charge                                                  
                                                                                                    
   Atomic configuration                                                                             
    4 entries                                                                                       
     n  l   j            E        occ.                                                              
     1  0  0.50      -273.3789   2.0000                                                             
     2  0  0.50       -13.7508   2.0000                                                             
     2  1  0.50        -5.2854   2.0000                                                             
     3  2  1.50        -5.4423   0.0000                                                             
   Description                                                                                      
     l       E           TYP  RCUT    TYP  RCUT                                                     
     0    -13.7508458     23  1.200                                                                 
     0     -8.2022199     23  1.200                                                                 
     1     -5.2854383     23  1.500                                                                 
     1     34.0145650     23  1.500                                                                 
     2     -5.4423304      7  1.500                                                                 
  local pseudopotential read in
  partial core-charges read in
  partial kinetic energy density read in
  atomic valenz-charges read in
  non local Contribution for L=           0  read in
    real space projection operators read in
  non local Contribution for L=           0  read in
    real space projection operators read in
  non local Contribution for L=           1  read in
    real space projection operators read in
  non local Contribution for L=           1  read in
    real space projection operators read in
    PAW grid and wavefunctions read in
 
   number of l-projection  operators is LMAX  =           4
   number of lm-projection operators is LMMAX =           8
 
 POTCAR:    PAW_PBE O 08Apr2002                   
   VRHFIN =O: s2p4                                                                                  
   LEXCH  = PE                                                                                      
   EATOM  =   432.3788 eV,   31.7789 Ry                                                             
                                                                                                    
   TITEL  = PAW_PBE O 08Apr2002                                                                     
   LULTRA =        F    use ultrasoft PP ?                                                          
   IUNSCR =        1    unscreen: 0-lin 1-nonlin 2-no                                               
   RPACOR =    1.200    partial core radius                                                         
   POMASS =   16.000; ZVAL   =    6.000    mass and valenz                                          
   RCORE  =    1.520    outmost cutoff radius                                                       
   RWIGS  =    1.550; RWIGS  =    0.820    wigner-seitz radius (au A)                               
   ENMAX  =  400.000; ENMIN  =  300.000 eV                                                          
   ICORE  =        2    local potential                                                             
   LCOR   =        T    correct aug charges                                                         
   LPAW   =        T    paw PP                                                                      
   EAUG   =  605.392                                                                                
   DEXC   =    0.000                                                                                
   RMAX   =    1.553    core radius for proj-oper                                                   
   RAUG   =    1.300    factor for augmentation sphere                                              
   RDEP   =    1.550    radius for radial grids                                                     
   RDEPT  =    1.329    core radius for aug-charge                                                  
                                                                                                    
   Atomic configuration                                                                             
    4 entries                                                                                       
     n  l   j            E        occ.                                                              
     1  0  0.50      -514.6923   2.0000                                                             
     2  0  0.50       -23.9615   2.0000                                                             
     2  1  0.50        -9.0305   4.0000                                                             
     3  2  1.50        -9.5241   0.0000                                                             
   Description                                                                                      
     l       E           TYP  RCUT    TYP  RCUT                                                     
     0    -23.9615318     23  1.200                                                                 
     0     -9.5240782     23  1.200                                                                 
     1     -9.0304911     23  1.520                                                                 
     1      8.1634956     23  1.520                                                                 
     2     -9.5240782      7  1.500                                                                 
  local pseudopotential read in
  partial core-charges read in
  partial kinetic energy density read in
  kinetic energy density of atom read in
  atomic valenz-charges read in
  non local Contribution for L=           0  read in
    real space projection operators read in
  non local Contribution for L=           0  read in
    real space projection operators read in
  non local Contribution for L=           1  read in
    real space projection operators read in
  non local Contribution for L=           1  read in
    real space projection operators read in
    PAW grid and wavefunctions read in
 
   number of l-projection  operators is LMAX  =           4
   number of lm-projection operators is LMMAX =           8
 
 Optimization of the real space projectors (new method)

 maximal supplied QI-value         = 15.12
 optimisation between [QCUT,QGAM] = [ 11.34, 22.83] = [ 36.00,145.93] Ry 
 Optimized for a Real-space Cutoff    1.39 Angstroem

   l    n(q)    QCUT    max X(q) W(low)/X(q) W(high)/X(q)  e(spline) 
   2      9    11.338    60.898    0.39E-03    0.42E-03    0.21E-06
   2      9    11.338    58.894    0.40E-03    0.42E-03    0.22E-06
   0      9    11.338   109.617    0.13E-03    0.20E-04    0.13E-06
   0      9    11.338    75.026    0.13E-03    0.20E-04    0.13E-06
   1      9    11.338    16.344    0.33E-04    0.24E-03    0.18E-06
   1      9    11.338    10.160    0.26E-04    0.19E-03    0.15E-06
 Optimization of the real space projectors (new method)

 maximal supplied QI-value         = 16.25
 optimisation between [QCUT,QGAM] = [ 11.38, 22.75] = [ 36.24,144.96] Ry 
 Optimized for a Real-space Cutoff    1.39 Angstroem

   l    n(q)    QCUT    max X(q) W(low)/X(q) W(high)/X(q)  e(spline) 
   2      8    11.376    65.824    0.20E-03    0.32E-04    0.13E-06
   2      8    11.376    61.429    0.20E-03    0.33E-04    0.14E-06
   0      9    11.376    56.174    0.76E-04    0.11E-03    0.19E-06
   0      9    11.376    31.263    0.69E-04    0.99E-04    0.17E-06
   1      9    11.376    19.828    0.35E-03    0.11E-03    0.12E-06
   1      9    11.376    15.139    0.29E-03    0.94E-04    0.10E-06
 Optimization of the real space projectors (new method)

 maximal supplied QI-value         = 25.13
 optimisation between [QCUT,QGAM] = [ 11.31, 22.87] = [ 35.82,146.48] Ry 
 Optimized for a Real-space Cutoff    1.00 Angstroem

   l    n(q)    QCUT    max X(q) W(low)/X(q) W(high)/X(q)  e(spline) 
   0      7    11.310   115.676    0.43E-03    0.13E-02    0.19E-06
   0      7    11.310    87.132    0.43E-03    0.13E-02    0.18E-06
   1      6    11.310     4.429    0.42E-03    0.74E-03    0.11E-06
   1      6    11.310     2.733    0.34E-03    0.55E-03    0.92E-07
 Optimization of the real space projectors (new method)

 maximal supplied QI-value         = 24.76
 optimisation between [QCUT,QGAM] = [ 11.39, 22.77] = [ 36.31,145.25] Ry 
 Optimized for a Real-space Cutoff    1.00 Angstroem

   l    n(q)    QCUT    max X(q) W(low)/X(q) W(high)/X(q)  e(spline) 
   0      7    11.387    20.381    0.39E-03    0.13E-02    0.15E-06
   0      7    11.387    15.268    0.42E-03    0.14E-02    0.17E-06
   1      6    11.387     5.964    0.41E-03    0.11E-02    0.17E-06
   1      6    11.387     5.382    0.39E-03    0.87E-03    0.15E-06
  PAW_PBE Au 04Oct2007                  :
 energy of atom  1       EATOM= -926.0867
 kinetic energy error for atom=    0.0042 (will be added to EATOM!!)
  PAW_PBE Co 02Aug2007                  :
 energy of atom  2       EATOM= -813.3670
 kinetic energy error for atom=    0.0028 (will be added to EATOM!!)
  PAW_PBE C 08Apr2002                   :
 energy of atom  3       EATOM= -147.1560
 kinetic energy error for atom=    0.0076 (will be added to EATOM!!)
  PAW_PBE O 08Apr2002                   :
 energy of atom  4       EATOM= -432.3788
 kinetic energy error for atom=    0.0224 (will be added to EATOM!!)
 
 
 POSCAR: Au-Co-CO2
  positions in direct lattice
  velocities in cartesian coordinates
 exchange correlation table for  LEXCH =        8
   RHO(1)=    0.500       N(1)  =     2000
   RHO(2)=  100.500       N(2)  =     4000

 VTST: version 3.2, (02/03/18)

 CHAIN: initializing optimizer
 
 OPT: Using VASP Conjugate-Gradient optimizer
 CHAIN: Read ICHAIN            0
 
 POSCAR: Au-Co-CO2
  positions in direct lattice
  velocities in cartesian coordinates
 


--------------------------------------------------------------------------------------------------------


 ion  position               nearest neighbor table
   1  0.000  0.000  0.204-  16 2.94  12 2.94   6 2.94   8 2.94   7 2.94   3 2.94  10 2.94   4 2.94
                             2 2.94
   2  0.333  0.000  0.204-   9 2.94  11 2.94  17 2.94  10 2.94   8 2.94   4 2.94   5 2.94   1 2.94
                             3 2.94
   3  0.667  0.000  0.204-   7 2.94  18 2.94  12 2.94   1 2.94  11 2.94   5 2.94   6 2.94   9 2.94
                             2 2.94
   4  0.000  0.333  0.204-  10 2.94   6 2.94   5 2.94  13 2.94   2 2.94  15 2.94   9 2.94   1 2.94
                             7 2.94
   5  0.333  0.333  0.204-  13 2.94   7 2.94  11 2.94   4 2.94   2 2.94  14 2.94   3 2.94   8 2.94
                             6 2.94
   6  0.667  0.333  0.204-  15 2.94  14 2.94   1 2.94  12 2.94   4 2.94   9 2.94   8 2.94   3 2.94
                             5 2.94
   7  0.000  0.667  0.204-  18 2.94   3 2.94  16 2.94   5 2.94   1 2.94  13 2.94   8 2.94   4 2.94
                             9 2.94
   8  0.333  0.667  0.204-   9 2.94  17 2.94   1 2.94   2 2.94  14 2.94  16 2.94   6 2.94   7 2.94
                             5 2.94
   9  0.667  0.667  0.204-   2 2.94   8 2.94  17 2.94   6 2.94  15 2.94   4 2.94   3 2.94  18 2.94
                             7 2.94
  10  0.111  0.111  0.297-  20 2.92  26 2.93  19 2.93  11 2.94  17 2.94   2 2.94   4 2.94   1 2.94
                            12 2.94  16 2.94  13 2.94  15 2.94
  11  0.444  0.111  0.297-  20 2.91  21 2.91  27 2.93  13 2.94   2 2.94  10 2.94  17 2.94   5 2.94
                             3 2.94  18 2.94  14 2.94  12 2.94
  12  0.778  0.111  0.297-  21 2.92  25 2.93  19 2.93  16 2.94  18 2.94   1 2.94  14 2.94  15 2.94
                             3 2.94   6 2.94  10 2.94  11 2.94
  13  0.111  0.444  0.297-  23 2.91  20 2.91  22 2.93   5 2.94  18 2.94  11 2.94   7 2.94   4 2.94
                            16 2.94  10 2.94  14 2.94  15 2.94
  14  0.444  0.444  0.297-  21 2.91  23 2.91  24 2.93  15 2.94   6 2.94  12 2.94   8 2.94  17 2.94
                             5 2.94  16 2.94  13 2.94  11 2.94
  15  0.778  0.444  0.297-  24 2.92  22 2.92  19 2.93  14 2.94   6 2.94  17 2.94  12 2.94   9 2.94
                             4 2.94  10 2.94  13 2.94  18 2.94
  16  0.111  0.778  0.297-  23 2.92  25 2.93  26 2.93  18 2.94  12 2.94   7 2.94   1 2.94   8 2.94
                            13 2.94  10 2.94  14 2.94  17 2.94
  17  0.444  0.778  0.297-  27 2.92  24 2.92  26 2.93   9 2.94  15 2.94   2 2.94  10 2.94  11 2.94
                             8 2.94  14 2.94  16 2.94  18 2.94
  18  0.778  0.778  0.297-  22 2.92  27 2.92  25 2.93  16 2.94   7 2.94  13 2.94  12 2.94   3 2.94
                            11 2.94   9 2.94  15 2.94  17 2.94
  19  0.889  0.222  0.390-  10 2.93  12 2.93  15 2.93  26 2.94  25 2.94  24 2.94  22 2.94  28 2.94
                            21 2.95  20 2.95  32 2.96  31 2.96
  20  0.223  0.223  0.389-  36 2.69  29 2.91  31 2.91  11 2.91  13 2.91  23 2.91  21 2.91  10 2.92
                            27 2.95  22 2.95  26 2.95  19 2.95
  21  0.554  0.223  0.389-  36 2.69  30 2.91  32 2.91  14 2.91  11 2.91  20 2.91  23 2.91  12 2.92
                            27 2.95  24 2.95  25 2.95  19 2.95
  22  0.887  0.557  0.389-  24 2.91  27 2.91  18 2.92  15 2.92  13 2.93  25 2.94  19 2.94  33 2.94
                            31 2.94  23 2.95  20 2.95  35 2.96
  23  0.223  0.554  0.389-  36 2.69  33 2.91  34 2.91  13 2.91  14 2.91  20 2.91  21 2.91  16 2.92
                            22 2.95  24 2.95  25 2.95  26 2.95
  24  0.557  0.557  0.389-  27 2.91  22 2.91  15 2.92  17 2.92  14 2.93  26 2.94  19 2.94  32 2.94
                            34 2.94  21 2.95  23 2.95  35 2.96
  25  0.889  0.889  0.390-  16 2.93  12 2.93  18 2.93  19 2.94  26 2.94  22 2.94  27 2.94  28 2.94
                            23 2.95  21 2.95  33 2.96  30 2.96
  26  0.222  0.889  0.390-  10 2.93  16 2.93  17 2.93  19 2.94  25 2.94  27 2.94  24 2.94  28 2.94
                            20 2.95  23 2.95  29 2.96  34 2.96
  27  0.557  0.887  0.389-  24 2.91  22 2.91  17 2.92  18 2.92  11 2.93  26 2.94  25 2.94  29 2.94
                            30 2.94  20 2.95  21 2.95  35 2.96
  28  0.000  0.000  0.483-  25 2.94  19 2.94  26 2.94  34 2.98  32 2.98  33 2.98  30 2.98  31 2.98
                            29 2.98
  29  0.334  0.008  0.482-  30 2.86  31 2.87  36 2.88  20 2.91  27 2.94  26 2.96  35 2.98  28 2.98
                            34 3.09
  30  0.658  0.008  0.482-  29 2.86  32 2.87  36 2.88  21 2.91  27 2.94  25 2.96  35 2.98  28 2.98
                            33 3.09
  31  0.008  0.334  0.482-  33 2.86  29 2.87  36 2.88  20 2.91  22 2.94  19 2.96  35 2.98  28 2.98
                            32 3.09
  32  0.658  0.334  0.482-  34 2.86  30 2.87  36 2.88  21 2.91  24 2.94  19 2.96  35 2.98  28 2.98
                            31 3.09
  33  0.008  0.658  0.482-  31 2.86  34 2.87  36 2.88  23 2.91  22 2.94  25 2.96  35 2.98  28 2.98
                            30 3.09
  34  0.334  0.658  0.482-  32 2.86  33 2.87  36 2.88  23 2.91  24 2.94  26 2.96  35 2.98  28 2.98
                            29 3.09
  35  0.667  0.667  0.483-  24 2.96  27 2.96  22 2.96  29 2.98  34 2.98  32 2.98  31 2.98  30 2.98
                            33 2.98
  36  0.333  0.333  0.470-  20 2.69  23 2.69  21 2.69  33 2.88  31 2.88  29 2.88  30 2.88  34 2.88
                            32 2.88
  37  0.342  0.333  0.622-  38 1.18  39 1.18
  38  0.208  0.333  0.619-  37 1.18
  39  0.475  0.333  0.625-  37 1.18
 
  LATTYP: Found a hexagonal cell.
 ALAT       =     8.8135128021
 C/A-ratio  =     2.9326781391
  
  Lattice vectors:
  
 A1 = (  -4.4067569092,  -7.6327256898,   0.0000000000)
 A2 = (   8.8135128021,   0.0000000000,   0.0000000000)
 A3 = (   0.0000000000,   0.0000000000,  25.8471963236)


Analysis of symmetry for initial positions (statically):
=====================================================================
 Subroutine PRICEL returns:
 Original cell was already a primitive cell.
 

 Routine SETGRP: Setting up the symmetry group for a 
 hexagonal supercell.


 Subroutine GETGRP returns: Found  1 space group operations
 (whereof  1 operations were pure point group operations)
 out of a pool of 24 trial point group operations.


The static configuration has the point symmetry C_1 .


Analysis of symmetry for dynamics (positions and initial velocities):
=====================================================================
 Subroutine PRICEL returns:
 Original cell was already a primitive cell.
 

 Routine SETGRP: Setting up the symmetry group for a 
 hexagonal supercell.


 Subroutine GETGRP returns: Found  1 space group operations
 (whereof  1 operations were pure point group operations)
 out of a pool of 24 trial point group operations.


The dynamic configuration has the point symmetry C_1 .


Analysis of constrained symmetry for selective dynamics:
=====================================================================
 Subroutine PRICEL returns:
 Original cell was already a primitive cell.
 

 Routine SETGRP: Setting up the symmetry group for a 
 hexagonal supercell.


 Subroutine GETGRP returns: Found  1 space group operations
 (whereof  1 operations were pure point group operations)
 out of a pool of 24 trial point group operations.


The constrained configuration has the point symmetry C_1 .


 Subroutine INISYM returns: Found  1 space group operations
 (whereof  1 operations are pure point group operations),
 and found     1 'primitive' translations


----------------------------------------------------------------------------------------

                                     Primitive cell                                     

  volume of cell :    1738.7700

  direct lattice vectors                    reciprocal lattice vectors
     8.813512802  0.000000000  0.000000000     0.113462137 -0.065507406  0.000000000
     4.406756909  7.632725690  0.000000000     0.000000000  0.131014796  0.000000000
     0.000000000  0.000000000 25.847196324     0.000000000  0.000000000  0.038688916

  length of vectors
     8.813512802  8.813512802 25.847196324     0.131014796  0.131014796  0.038688916

  position of ions in fractional coordinates (direct lattice)
     0.000000000  0.000000000  0.204292174
     0.333333343  0.000000000  0.204292174
     0.666666687  0.000000000  0.204292174
     1.000000000  0.333333343  0.204292174
     0.333333313  0.333333343  0.204292174
     0.666666687  0.333333343  0.204292174
     1.000000000  0.666666687  0.204292174
     0.333333343  0.666666687  0.204292174
     0.666666627  0.666666687  0.204292174
     0.111111119  0.111111112  0.297096596
     0.444444418  0.111111112  0.297096596
     0.777777791  0.111111112  0.297096596
     0.111111127  0.444444448  0.297096596
     0.444444478  0.444444448  0.297096596
     0.777777731  0.444444448  0.297096596
     0.111111090  0.777777791  0.297096596
     0.444444448  0.777777791  0.297096596
     0.777777851  0.777777791  0.297096596
     0.888949268  0.222101481  0.389664174
     0.223217136  0.223217121  0.388852730
     0.553565788  0.223217121  0.388852730
     0.886972908  0.556513576  0.389084454
     0.223217091  0.553565788  0.388852730
     0.556513576  0.556513576  0.389084454
     0.888949268  0.888949268  0.389664174
     0.222101511  0.888949268  0.389664174
     0.556513516  0.886972908  0.389084454
     0.000000000  0.000000000  0.482707911
     0.333506134  0.008416363  0.481900869
     0.658077533  0.008416363  0.481900869
     0.008416363  0.333506134  0.481900869
     0.658077533  0.333506134  0.481900869
     0.008416363  0.658077533  0.481900869
     0.333506134  0.658077533  0.481900869
     0.666666627  0.666666687  0.483254888
     0.333333313  0.333333343  0.470106288
     0.341616864  0.333357718  0.621895938
     0.208311191  0.333351490  0.619153579
     0.474906290  0.333419300  0.624588274

  ion indices of the primitive-cell ions
   primitive index   ion index
                 1           1
                 2           2
                 3           3
                 4           4
                 5           5
                 6           6
                 7           7
                 8           8
                 9           9
                10          10
                11          11
                12          12
                13          13
                14          14
                15          15
                16          16
                17          17
                18          18
                19          19
                20          20
                21          21
                22          22
                23          23
                24          24
                25          25
                26          26
                27          27
                28          28
                29          29
                30          30
                31          31
                32          32
                33          33
                34          34
                35          35
                36          36
                37          37
                38          38
                39          39

----------------------------------------------------------------------------------------

 
 
 KPOINTS: Automatic mesh                          

Automatic generation of k-mesh.
 Grid dimensions read from file:
 generate k-points for:    8    8    1

 Generating k-lattice:

  Cartesian coordinates                     Fractional coordinates (reciprocal lattice)
     0.014182767 -0.008188426  0.000000000     0.125000000 -0.000000000  0.000000000
     0.000000000  0.016376850  0.000000000     0.000000000  0.125000000  0.000000000
     0.000000000  0.000000000  0.038688916     0.000000000  0.000000000  1.000000000

  Length of vectors
     0.016376850  0.016376850  0.038688916

  Shift w.r.t. Gamma in fractional coordinates (k-lattice)
     0.000000000  0.000000000  0.000000000

 TETIRR: Found    192 inequivalent tetrahedra from      384
 
 Subroutine IBZKPT returns following result:
 ===========================================
 
 Found     34 irreducible k-points:
 
 Following reciprocal coordinates:
            Coordinates               Weight
  0.000000  0.000000  0.000000      1.000000
  0.125000 -0.000000  0.000000      2.000000
  0.125000  0.125000  0.000000      2.000000
  0.000000  0.125000  0.000000      2.000000
  0.250000 -0.000000  0.000000      2.000000
  0.250000  0.250000  0.000000      2.000000
  0.000000  0.250000  0.000000      2.000000
  0.375000 -0.000000  0.000000      2.000000
  0.375000  0.375000  0.000000      2.000000
  0.000000  0.375000  0.000000      2.000000
  0.500000 -0.000000  0.000000      1.000000
  0.500000  0.500000  0.000000      1.000000
  0.000000  0.500000  0.000000      1.000000
  0.250000  0.125000  0.000000      2.000000
  0.125000  0.250000  0.000000      2.000000
 -0.125000  0.125000  0.000000      2.000000
  0.375000  0.125000  0.000000      2.000000
  0.250000  0.375000  0.000000      2.000000
 -0.125000  0.250000  0.000000      2.000000
  0.250000 -0.125000  0.000000      2.000000
 -0.125000 -0.375000  0.000000      2.000000
 -0.375000 -0.250000  0.000000      2.000000
  0.500000  0.125000  0.000000      2.000000
  0.375000  0.500000  0.000000      2.000000
 -0.125000  0.375000  0.000000      2.000000
  0.375000 -0.125000  0.000000      2.000000
 -0.125000  0.500000  0.000000      2.000000
  0.500000 -0.375000  0.000000      2.000000
  0.500000  0.250000  0.000000      2.000000
  0.250000  0.500000  0.000000      2.000000
 -0.250000  0.250000  0.000000      2.000000
 -0.375000  0.250000  0.000000      2.000000
  0.375000 -0.375000  0.000000      2.000000
 -0.250000  0.375000  0.000000      2.000000
 
 Following cartesian coordinates:
            Coordinates               Weight
  0.000000  0.000000  0.000000      1.000000
  0.014183 -0.008188  0.000000      2.000000
  0.014183  0.008188  0.000000      2.000000
  0.000000  0.016377  0.000000      2.000000
  0.028366 -0.016377  0.000000      2.000000
  0.028366  0.016377  0.000000      2.000000
  0.000000  0.032754  0.000000      2.000000
  0.042548 -0.024565  0.000000      2.000000
  0.042548  0.024565  0.000000      2.000000
  0.000000  0.049131  0.000000      2.000000
  0.056731 -0.032754  0.000000      1.000000
  0.056731  0.032754  0.000000      1.000000
  0.000000  0.065507  0.000000      1.000000
  0.028366 -0.000000  0.000000      2.000000
  0.014183  0.024565  0.000000      2.000000
 -0.014183  0.024565  0.000000      2.000000
  0.042548 -0.008188  0.000000      2.000000
  0.028366  0.032754  0.000000      2.000000
 -0.014183  0.040942  0.000000      2.000000
  0.028366 -0.032754  0.000000      2.000000
 -0.014183 -0.040942  0.000000      2.000000
 -0.042548 -0.008188  0.000000      2.000000
  0.056731 -0.016377  0.000000      2.000000
  0.042548  0.040942  0.000000      2.000000
 -0.014183  0.057319  0.000000      2.000000
  0.042548 -0.040942  0.000000      2.000000
 -0.014183  0.073696  0.000000      2.000000
  0.056731 -0.081884  0.000000      2.000000
  0.056731 -0.000000  0.000000      2.000000
  0.028366  0.049131  0.000000      2.000000
 -0.028366  0.049131  0.000000      2.000000
 -0.042548  0.057319  0.000000      2.000000
  0.042548 -0.073696  0.000000      2.000000
 -0.028366  0.065507  0.000000      2.000000
 


--------------------------------------------------------------------------------------------------------




 Dimension of arrays:
   k-points           NKPTS =     34   k-points in BZ     NKDIM =     34   number of bands    NBANDS=    252
   number of dos      NEDOS =    301   number of ions     NIONS =     39
   non local maximal  LDIM  =      6   non local SUM 2l+1 LMDIM =     18
   total plane-waves  NPLWV = 331776
   max r-space proj   IRMAX =   2195   max aug-charges    IRDMAX=  11867
   dimension x,y,z NGX =    48 NGY =   48 NGZ =  144
   dimension x,y,z NGXF=    96 NGYF=   96 NGZF=  288
   support grid    NGXF=    96 NGYF=   96 NGZF=  288
   ions per type =              35   1   1   2
   NGX,Y,Z   is equivalent  to a cutoff of   9.05,  9.05,  9.26 a.u.
   NGXF,Y,Z  is equivalent  to a cutoff of  18.11, 18.11, 18.52 a.u.

 SYSTEM =  unknown system                          
 POSCAR =  Au-Co-CO2                               

 Startparameter for this run:
   NWRITE =      2    write-flag & timer
   PREC   = normal    normal or accurate (medium, high low for compatibility)
   ISTART =      0    job   : 0-new  1-cont  2-samecut
   ICHARG =     11    charge: 1-file 2-atom 10-const
   ISPIN  =      1    spin polarized calculation?
   LNONCOLLINEAR =      F non collinear calculations
   LSORBIT =      F    spin-orbit coupling
   INIWAV =      1    electr: 0-lowe 1-rand  2-diag
   LASPH  =      F    aspherical Exc in radial PAW
   METAGGA=      F    non-selfconsistent MetaGGA calc.

 Electronic Relaxation 1
   ENCUT  =  500.0 eV  36.75 Ry    6.06 a.u.  16.07 16.07 47.13*2*pi/ulx,y,z
   ENINI  =  500.0     initial cutoff
   ENAUG  =  644.9 eV  augmentation charge cutoff
   NELM   =    150;   NELMIN=  2; NELMDL= -5     # of ELM steps 
   EDIFF  = 0.1E-04   stopping-criterion for ELM
   LREAL  =      T    real-space projection
   NLSPLINE    = F    spline interpolate recip. space projectors
   LCOMPAT=      F    compatible to vasp.4.4
   GGA_COMPAT  = T    GGA compatible to vasp.4.4-vasp.4.6
   LMAXPAW     = -100 max onsite density
   LMAXMIX     =    2 max onsite mixed and CHGCAR
   VOSKOWN=      0    Vosko Wilk Nusair interpolation
   ROPT   =   -0.00050  -0.00050  -0.00050  -0.00050
 Ionic relaxation
   EDIFFG = -.1E-01   stopping-criterion for IOM
   NSW    =      0    number of steps for IOM
   NBLOCK =      1;   KBLOCK =      1    inner block; outer block 
   IBRION =     -1    ionic relax: 0-MD 1-quasi-New 2-CG
   NFREE  =      1    steps in history (QN), initial steepest desc. (CG)
   ISIF   =      2    stress and relaxation
   IWAVPR =     10    prediction:  0-non 1-charg 2-wave 3-comb
   ISYM   =      2    0-nonsym 1-usesym 2-fastsym
   LCORR  =      T    Harris-Foulkes like correction to forces

   POTIM  = 0.5000    time-step for ionic-motion
   TEIN   =    0.0    initial temperature
   TEBEG  =    0.0;   TEEND  =   0.0 temperature during run
   SMASS  =  -3.00    Nose mass-parameter (am)
   estimated Nose-frequenzy (Omega)   =  0.10E-29 period in steps = 0.13E+47 mass=  -0.178E-26a.u.
   SCALEE = 1.0000    scale energy and forces
   NPACO  =    256;   APACO  = 16.0  distance and # of slots for P.C.
   PSTRESS=    0.0 pullay stress

  Mass of Ions in am
   POMASS = 196.97 58.93 12.01 16.00
  Ionic Valenz
   ZVAL   =  11.00  9.00  4.00  6.00
  Atomic Wigner-Seitz radii
   RWIGS  =  -1.00 -1.00 -1.00 -1.00
  virtual crystal weights 
   VCA    =   1.00  1.00  1.00  1.00
   NELECT =     410.0000    total number of electrons
   NUPDOWN=      -1.0000    fix difference up-down

 DOS related values:
   EMIN   =  10.00;   EMAX   =-10.00  energy-range for DOS
   EFERMI =   0.00
   ISMEAR =    -5;   SIGMA  =   0.10  broadening in eV -4-tet -1-fermi 0-gaus

 Electronic relaxation 2 (details)
   IALGO  =     68    algorithm
   LDIAG  =      T    sub-space diagonalisation (order eigenvalues)
   LSUBROT=      F    optimize rotation matrix (better conditioning)
   TURBO    =      0    0=normal 1=particle mesh
   IRESTART =      0    0=no restart 2=restart with 2 vectors
   NREBOOT  =      0    no. of reboots
   NMIN     =      0    reboot dimension
   EREF     =   0.00    reference energy to select bands
   IMIX   =      4    mixing-type and parameters
     AMIX     =   0.40;   BMIX     =  1.00
     AMIX_MAG =   1.60;   BMIX_MAG =  1.00
     AMIN     =   0.10
     WC   =   100.;   INIMIX=   1;  MIXPRE=   1;  MAXMIX= -45

 Intra band minimization:
   WEIMIN = 0.0000     energy-eigenvalue tresh-hold
   EBREAK =  0.99E-08  absolut break condition
   DEPER  =   0.30     relativ break condition  

   TIME   =   0.40     timestep for ELM

  volume/ion in A,a.u.               =      44.58       300.87
  Fermi-wavevector in a.u.,A,eV,Ry     =   1.011398  1.911265 13.917751  1.022926
  Thomas-Fermi vector in A             =   2.144445
 
 Write flags
   LWAVE        =      F    write WAVECAR
   LDOWNSAMPLE  =      F    k-point downsampling of WAVECAR
   LCHARG       =      F    write CHGCAR
   LVTOT        =      F    write LOCPOT, total local potential
   LVHAR        =      F    write LOCPOT, Hartree potential only
   LELF         =      F    write electronic localiz. function (ELF)
   LORBIT       =     10    0 simple, 1 ext, 2 COOP (PROOUT), +10 PAW based schemes


 Dipole corrections
   LMONO  =      F    monopole corrections only (constant potential shift)
   LDIPOL =      F    correct potential (dipole corrections)
   IDIPOL =      0    1-x, 2-y, 3-z, 4-all directions 
   EPSILON=  1.0000000 bulk dielectric constant

 Exchange correlation treatment:
   GGA     =    --    GGA type
   LEXCH   =     8    internal setting for exchange type
   VOSKOWN=      0    Vosko Wilk Nusair interpolation
   LHFCALC =     F    Hartree Fock is set to
   LHFONE  =     F    Hartree Fock one center treatment
   AEXX    =    0.0000 exact exchange contribution

 Linear response parameters
   LEPSILON=     F    determine dielectric tensor
   LRPA    =     F    only Hartree local field effects (RPA)
   LNABLA  =     F    use nabla operator in PAW spheres
   LVEL    =     F    velocity operator in full k-point grid
   LINTERFAST=   F  fast interpolation
   KINTER  =     0    interpolate to denser k-point grid
   CSHIFT  =0.1000    complex shift for real part using Kramers Kronig
   OMEGAMAX=  -1.0    maximum frequency
   DEG_THRESHOLD= 0.2000000E-02 threshold for treating states as degnerate
   RTIME   =   -0.100 relaxation time in fs
  (WPLASMAI=    0.000 imaginary part of plasma frequency in eV, 0.658/RTIME)
   DFIELD  = 0.0000000 0.0000000 0.0000000 field for delta impulse in time
 
 Orbital magnetization related:
   ORBITALMAG=     F  switch on orbital magnetization
   LCHIMAG   =     F  perturbation theory with respect to B field
   DQ        =  0.001000  dq finite difference perturbation B field
   LLRAUG    =     F  two centre corrections for induced B field



--------------------------------------------------------------------------------------------------------


 Static calculation
 charge density and potential remain constant during run
 non-spin polarized calculation
 RMM-DIIS sequential band-by-band and
  variant of blocked Davidson during initial phase
 perform sub-space diagonalisation
    before iterative eigenvector-optimisation
 no mixing
 using additional bands           47
 real space projection scheme for non local part
 use partial core corrections
 calculate Harris-corrections to forces 
   (improved forces if not selfconsistent)
 use gradient corrections 
 WARNING: stress and forces are not correct
  (second derivative of E(xc) not defined)
 use of overlap-Matrix (Vanderbilt PP)
 Fermi weights with tetrahedron method with Bloechl corrections


--------------------------------------------------------------------------------------------------------


  energy-cutoff  :      500.00
  volume of cell :     1738.77
      direct lattice vectors                 reciprocal lattice vectors
     8.813512802  0.000000000  0.000000000     0.113462137 -0.065507406  0.000000000
     4.406756909  7.632725690  0.000000000     0.000000000  0.131014796  0.000000000
     0.000000000  0.000000000 25.847196324     0.000000000  0.000000000  0.038688916

  length of vectors
     8.813512802  8.813512802 25.847196324     0.131014796  0.131014796  0.038688916


 
 k-points in units of 2pi/SCALE and weight: Automatic mesh                          
   0.00000000  0.00000000  0.00000000       0.016
   0.01418277 -0.00818843  0.00000000       0.031
   0.01418277  0.00818842  0.00000000       0.031
   0.00000000  0.01637685  0.00000000       0.031
   0.02836553 -0.01637685  0.00000000       0.031
   0.02836553  0.01637685  0.00000000       0.031
   0.00000000  0.03275370  0.00000000       0.031
   0.04254830 -0.02456528  0.00000000       0.031
   0.04254830  0.02456527  0.00000000       0.031
   0.00000000  0.04913055  0.00000000       0.031
   0.05673107 -0.03275370  0.00000000       0.016
   0.05673107  0.03275370  0.00000000       0.016
   0.00000000  0.06550740  0.00000000       0.016
   0.02836553 -0.00000000  0.00000000       0.031
   0.01418277  0.02456527  0.00000000       0.031
  -0.01418277  0.02456528  0.00000000       0.031
   0.04254830 -0.00818843  0.00000000       0.031
   0.02836553  0.03275370  0.00000000       0.031
  -0.01418277  0.04094212  0.00000000       0.031
   0.02836553 -0.03275370  0.00000000       0.031
  -0.01418277 -0.04094212  0.00000000       0.031
  -0.04254830 -0.00818842  0.00000000       0.031
   0.05673107 -0.01637685  0.00000000       0.031
   0.04254830  0.04094212  0.00000000       0.031
  -0.01418277  0.05731897  0.00000000       0.031
   0.04254830 -0.04094213  0.00000000       0.031
  -0.01418277  0.07369582  0.00000000       0.031
   0.05673107 -0.08188425  0.00000000       0.031
   0.05673107 -0.00000000  0.00000000       0.031
   0.02836553  0.04913055  0.00000000       0.031
  -0.02836553  0.04913055  0.00000000       0.031
  -0.04254830  0.05731898  0.00000000       0.031
   0.04254830 -0.07369583  0.00000000       0.031
  -0.02836553  0.06550740  0.00000000       0.031
 
 k-points in reciprocal lattice and weights: Automatic mesh                          
   0.00000000  0.00000000  0.00000000       0.016
   0.12500000 -0.00000000  0.00000000       0.031
   0.12500000  0.12500000  0.00000000       0.031
   0.00000000  0.12500000  0.00000000       0.031
   0.25000000 -0.00000000  0.00000000       0.031
   0.25000000  0.25000000  0.00000000       0.031
   0.00000000  0.25000000  0.00000000       0.031
   0.37500000 -0.00000000  0.00000000       0.031
   0.37500000  0.37500000  0.00000000       0.031
   0.00000000  0.37500000  0.00000000       0.031
   0.50000000 -0.00000000  0.00000000       0.016
   0.50000000  0.50000000  0.00000000       0.016
   0.00000000  0.50000000  0.00000000       0.016
   0.25000000  0.12500000  0.00000000       0.031
   0.12500000  0.25000000  0.00000000       0.031
  -0.12500000  0.12500000  0.00000000       0.031
   0.37500000  0.12500000  0.00000000       0.031
   0.25000000  0.37500000  0.00000000       0.031
  -0.12500000  0.25000000  0.00000000       0.031
   0.25000000 -0.12500000  0.00000000       0.031
  -0.12500000 -0.37500000  0.00000000       0.031
  -0.37500000 -0.25000000  0.00000000       0.031
   0.50000000  0.12500000  0.00000000       0.031
   0.37500000  0.50000000  0.00000000       0.031
  -0.12500000  0.37500000  0.00000000       0.031
   0.37500000 -0.12500000  0.00000000       0.031
  -0.12500000  0.50000000  0.00000000       0.031
   0.50000000 -0.37500000  0.00000000       0.031
   0.50000000  0.25000000  0.00000000       0.031
   0.25000000  0.50000000  0.00000000       0.031
  -0.25000000  0.25000000  0.00000000       0.031
  -0.37500000  0.25000000  0.00000000       0.031
   0.37500000 -0.37500000  0.00000000       0.031
  -0.25000000  0.37500000  0.00000000       0.031
 
 position of ions in fractional coordinates (direct lattice) 
   0.00000000  0.00000000  0.20429217
   0.33333334  0.00000000  0.20429217
   0.66666669  0.00000000  0.20429217
   0.00000000  0.33333334  0.20429217
   0.33333331  0.33333334  0.20429217
   0.66666669  0.33333334  0.20429217
   0.00000000  0.66666669  0.20429217
   0.33333334  0.66666669  0.20429217
   0.66666663  0.66666669  0.20429217
   0.11111112  0.11111111  0.29709660
   0.44444442  0.11111111  0.29709660
   0.77777779  0.11111111  0.29709660
   0.11111113  0.44444445  0.29709660
   0.44444448  0.44444445  0.29709660
   0.77777773  0.44444445  0.29709660
   0.11111109  0.77777779  0.29709660
   0.44444445  0.77777779  0.29709660
   0.77777785  0.77777779  0.29709660
   0.88894927  0.22210148  0.38966417
   0.22321714  0.22321712  0.38885273
   0.55356579  0.22321712  0.38885273
   0.88697291  0.55651358  0.38908445
   0.22321709  0.55356579  0.38885273
   0.55651358  0.55651358  0.38908445
   0.88894927  0.88894927  0.38966417
   0.22210151  0.88894927  0.38966417
   0.55651352  0.88697291  0.38908445
   0.00000000  0.00000000  0.48270791
   0.33350613  0.00841636  0.48190087
   0.65807753  0.00841636  0.48190087
   0.00841636  0.33350613  0.48190087
   0.65807753  0.33350613  0.48190087
   0.00841636  0.65807753  0.48190087
   0.33350613  0.65807753  0.48190087
   0.66666663  0.66666669  0.48325489
   0.33333331  0.33333334  0.47010629
   0.34161686  0.33335772  0.62189594
   0.20831119  0.33335149  0.61915358
   0.47490629  0.33341930  0.62458827
 
 position of ions in cartesian coordinates  (Angst):
   0.00000000  0.00000000  5.28037993
   2.93783769  0.00000000  5.28037993
   5.87567538  0.00000000  5.28037993
   1.46891901  2.54424197  5.28037993
   4.40675643  2.54424197  5.28037993
   7.34459439  2.54424197  5.28037993
   2.93783803  5.08848395  5.28037993
   5.87567571  5.08848395  5.28037993
   8.81351288  5.08848395  5.28037993
   1.46891893  0.84808064  7.67911405
   4.40675623  0.84808064  7.67911405
   7.34459418  0.84808064  7.67911405
   2.93783798  3.39232256  7.67911405
   5.87567574  3.39232256  7.67911405
   8.81351263  3.39232256  7.67911405
   4.40675667  5.93656453  7.67911405
   7.34459449  5.93656453  7.67911405
  10.28243270  5.93656453  7.67911405
   8.81351299  1.69523968 10.07172640
   2.95099067  1.70375505 10.05075287
   5.86252275  1.70375505 10.05075287
  10.26976713  4.24771547 10.05674227
   4.40675655  4.22521581 10.05075287
   7.35725957  4.24771547 10.05674227
  11.75214908  6.78510591 10.07172640
   5.87487783  6.78510591 10.07172640
   8.81351299  6.77002090 10.05674227
   0.00000000  0.00000000 12.47664615
   2.97644944  0.06423979 12.45578638
   5.83706363  0.06423979 12.45578638
   1.54385818  2.54556083 12.45578638
   7.26965522  2.54556083 12.45578638
   2.97416544  5.02292529 12.45578638
   5.83934829  5.02292529 12.45578638
   8.81351288  5.08848395 12.49078397
   4.40675643  2.54424197 12.15092953
   4.47987103  2.54442802 16.07426641
   3.30495234  2.54438048 16.00338412
   5.65489047  2.54489805 16.14385575
 


--------------------------------------------------------------------------------------------------------


 k-point   1 :   0.0000 0.0000 0.0000  plane waves:   44129
 k-point   2 :   0.1250-0.0000 0.0000  plane waves:   44088
 k-point   3 :   0.1250 0.1250 0.0000  plane waves:   44088
 k-point   4 :   0.0000 0.1250 0.0000  plane waves:   44088
 k-point   5 :   0.2500-0.0000 0.0000  plane waves:   44134
 k-point   6 :   0.2500 0.2500 0.0000  plane waves:   44134
 k-point   7 :   0.0000 0.2500 0.0000  plane waves:   44134
 k-point   8 :   0.3750-0.0000 0.0000  plane waves:   44162
 k-point   9 :   0.3750 0.3750 0.0000  plane waves:   44162
 k-point  10 :   0.0000 0.3750 0.0000  plane waves:   44162
 k-point  11 :   0.5000-0.0000 0.0000  plane waves:   44092
 k-point  12 :   0.5000 0.5000 0.0000  plane waves:   44092
 k-point  13 :   0.0000 0.5000 0.0000  plane waves:   44092
 k-point  14 :   0.2500 0.1250 0.0000  plane waves:   44088
 k-point  15 :   0.1250 0.2500 0.0000  plane waves:   44088
 k-point  16 :  -0.1250 0.1250 0.0000  plane waves:   44088
 k-point  17 :   0.3750 0.1250 0.0000  plane waves:   44158
 k-point  18 :   0.2500 0.3750 0.0000  plane waves:   44158
 k-point  19 :  -0.1250 0.2500 0.0000  plane waves:   44158
 k-point  20 :   0.2500-0.1250 0.0000  plane waves:   44158
 k-point  21 :  -0.1250-0.3750 0.0000  plane waves:   44158
 k-point  22 :  -0.3750-0.2500 0.0000  plane waves:   44158
 k-point  23 :   0.5000 0.1250 0.0000  plane waves:   44162
 k-point  24 :   0.3750 0.5000 0.0000  plane waves:   44162
 k-point  25 :  -0.1250 0.3750 0.0000  plane waves:   44162
 k-point  26 :   0.3750-0.1250 0.0000  plane waves:   44162
 k-point  27 :  -0.1250 0.5000 0.0000  plane waves:   44162
 k-point  28 :   0.5000-0.3750 0.0000  plane waves:   44162
 k-point  29 :   0.5000 0.2500 0.0000  plane waves:   44178
 k-point  30 :   0.2500 0.5000 0.0000  plane waves:   44178
 k-point  31 :  -0.2500 0.2500 0.0000  plane waves:   44178
 k-point  32 :  -0.3750 0.2500 0.0000  plane waves:   44150
 k-point  33 :   0.3750-0.3750 0.0000  plane waves:   44150
 k-point  34 :  -0.2500 0.3750 0.0000  plane waves:   44150

 maximum and minimum number of plane-waves per node :     44178    44088

 maximum number of plane-waves:     44178
 maximum index in each direction: 
   IXMAX=   16   IYMAX=   16   IZMAX=   47
   IXMIN=  -16   IYMIN=  -16   IZMIN=  -47


 serial   3D FFT for wavefunctions
 parallel 3D FFT for charge:
    minimum data exchange during FFTs selected (reduces bandwidth)


 total amount of memory used by VASP MPI-rank0   289931. kBytes
=======================================================================

   base      :      30000. kBytes
   nonlr-proj:      13450. kBytes
   fftplans  :       4948. kBytes
   grid      :      21313. kBytes
   one-center:        606. kBytes
   wavefun   :     219614. kBytes
 
     INWAV:  cpu time    0.0001: real time    0.0001
 initial charge density was supplied:
 number of electron     410.0000188 magnetization 
 keeping initial charge density in first step


--------------------------------------------------------------------------------------------------------


 Maximum index for non-local projection operator         2098
 Maximum index for augmentation-charges          842 (set IRDMAX)


--------------------------------------------------------------------------------------------------------


 First call to EWALD:  gamma=   0.147
 Maximum number of real-space cells 4x 4x 2
 Maximum number of reciprocal cells 2x 2x 5

    FEWALD:  cpu time    0.0013: real time    0.0014


--------------------------------------- Iteration      1(   1)  ---------------------------------------


    POTLOK:  cpu time    0.0490: real time    0.0493
    SETDIJ:  cpu time    0.0050: real time    0.0050
     EDDAV:  cpu time   27.1817: real time   27.1831
 BZINTS: Fermi energy:   10.872039;  410.000000 electrons
         Band energy: 0.131836E+04;  BLOECHL correction:   -0.008844
       DOS:  cpu time    0.0606: real time    0.0607
    --------------------------------------------
      LOOP:  cpu time   27.2963: real time   27.2981

 eigenvalue-minimisations  : 17136
 total energy-change (2. order) : 0.2806191E+04  (-0.1817691E+05)
 number of electron     410.0000188 magnetization 
 augmentation part      410.0000188 magnetization 

 Free energy of the ion-electron system (eV)
  ---------------------------------------------------
  alpha Z        PSCENC =       900.77247927
  Ewald energy   TEWEN  =    147080.59131487
  -Hartree energ DENC   =   -182006.58429442
  -exchange      EXHF   =         0.00000000
  -V(xc)+E(xc)   XCENC  =       602.50874381
  PAW double counting   =     37488.19694604   -36815.77049924
  entropy T*S    EENTRO =         0.00000000
  eigenvalues    EBANDS =      1318.36422175
  atomic energy  EATOM  =     34238.11167534
  Solvation  Ediel_sol  =         0.00000000
  ---------------------------------------------------
  free energy    TOTEN  =      2806.19058743 eV

  energy without entropy =     2806.19058743  energy(sigma->0) =     2806.19058743


--------------------------------------------------------------------------------------------------------




--------------------------------------- Iteration      1(   2)  ---------------------------------------


     EDDAV:  cpu time   29.7287: real time   29.7290
 BZINTS: Fermi energy:    0.812332;  410.000000 electrons
         Band energy:-0.144511E+04;  BLOECHL correction:   -0.068747
       DOS:  cpu time    0.0554: real time    0.0554
    --------------------------------------------
      LOOP:  cpu time   29.7841: real time   29.7843

 eigenvalue-minimisations  : 19208
 total energy-change (2. order) :-0.2763476E+04  (-0.2576426E+04)
 number of electron     410.0000188 magnetization 
 augmentation part      410.0000188 magnetization 

 Free energy of the ion-electron system (eV)
  ---------------------------------------------------
  alpha Z        PSCENC =       900.77247927
  Ewald energy   TEWEN  =    147080.59131487
  -Hartree energ DENC   =   -182006.58429442
  -exchange      EXHF   =         0.00000000
  -V(xc)+E(xc)   XCENC  =       602.50874381
  PAW double counting   =     37488.19694604   -36815.77049924
  entropy T*S    EENTRO =         0.00000000
  eigenvalues    EBANDS =     -1445.11187977
  atomic energy  EATOM  =     34238.11167534
  Solvation  Ediel_sol  =         0.00000000
  ---------------------------------------------------
  free energy    TOTEN  =        42.71448591 eV

  energy without entropy =       42.71448591  energy(sigma->0) =       42.71448591


--------------------------------------------------------------------------------------------------------




--------------------------------------- Iteration      1(   3)  ---------------------------------------


     EDDAV:  cpu time   31.5552: real time   31.5552
 BZINTS: Fermi energy:   -0.025396;  410.000000 electrons
         Band energy:-0.161923E+04;  BLOECHL correction:   -0.077453
       DOS:  cpu time    0.0557: real time    0.0557
    --------------------------------------------
      LOOP:  cpu time   31.6109: real time   31.6108

 eigenvalue-minimisations  : 20608
 total energy-change (2. order) :-0.1741165E+03  (-0.1698275E+03)
 number of electron     410.0000188 magnetization 
 augmentation part      410.0000188 magnetization 

 Free energy of the ion-electron system (eV)
  ---------------------------------------------------
  alpha Z        PSCENC =       900.77247927
  Ewald energy   TEWEN  =    147080.59131487
  -Hartree energ DENC   =   -182006.58429442
  -exchange      EXHF   =         0.00000000
  -V(xc)+E(xc)   XCENC  =       602.50874381
  PAW double counting   =     37488.19694604   -36815.77049924
  entropy T*S    EENTRO =         0.00000000
  eigenvalues    EBANDS =     -1619.22842571
  atomic energy  EATOM  =     34238.11167534
  Solvation  Ediel_sol  =         0.00000000
  ---------------------------------------------------
  free energy    TOTEN  =      -131.40206003 eV

  energy without entropy =     -131.40206003  energy(sigma->0) =     -131.40206003


--------------------------------------------------------------------------------------------------------




--------------------------------------- Iteration      1(   4)  ---------------------------------------


     EDDAV:  cpu time   29.7533: real time   29.7531
 BZINTS: Fermi energy:   -0.042142;  410.000000 electrons
         Band energy:-0.162274E+04;  BLOECHL correction:   -0.075143
       DOS:  cpu time    0.0589: real time    0.0589
    --------------------------------------------
      LOOP:  cpu time   29.8122: real time   29.8120

 eigenvalue-minimisations  : 19152
 total energy-change (2. order) :-0.3509778E+01  (-0.3487156E+01)
 number of electron     410.0000188 magnetization 
 augmentation part      410.0000188 magnetization 

 Free energy of the ion-electron system (eV)
  ---------------------------------------------------
  alpha Z        PSCENC =       900.77247927
  Ewald energy   TEWEN  =    147080.59131487
  -Hartree energ DENC   =   -182006.58429442
  -exchange      EXHF   =         0.00000000
  -V(xc)+E(xc)   XCENC  =       602.50874381
  PAW double counting   =     37488.19694604   -36815.77049924
  entropy T*S    EENTRO =         0.00000000
  eigenvalues    EBANDS =     -1622.73820369
  atomic energy  EATOM  =     34238.11167534
  Solvation  Ediel_sol  =         0.00000000
  ---------------------------------------------------
  free energy    TOTEN  =      -134.91183801 eV

  energy without entropy =     -134.91183801  energy(sigma->0) =     -134.91183801


--------------------------------------------------------------------------------------------------------




--------------------------------------- Iteration      1(   5)  ---------------------------------------


     EDDAV:  cpu time   32.6761: real time   32.6789
 BZINTS: Fermi energy:   -0.042533;  410.000000 electrons
         Band energy:-0.162286E+04;  BLOECHL correction:   -0.075097
       DOS:  cpu time    0.0551: real time    0.0551
    --------------------------------------------
      LOOP:  cpu time   32.7312: real time   32.7340

 eigenvalue-minimisations  : 21504
 total energy-change (2. order) :-0.1262547E+00  (-0.1260052E+00)
 number of electron     410.0000188 magnetization 
 augmentation part      410.0000188 magnetization 

 Free energy of the ion-electron system (eV)
  ---------------------------------------------------
  alpha Z        PSCENC =       900.77247927
  Ewald energy   TEWEN  =    147080.59131487
  -Hartree energ DENC   =   -182006.58429442
  -exchange      EXHF   =         0.00000000
  -V(xc)+E(xc)   XCENC  =       602.50874381
  PAW double counting   =     37488.19694604   -36815.77049924
  entropy T*S    EENTRO =         0.00000000
  eigenvalues    EBANDS =     -1622.86445840
  atomic energy  EATOM  =     34238.11167534
  Solvation  Ediel_sol  =         0.00000000
  ---------------------------------------------------
  free energy    TOTEN  =      -135.03809272 eV

  energy without entropy =     -135.03809272  energy(sigma->0) =     -135.03809272


--------------------------------------------------------------------------------------------------------




--------------------------------------- Iteration      1(   6)  ---------------------------------------


    EDDIAG:  cpu time    5.4398: real time    5.4400
  RMM-DIIS:  cpu time   16.2918: real time   16.2916
    ORTHCH:  cpu time    1.0069: real time    1.0069
 BZINTS: Fermi energy:   -0.042534;  410.000000 electrons
         Band energy:-0.162287E+04;  BLOECHL correction:   -0.075097
       DOS:  cpu time    0.0603: real time    0.0603
    --------------------------------------------
      LOOP:  cpu time   22.7988: real time   22.7989

 eigenvalue-minimisations  : 17850
 total energy-change (2. order) :-0.2772212E-02  (-0.2772509E-02)
 number of electron     410.0000188 magnetization 
 augmentation part      410.0000188 magnetization 

 Free energy of the ion-electron system (eV)
  ---------------------------------------------------
  alpha Z        PSCENC =       900.77247927
  Ewald energy   TEWEN  =    147080.59131487
  -Hartree energ DENC   =   -182006.58429442
  -exchange      EXHF   =         0.00000000
  -V(xc)+E(xc)   XCENC  =       602.50874381
  PAW double counting   =     37488.19694604   -36815.77049924
  entropy T*S    EENTRO =         0.00000000
  eigenvalues    EBANDS =     -1622.86723061
  atomic energy  EATOM  =     34238.11167534
  Solvation  Ediel_sol  =         0.00000000
  ---------------------------------------------------
  free energy    TOTEN  =      -135.04086493 eV

  energy without entropy =     -135.04086493  energy(sigma->0) =     -135.04086493


--------------------------------------------------------------------------------------------------------




--------------------------------------- Iteration      1(   7)  ---------------------------------------


    EDDIAG:  cpu time    5.4437: real time    5.4437
  RMM-DIIS:  cpu time   21.7427: real time   21.7425
    ORTHCH:  cpu time    1.0059: real time    1.0059
 BZINTS: Fermi energy:   -0.042535;  410.000000 electrons
         Band energy:-0.162287E+04;  BLOECHL correction:   -0.075097
       DOS:  cpu time    0.0578: real time    0.0578
    --------------------------------------------
      LOOP:  cpu time   28.2501: real time   28.2499

 eigenvalue-minimisations  : 24680
 total energy-change (2. order) :-0.1050361E-02  (-0.1036375E-02)
 number of electron     410.0000188 magnetization 
 augmentation part      410.0000188 magnetization 

 Free energy of the ion-electron system (eV)
  ---------------------------------------------------
  alpha Z        PSCENC =       900.77247927
  Ewald energy   TEWEN  =    147080.59131487
  -Hartree energ DENC   =   -182006.58429442
  -exchange      EXHF   =         0.00000000
  -V(xc)+E(xc)   XCENC  =       602.50874381
  PAW double counting   =     37488.19694604   -36815.77049924
  entropy T*S    EENTRO =         0.00000000
  eigenvalues    EBANDS =     -1622.86828097
  atomic energy  EATOM  =     34238.11167534
  Solvation  Ediel_sol  =         0.00000000
  ---------------------------------------------------
  free energy    TOTEN  =      -135.04191529 eV

  energy without entropy =     -135.04191529  energy(sigma->0) =     -135.04191529


--------------------------------------------------------------------------------------------------------




--------------------------------------- Iteration      1(   8)  ---------------------------------------


    EDDIAG:  cpu time    5.4429: real time    5.4431
  RMM-DIIS:  cpu time   19.1363: real time   19.1361
    ORTHCH:  cpu time    1.0063: real time    1.0063
 BZINTS: Fermi energy:   -0.042535;  410.000000 electrons
         Band energy:-0.162287E+04;  BLOECHL correction:   -0.075097
       DOS:  cpu time    0.0590: real time    0.0590
    --------------------------------------------
      LOOP:  cpu time   25.6446: real time   25.6446

 eigenvalue-minimisations  : 20910
 total energy-change (2. order) :-0.7930672E-04  (-0.7917117E-04)
 number of electron     410.0000188 magnetization 
 augmentation part      410.0000188 magnetization 

 Free energy of the ion-electron system (eV)
  ---------------------------------------------------
  alpha Z        PSCENC =       900.77247927
  Ewald energy   TEWEN  =    147080.59131487
  -Hartree energ DENC   =   -182006.58429442
  -exchange      EXHF   =         0.00000000
  -V(xc)+E(xc)   XCENC  =       602.50874381
  PAW double counting   =     37488.19694604   -36815.77049924
  entropy T*S    EENTRO =         0.00000000
  eigenvalues    EBANDS =     -1622.86836028
  atomic energy  EATOM  =     34238.11167534
  Solvation  Ediel_sol  =         0.00000000
  ---------------------------------------------------
  free energy    TOTEN  =      -135.04199460 eV

  energy without entropy =     -135.04199460  energy(sigma->0) =     -135.04199460


--------------------------------------------------------------------------------------------------------




--------------------------------------- Iteration      1(   9)  ---------------------------------------


    EDDIAG:  cpu time    5.4418: real time    5.4419
  RMM-DIIS:  cpu time   17.2610: real time   17.2608
    ORTHCH:  cpu time    1.0064: real time    1.0064
 BZINTS: Fermi energy:   -0.042535;  410.000000 electrons
         Band energy:-0.162287E+04;  BLOECHL correction:   -0.075097
       DOS:  cpu time    0.0602: real time    0.0602
    --------------------------------------------
      LOOP:  cpu time   23.7694: real time   23.7693

 eigenvalue-minimisations  : 18018
 total energy-change (2. order) :-0.1806050E-04  (-0.1796735E-04)
 number of electron     410.0000188 magnetization 
 augmentation part      410.0000188 magnetization 

 Free energy of the ion-electron system (eV)
  ---------------------------------------------------
  alpha Z        PSCENC =       900.77247927
  Ewald energy   TEWEN  =    147080.59131487
  -Hartree energ DENC   =   -182006.58429442
  -exchange      EXHF   =         0.00000000
  -V(xc)+E(xc)   XCENC  =       602.50874381
  PAW double counting   =     37488.19694604   -36815.77049924
  entropy T*S    EENTRO =         0.00000000
  eigenvalues    EBANDS =     -1622.86837834
  atomic energy  EATOM  =     34238.11167534
  Solvation  Ediel_sol  =         0.00000000
  ---------------------------------------------------
  free energy    TOTEN  =      -135.04201266 eV

  energy without entropy =     -135.04201266  energy(sigma->0) =     -135.04201266


--------------------------------------------------------------------------------------------------------




--------------------------------------- Iteration      1(  10)  ---------------------------------------


    EDDIAG:  cpu time    5.4437: real time    5.4438
  RMM-DIIS:  cpu time   11.6353: real time   11.6352
    ORTHCH:  cpu time    1.0065: real time    1.0064
 BZINTS: Fermi energy:   -0.042535;  410.000000 electrons
         Band energy:-0.162287E+04;  BLOECHL correction:   -0.075097
       DOS:  cpu time    0.0590: real time    0.0591
    --------------------------------------------
      LOOP:  cpu time   18.1445: real time   18.1445

 eigenvalue-minimisations  : 11481
 total energy-change (2. order) :-0.1630309E-05  (-0.1690334E-05)
 number of electron     410.0000188 magnetization 
 augmentation part      410.0000188 magnetization 

 Free energy of the ion-electron system (eV)
  ---------------------------------------------------
  alpha Z        PSCENC =       900.77247927
  Ewald energy   TEWEN  =    147080.59131487
  -Hartree energ DENC   =   -182006.58429442
  -exchange      EXHF   =         0.00000000
  -V(xc)+E(xc)   XCENC  =       602.50874381
  PAW double counting   =     37488.19694604   -36815.77049924
  entropy T*S    EENTRO =         0.00000000
  eigenvalues    EBANDS =     -1622.86837997
  atomic energy  EATOM  =     34238.11167534
  Solvation  Ediel_sol  =         0.00000000
  ---------------------------------------------------
  free energy    TOTEN  =      -135.04201429 eV

  energy without entropy =     -135.04201429  energy(sigma->0) =     -135.04201429


--------------------------------------------------------------------------------------------------------




 average (electrostatic) potential at core
  the test charge radii are     1.2098  1.0452  0.6991  0.7215
  (the norm of the test charge is              1.0000)
       1 -73.0808       2 -73.0576       3 -73.0575       4 -73.0577       5 -73.0683
       6 -73.0573       7 -73.0574       8 -73.0571       9 -73.0566      10 -73.4193
      11 -73.3909      12 -73.4189      13 -73.3910      14 -73.3906      15 -73.4081
      16 -73.4192      17 -73.4073      18 -73.4075      19 -73.3511      20 -73.4310
      21 -73.4308      22 -73.3777      23 -73.4314      24 -73.3771      25 -73.3510
      26 -73.3510      27 -73.3764      28 -72.9804      29 -73.0024      30 -73.0039
      31 -72.9937      32 -72.9956      33 -73.0021      34 -73.0034      35 -72.9626
      36 -87.6837      37 -58.5062      38 -77.5184      39 -77.5122
 
 
 
 E-fermi :  -0.0425     XC(G=0):  -5.4759     alpha+bet : -5.0341

 Fermi energy:        -0.0425350532

 k-point     1 :       0.0000    0.0000    0.0000
  band No.  band energies     occupation 
      1     -23.9745      2.00000
      2     -22.9589      2.00000
      3      -8.8537      2.00000
      4      -8.6068      2.00000
      5      -7.6619      2.00000
      6      -7.4685      2.00000
      7      -7.4516      2.00000
      8      -7.4142      2.00000
      9      -6.7230      2.00000
     10      -6.7035      2.00000
     11      -6.6958      2.00000
     12      -6.6955      2.00000
     13      -6.6875      2.00000
     14      -6.6667      2.00000
     15      -6.6665      2.00000
     16      -6.5263      2.00000
     17      -6.2184      2.00000
     18      -6.2020      2.00000
     19      -6.2018      2.00000
     20      -6.1839      2.00000
     21      -6.1766      2.00000
     22      -6.1764      2.00000
     23      -5.8254      2.00000
     24      -5.8251      2.00000
     25      -5.8137      2.00000
     26      -5.7993      2.00000
     27      -5.7810      2.00000
     28      -5.7810      2.00000
     29      -5.6454      2.00000
     30      -5.6447      2.00000
     31      -5.6415      2.00000
     32      -5.6179      2.00000
     33      -5.6127      2.00000
     34      -5.6121      2.00000
     35      -5.4875      2.00000
     36      -5.4875      2.00000
     37      -5.4659      2.00000
     38      -5.4651      2.00000
     39      -5.4651      2.00000
     40      -5.4420      2.00000
     41      -5.4387      2.00000
     42      -5.4382      2.00000
     43      -5.4343      2.00000
     44      -5.3074      2.00000
[...]
  0.000   0.000   0.000   0.000   0.000   0.000   0.000   0.000   0.000   0.000   1.000   0.000   0.000   0.000   0.000   0.000
  0.000   0.000   0.000   0.000   0.000   0.000   0.000   0.000   0.000   0.000   0.000   0.000   0.000   0.000   0.000   0.000
  0.000   0.000   0.000   0.000   0.000   0.000   0.000   0.000   0.000   0.000   0.000   0.000   0.000   0.000   0.000   0.000
  0.000   0.000   0.000   0.000   0.000   0.000   0.000   0.000   0.000   0.000   0.000   0.000   0.000   0.000   0.000   0.000
  0.000   0.000   0.000   0.000   0.000   0.000   0.000   0.000   0.000   0.000   0.000   0.000   0.000   0.000   0.000   0.000
  0.000   0.000   0.000   0.000   0.000   0.000   0.000   0.000   0.000   0.000   0.000   0.000   0.000   0.000   0.000   0.000
  0.000   0.000   0.000   0.000   0.000   0.000   0.000   0.000   0.000   0.000   0.000   0.000   0.000   0.000   0.000   0.000
  0.000   0.000   0.000   0.000   0.000   0.000   0.000   0.000   0.000   0.000   0.000   0.000   0.000   0.000   0.000   0.000


------------------------ aborting loop because EDIFF is reached ----------------------------------------





 total charge

# of ion       s       p       d       tot
------------------------------------------
    1        0.545   0.239   8.766   9.550
    2        0.545   0.241   8.765   9.550
    3        0.545   0.241   8.765   9.550
    4        0.545   0.241   8.765   9.550
    5        0.542   0.242   8.762   9.546
    6        0.545   0.241   8.765   9.550
    7        0.545   0.241   8.765   9.550
    8        0.545   0.241   8.765   9.550
    9        0.543   0.239   8.768   9.551
   10        0.522   0.308   8.769   9.599
   11        0.521   0.308   8.779   9.608
   12        0.522   0.308   8.769   9.599
   13        0.521   0.308   8.779   9.608
   14        0.521   0.308   8.779   9.608
   15        0.518   0.309   8.776   9.603
   16        0.522   0.308   8.769   9.599
   17        0.518   0.309   8.776   9.603
   18        0.518   0.309   8.776   9.603
   19        0.517   0.303   8.776   9.595
   20        0.539   0.328   8.757   9.624
   21        0.539   0.328   8.757   9.624
   22        0.512   0.311   8.776   9.599
   23        0.539   0.328   8.757   9.624
   24        0.512   0.311   8.776   9.599
   25        0.517   0.303   8.776   9.596
   26        0.517   0.303   8.776   9.596
   27        0.512   0.311   8.776   9.599
   28        0.539   0.226   8.768   9.533
   29        0.555   0.237   8.756   9.548
   30        0.556   0.238   8.755   9.549
   31        0.554   0.236   8.756   9.546
   32        0.554   0.237   8.756   9.547
   33        0.555   0.237   8.756   9.548
   34        0.556   0.238   8.755   9.548
   35        0.535   0.224   8.769   9.528
   36        0.316   0.224   7.259   7.799
   37        0.932   1.799   0.000   2.732
   38        1.607   3.529   0.000   5.136
   39        1.607   3.528   0.000   5.135
--------------------------------------------------
tot         23.153  18.716 314.115 355.983
 
    CHARGE:  cpu time    1.3233: real time    1.3233
    FORLOC:  cpu time    0.0128: real time    0.0128
    FORNL :  cpu time    5.4690: real time    5.4691
    STRESS:  cpu time   16.4252: real time   16.4253
    FORCOR:  cpu time    0.0664: real time    0.0666
    FORHAR:  cpu time    0.0203: real time    0.0203
    OFIELD:  cpu time    0.0003: real time    0.0003

  FORCE on cell =-STRESS in cart. coord.  units (eV):
  Direction    XX          YY          ZZ          XY          YZ          ZX
  --------------------------------------------------------------------------------------
  Alpha Z   900.77248   900.77248   900.77248
  Ewald  170237.79371169445.50058************     0.19301    -0.21915    45.94242
  Hartree178628.23811178253.36003************     0.09216    -0.20061    20.93385
  E(xc)   -1846.15287 -1848.25766 -1855.26930     0.00061    -0.00063     0.12475
  Local  ************************360133.30852    -0.25975     0.40162   -62.62961
  n-local  -122.07891  -116.12786   -92.39556     0.00298     0.00532    -0.34750
  augment  2532.87593  2535.56755  2551.41022    -0.00636     0.00890    -0.14805
  Kinetic  5699.04532  5764.21999  5816.64101    -0.01658     0.00953    -3.86095
  Fock        0.00000     0.00000     0.00000     0.00000     0.00000     0.00000
  -------------------------------------------------------------------------------------
  Total     -26.00131   -25.95466     0.04646     0.00607     0.00498     0.01492
  in kB     -23.95872   -23.91574     0.04281     0.00559     0.00459     0.01374
  external pressure =      -15.94 kB  Pullay stress =        0.00 kB


 VOLUME and BASIS-vectors are now :
 -----------------------------------------------------------------------------
  energy-cutoff  :      500.00
  volume of cell :     1738.77
      direct lattice vectors                 reciprocal lattice vectors
     8.813512802  0.000000000  0.000000000     0.113462137 -0.065507406  0.000000000
     4.406756909  7.632725690  0.000000000     0.000000000  0.131014796  0.000000000
     0.000000000  0.000000000 25.847196324     0.000000000  0.000000000  0.038688916

  length of vectors
     8.813512802  8.813512802 25.847196324     0.131014796  0.131014796  0.038688916


 FORCES acting on ions
    electron-ion (+dipol)            ewald-force                    non-local-force                 convergence-correction
 -----------------------------------------------------------------------------------------------
   -.101E-02 0.110E-01 0.278E+04   0.573E-03 -.144E-01 -.278E+04   -.240E-03 -.152E-02 -.762E+00   0.447E-03 0.410E-02 -.270E+00
   0.605E+00 0.424E+00 0.278E+04   -.610E+00 -.445E+00 -.278E+04   0.122E-01 0.147E-01 -.359E+00   -.852E-02 0.873E-02 -.287E+00
   -.604E+00 0.414E+00 0.278E+04   0.610E+00 -.446E+00 -.278E+04   -.120E-01 0.148E-01 -.357E+00   0.817E-02 0.199E-01 -.285E+00
   0.659E+00 0.320E+00 0.278E+04   -.678E+00 -.313E+00 -.278E+04   0.213E-01 0.279E-02 -.366E+00   0.167E-03 -.127E-01 -.286E+00
   -.135E-01 -.375E-02 0.279E+04   -.939E-03 -.234E-04 -.279E+04   0.504E-03 -.592E-03 -.319E+00   0.143E-01 0.448E-02 -.260E+00
   -.649E+00 0.313E+00 0.278E+04   0.679E+00 -.313E+00 -.278E+04   -.218E-01 0.311E-02 -.363E+00   -.992E-02 -.567E-02 -.281E+00
   0.481E-01 -.739E+00 0.278E+04   -.683E-01 0.758E+00 -.278E+04   0.722E-02 -.171E-01 -.357E+00   0.173E-01 -.148E-02 -.282E+00
   -.581E-01 -.734E+00 0.278E+04   0.676E-01 0.759E+00 -.278E+04   -.704E-02 -.177E-01 -.357E+00   -.663E-02 -.734E-02 -.279E+00
   0.142E-01 -.797E-02 0.278E+04   0.699E-03 0.145E-01 -.278E+04   0.960E-04 0.285E-02 -.455E+00   -.154E-01 -.899E-02 -.305E+00
   0.469E+01 0.282E+01 0.988E+03   -.443E+01 -.267E+01 -.988E+03   -.195E+00 -.111E+00 -.642E+00   -.241E-01 -.101E-01 0.212E+00
   -.399E-02 0.587E+01 0.997E+03   -.410E-02 -.600E+01 -.997E+03   -.159E-03 0.880E-02 -.379E+00   0.855E-02 0.816E-01 0.343E+00
   -.469E+01 0.281E+01 0.988E+03   0.444E+01 -.268E+01 -.988E+03   0.195E+00 -.112E+00 -.639E+00   0.191E-01 -.726E-03 0.207E+00
   0.499E+01 -.296E+01 0.997E+03   -.509E+01 0.301E+01 -.997E+03   0.696E-02 -.305E-02 -.382E+00   0.720E-01 -.331E-01 0.348E+00
   -.500E+01 -.297E+01 0.997E+03   0.509E+01 0.302E+01 -.997E+03   -.709E-02 -.272E-02 -.380E+00   -.502E-01 -.315E-01 0.348E+00
   0.587E-02 0.288E+01 0.991E+03   0.588E-02 -.292E+01 -.990E+03   0.117E-03 0.138E-01 -.489E+00   -.120E-01 -.147E-01 0.213E+00
   -.468E-02 -.544E+01 0.988E+03   -.796E-03 0.516E+01 -.987E+03   0.149E-03 0.222E+00 -.636E+00   0.567E-02 0.170E-01 0.207E+00
   0.256E+01 -.151E+01 0.990E+03   -.259E+01 0.154E+01 -.990E+03   0.120E-01 -.731E-02 -.477E+00   -.161E-01 -.484E-02 0.205E+00
   -.256E+01 -.151E+01 0.990E+03   0.259E+01 0.153E+01 -.990E+03   -.122E-01 -.750E-02 -.476E+00   0.108E-01 0.451E-02 0.203E+00
   -.545E-01 0.258E+01 -.841E+03   0.450E-01 -.269E+01 0.839E+03   0.361E-02 0.268E-01 0.485E+00   0.607E-02 0.815E-01 0.839E+00
   0.297E+02 0.177E+02 -.795E+03   -.297E+02 -.177E+02 0.794E+03   -.709E+00 -.404E+00 -.599E+00   0.646E+00 0.384E+00 0.171E+01
   -.297E+02 0.177E+02 -.795E+03   0.297E+02 -.177E+02 0.794E+03   0.709E+00 -.403E+00 -.599E+00   -.645E+00 0.398E+00 0.171E+01
   0.687E+01 -.472E+01 -.827E+03   -.746E+01 0.510E+01 0.825E+03   0.297E+00 -.181E+00 0.544E+00   0.295E+00 -.200E+00 0.976E+00
   0.131E-01 -.352E+02 -.796E+03   -.265E-01 0.351E+02 0.795E+03   -.105E-03 0.812E+00 -.597E+00   0.132E-01 -.759E+00 0.171E+01
   -.688E+01 -.475E+01 -.827E+03   0.749E+01 0.513E+01 0.825E+03   -.298E+00 -.181E+00 0.540E+00   -.318E+00 -.195E+00 0.976E+00
   -.184E+01 -.733E+00 -.842E+03   0.189E+01 0.768E+00 0.841E+03   -.152E-01 -.102E-01 0.465E+00   -.402E-01 -.260E-01 0.834E+00
   0.182E+01 -.776E+00 -.842E+03   -.189E+01 0.813E+00 0.841E+03   0.164E-01 -.605E-02 0.467E+00   0.508E-01 -.323E-01 0.837E+00
   0.209E-01 0.815E+01 -.828E+03   -.447E-02 -.884E+01 0.826E+03   -.140E-02 0.345E+00 0.539E+00   -.155E-01 0.351E+00 0.973E+00
   -.259E+00 0.454E+01 -.263E+04   0.256E+00 -.454E+01 0.263E+04   -.162E-02 -.220E-02 0.584E+00   0.481E-02 0.828E-02 0.763E+00
   0.237E+02 0.450E+02 -.261E+04   -.236E+02 -.449E+02 0.261E+04   -.639E+00 -.951E+00 0.295E+00   0.536E+00 0.894E+00 0.690E+00
   -.234E+02 0.451E+02 -.261E+04   0.233E+02 -.451E+02 0.261E+04   0.643E+00 -.958E+00 0.273E+00   -.540E+00 0.902E+00 0.693E+00
   0.490E+02 0.125E+01 -.260E+04   -.489E+02 -.120E+01 0.260E+04   -.112E+01 -.715E-01 0.422E+00   0.103E+01 0.233E-01 0.687E+00
   -.490E+02 0.124E+01 -.260E+04   0.489E+02 -.120E+01 0.260E+04   0.113E+01 -.720E-01 0.394E+00   -.104E+01 0.328E-01 0.684E+00
   0.215E+02 -.462E+02 -.261E+04   -.215E+02 0.461E+02 0.261E+04   -.515E+00 0.102E+01 0.293E+00   0.507E+00 -.925E+00 0.692E+00
   -.212E+02 -.464E+02 -.261E+04   0.212E+02 0.463E+02 0.261E+04   0.518E+00 0.103E+01 0.274E+00   -.495E+00 -.925E+00 0.685E+00
   -.247E+00 -.458E+01 -.264E+04   0.264E+00 0.460E+01 0.264E+04   -.130E-02 0.214E-02 0.605E+00   -.156E-01 -.190E-01 0.731E+00
   -.220E-01 0.226E-02 -.199E+04   0.286E-01 -.677E-02 0.199E+04   -.174E-01 -.159E-02 0.247E+01   0.987E-02 0.952E-02 0.993E+00
   0.225E+00 0.874E-01 -.929E+03   -.188E+00 -.889E-01 0.929E+03   -.293E-01 0.349E-02 -.441E-01   -.592E-02 0.109E-02 -.224E+00
   0.261E+03 0.592E-01 -.139E+04   -.325E+03 -.631E-01 0.139E+04   0.636E+02 -.106E-02 0.383E+01   0.964E-01 0.434E-02 -.309E+00
   -.261E+03 -.513E-01 -.140E+04   0.325E+03 0.756E-01 0.140E+04   -.636E+02 -.325E-01 -.373E+01   -.825E-01 0.325E-02 -.262E+00
 -----------------------------------------------------------------------------------------------
   0.133E-01 0.768E-02 -.150E+02   0.568E-13 0.231E-13 -.109E-10   -.393E-01 -.303E-01 -.129E+01   0.162E-01 0.207E-01 0.161E+02
 
 
 POSITION                                       TOTAL-FORCE (eV/Angst)
 -----------------------------------------------------------------------------------
      0.00000      0.00000      5.28038         0.000023     -0.000832     -0.103668
      2.93784      0.00000      5.28038        -0.001032      0.003139     -0.091940
      5.87568      0.00000      5.28038         0.001745      0.003382     -0.091836
      1.46892      2.54424      5.28038         0.002685     -0.003029     -0.093009
      4.40676      2.54424      5.28038         0.000662      0.000156     -0.122131
      7.34459      2.54424      5.28038        -0.002365     -0.003071     -0.092774
      2.93784      5.08848      5.28038         0.004630      0.000097     -0.093048
      5.87568      5.08848      5.28038        -0.003965     -0.000096     -0.093082
      8.81351      5.08848      5.28038        -0.000105      0.000427     -0.102368
      1.46892      0.84808      7.67911         0.035843      0.021283      0.119374
      4.40676      0.84808      7.67911         0.000556     -0.032407      0.033877
      7.34459      0.84808      7.67911        -0.035581      0.021731      0.120030
      2.93784      3.39232      7.67911        -0.028572      0.016807      0.032901
      5.87568      3.39232      7.67911         0.029629      0.016776      0.032786
      8.81351      3.39232      7.67911         0.000091     -0.038165      0.094598
      4.40676      5.93656      7.67911         0.000591     -0.042454      0.120382
      7.34459      5.93656      7.67911        -0.032913      0.018208      0.095638
     10.28243      5.93656      7.67911         0.033055      0.018162      0.095787
      8.81351      1.69524     10.07173         0.000502      0.002979      0.021295
      2.95099      1.70376     10.05075        -0.020049     -0.012105      0.012967
      5.86252      1.70376     10.05075         0.019161     -0.011451      0.013727
     10.26977      4.24772     10.05674         0.002785     -0.000885      0.030085
      4.40676      4.22522     10.05075         0.000030      0.021262      0.012552
      7.35726      4.24772     10.05674        -0.001925     -0.000388      0.028773
     11.75215      6.78511     10.07173        -0.003140     -0.001185      0.015800
      5.87488      6.78511     10.07173         0.003929     -0.001080      0.016346
      8.81351      6.77002     10.05674        -0.000220      0.001639      0.024992
      0.00000      0.00000     12.47665         0.000567     -0.000832     -0.058393
      2.97645      0.06424     12.45579        -0.001729     -0.012410      0.008251
      5.83706      0.06424     12.45579         0.001963     -0.009927      0.010863
      1.54386      2.54556     12.45579        -0.014710      0.002556      0.003697
      7.26966      2.54556     12.45579         0.011808      0.002075      0.009460
      2.97417      5.02293     12.45579        -0.003766      0.009491      0.008779
      5.83935      5.02293     12.45579         0.003905      0.007945      0.011374
      8.81351      5.08848     12.49078         0.000170      0.001189     -0.037991
      4.40676      2.54424     12.15093        -0.000625      0.003467      0.008126
      4.47987      2.54443     16.07427         0.002656      0.003155     -0.005998
      3.30495      2.54438     16.00338        -0.006944     -0.000641      0.002590
      5.65489      2.54490     16.14386         0.000655     -0.004969      0.001190
 -----------------------------------------------------------------------------------
    total drift:                               -0.009801     -0.001927     -0.107945


--------------------------------------------------------------------------------------------------------



  FREE ENERGIE OF THE ION-ELECTRON SYSTEM (eV)
  ---------------------------------------------------
  free  energy   TOTEN  =      -135.04201429 eV

  energy  without entropy=     -135.04201429  energy(sigma->0) =     -135.04201429
 


--------------------------------------------------------------------------------------------------------


    POTLOK:  cpu time    0.0656: real time    0.0656


--------------------------------------------------------------------------------------------------------


 stress matrix after NEB project (eV)
    -26.00131      0.00607      0.01492
      0.00607    -25.95466      0.00498
      0.01492      0.00498      0.04646
  FORCES: max atom, RMS     0.007439    0.001860
  FORCE total and by dimension    0.011613    0.006944
  Stress total and by dimension   36.738470   26.001309
     LOOP+:  cpu time  293.3419: real time  293.3512
 -----------------------------------------------------------------------------
|                                                                             |
|           W    W    AA    RRRRR   N    N  II  N    N   GGGG   !!!           |
|           W    W   A  A   R    R  NN   N  II  NN   N  G    G  !!!           |
|           W    W  A    A  R    R  N N  N  II  N N  N  G       !!!           |
|           W WW W  AAAAAA  RRRRR   N  N N  II  N  N N  G  GGG   !            |
|           WW  WW  A    A  R   R   N   NN  II  N   NN  G    G                |
|           W    W  A    A  R    R  N    N  II  N    N   GGGG   !!!           |
|                                                                             |
|     Tetrahedron method does not include variations of the Fermi             |
|     occupations, so forces and stress will be inaccurate. We suggest        |
|     using a different smearing scheme ISMEAR = 1 or 2 for metals in         |
|     relaxations.                                                            |
|                                                                             |
 -----------------------------------------------------------------------------

    4ORBIT:  cpu time    0.0000: real time    0.0000



 total charge

# of ion       s       p       d       tot
------------------------------------------
    1        0.545   0.239   8.766   9.550
    2        0.545   0.241   8.765   9.550
    3        0.545   0.241   8.765   9.550
    4        0.545   0.241   8.765   9.550
    5        0.542   0.242   8.762   9.546
    6        0.545   0.241   8.765   9.550
    7        0.545   0.241   8.765   9.550
    8        0.545   0.241   8.765   9.550
    9        0.543   0.239   8.768   9.551
   10        0.522   0.308   8.769   9.599
   11        0.521   0.308   8.779   9.608
   12        0.522   0.308   8.769   9.599
   13        0.521   0.308   8.779   9.608
   14        0.521   0.308   8.779   9.608
   15        0.518   0.309   8.776   9.603
   16        0.522   0.308   8.769   9.599
   17        0.518   0.309   8.776   9.603
   18        0.518   0.309   8.776   9.603
   19        0.517   0.303   8.776   9.595
   20        0.539   0.328   8.757   9.624
   21        0.539   0.328   8.757   9.624
   22        0.512   0.311   8.776   9.599
   23        0.539   0.328   8.757   9.624
   24        0.512   0.311   8.776   9.599
   25        0.517   0.303   8.776   9.596
   26        0.517   0.303   8.776   9.596
   27        0.512   0.311   8.776   9.599
   28        0.539   0.226   8.768   9.533
   29        0.555   0.237   8.756   9.548
   30        0.556   0.238   8.755   9.549
   31        0.554   0.236   8.756   9.546
   32        0.554   0.237   8.756   9.547
   33        0.555   0.237   8.756   9.548
   34        0.556   0.238   8.755   9.548
   35        0.535   0.224   8.769   9.528
   36        0.316   0.224   7.259   7.799
   37        0.932   1.799   0.000   2.732
   38        1.607   3.529   0.000   5.136
   39        1.607   3.528   0.000   5.135
--------------------------------------------------
tot         23.153  18.716 314.115 355.983
 
 BZINTS: Fermi energy:   -0.042535;  410.000000 electrons
         Band energy:-0.162287E+04;  BLOECHL correction:   -0.075097

 total amount of memory used by VASP MPI-rank0   289931. kBytes
=======================================================================

   base      :      30000. kBytes
   nonlr-proj:      13450. kBytes
   fftplans  :       4948. kBytes
   grid      :      21313. kBytes
   one-center:        606. kBytes
   wavefun   :     219614. kBytes
 
  
  
 General timing and accounting informations for this job:
 ========================================================
  
                  Total CPU time used (sec):      317.342
                            User time (sec):      306.813
                          System time (sec):       10.529
                         Elapsed time (sec):      317.781
  
                   Maximum memory used (kb):      593600.
                   Average memory used (kb):          N/A
  
                          Minor page faults:       128999
                          Major page faults:            0
                 Voluntary context switches:         7132
