 vasp.6.2.0 18Jan21 (build Jun 12 2021 23:27:24) complex                        
  
 executed on             LinuxIFC date 2022.05.26  19:40:34
 running on   28 total cores
 distrk:  each k-point on   28 cores,    1 groups
 distr:  one band on NCORE=   1 cores,   28 groups


--------------------------------------------------------------------------------------------------------


 INCAR:
   ISMEAR = -5
   SIGMA = 0.1
   ISPIN = 1
   EDIFF = 1.d-5
   EDIFFG = -0.01
   NSW = 0
   NELM = 150
   ENCUT = 500
   ISIF = 2
   IBRION = 2
   LREAL = Auto
   ALGO = Fast
   ICHARG = 11
   LORBIT = 10
   LCHARG = .F.
   LWAVE = .F.

 POTCAR:    PAW_PBE Ag 02Apr2005                  
 POTCAR:    PAW_PBE Mn 06Sep2000                  
 POTCAR:    PAW_PBE O 08Apr2002                   
 -----------------------------------------------------------------------------
|                                                                             |
|           W    W    AA    RRRRR   N    N  II  N    N   GGGG   !!!           |
|           W    W   A  A   R    R  NN   N  II  NN   N  G    G  !!!           |
|           W    W  A    A  R    R  N N  N  II  N N  N  G       !!!           |
|           W WW W  AAAAAA  RRRRR   N  N N  II  N  N N  G  GGG   !            |
|           WW  WW  A    A  R   R   N   NN  II  N   NN  G    G                |
|           W    W  A    A  R    R  N    N  II  N    N   GGGG   !!!           |
|                                                                             |
|     For optimal performance we recommend to set                             |
|       NCORE = 2 up to number-of-cores-per-socket                            |
|     NCORE specifies how many cores store one orbital (NPAR=cpu/NCORE).      |
|     This setting can greatly improve the performance of VASP for DFT.       |
|     The default, NCORE=1 might be grossly inefficient on modern             |
|     multi-core architectures or massively parallel machines. Do your        |
|     own testing! More info at https://www.vasp.at/wiki/index.php/NCORE      |
|     Unfortunately you need to use the default for GW and RPA                |
|     calculations (for HF NCORE is supported but not extensively tested      |
|     yet).                                                                   |
|                                                                             |
 -----------------------------------------------------------------------------

 POTCAR:    PAW_PBE Ag 02Apr2005                  
   VRHFIN =Ag : s1 d10                                                                              
   LEXCH  = PE                                                                                      
   EATOM  =  1037.2675 eV,   76.2370 Ry                                                             
                                                                                                    
   TITEL  = PAW_PBE Ag 02Apr2005                                                                    
   LULTRA =        F    use ultrasoft PP ?                                                          
   IUNSCR =        1    unscreen: 0-lin 1-nonlin 2-no                                               
   RPACOR =    2.000    partial core radius                                                         
   POMASS =  107.868; ZVAL   =   11.000    mass and valenz                                          
   RCORE  =    2.500    outmost cutoff radius                                                       
   RWIGS  =    2.840; RWIGS  =    1.503    wigner-seitz radius (au A)                               
   ENMAX  =  249.844; ENMIN  =  187.383 eV                                                          
   ICORE  =        3    local potential                                                             
   LCOR   =        T    correct aug charges                                                         
   LPAW   =        T    paw PP                                                                      
   EAUG   =  412.496                                                                                
   DEXC   =    0.000                                                                                
   RMAX   =    2.560    core radius for proj-oper                                                   
   RAUG   =    1.300    factor for augmentation sphere                                              
   RDEP   =    2.576    radius for radial grids                                                     
   RDEPT  =    2.072    core radius for aug-charge                                                  
                                                                                                    
   Atomic configuration                                                                             
   12 entries                                                                                       
     n  l   j            E        occ.                                                              
     1  0  0.50    -25324.9161   2.0000                                                             
     2  0  0.50     -3728.5341   2.0000                                                             
     2  1  1.50     -3344.0404   6.0000                                                             
     3  0  0.50      -683.5581   2.0000                                                             
     3  1  1.50      -557.3225   6.0000                                                             
     3  2  2.50      -358.3853  10.0000                                                             
     4  0  0.50       -95.0341   2.0000                                                             
     4  1  1.50       -58.5511   6.0000                                                             
     4  2  2.50        -7.4440  10.0000                                                             
     5  0  0.50        -4.4045   1.0000                                                             
     5  1  0.50        -1.3606   0.0000                                                             
     4  3  2.50        -1.3606   0.0000                                                             
   Description                                                                                      
     l       E           TYP  RCUT    TYP  RCUT                                                     
     2     -7.4439781     23  2.400                                                                 
     2     -8.8045607     23  2.400                                                                 
     0     -4.4044681     23  2.400                                                                 
     0      1.9520038     23  2.400                                                                 
     1     -1.3605826     23  2.500                                                                 
     1     27.2116520     23  2.500                                                                 
     3     -4.0817478     23  2.400                                                                 
  local pseudopotential read in
  partial core-charges read in
  partial kinetic energy density read in
  atomic valenz-charges read in
  non local Contribution for L=           2  read in
    real space projection operators read in
  non local Contribution for L=           2  read in
    real space projection operators read in
  non local Contribution for L=           0  read in
    real space projection operators read in
  non local Contribution for L=           0  read in
    real space projection operators read in
  non local Contribution for L=           1  read in
    real space projection operators read in
  non local Contribution for L=           1  read in
    real space projection operators read in
    PAW grid and wavefunctions read in
 
   number of l-projection  operators is LMAX  =           6
   number of lm-projection operators is LMMAX =          18
 
 POTCAR:    PAW_PBE Mn 06Sep2000                  
   VRHFIN =Mn: d6 s1                                                                                
   LEXCH  = PE                                                                                      
   EATOM  =   416.7541 eV,   30.6306 Ry                                                             
                                                                                                    
   TITEL  = PAW_PBE Mn 06Sep2000                                                                    
   LULTRA =        F    use ultrasoft PP ?                                                          
   IUNSCR =        1    unscreen: 0-lin 1-nonlin 2-no                                               
   RPACOR =    2.000    partial core radius                                                         
   POMASS =   54.938; ZVAL   =    7.000    mass and valenz                                          
   RCORE  =    2.300    outmost cutoff radius                                                       
   RWIGS  =    2.500; RWIGS  =    1.323    wigner-seitz radius (au A)                               
   ENMAX  =  269.864; ENMIN  =  202.398 eV                                                          
   RCLOC  =    1.725    cutoff for local pot                                                        
   LCOR   =        T    correct aug charges                                                         
   LPAW   =        T    paw PP                                                                      
   EAUG   =  500.711                                                                                
   DEXC   =    0.000                                                                                
   RMAX   =    2.343    core radius for proj-oper                                                   
   RAUG   =    1.300    factor for augmentation sphere                                              
   RDEP   =    2.338    radius for radial grids                                                     
   RDEPT  =    1.911    core radius for aug-charge                                                  
                                                                                                    
   Atomic configuration                                                                             
    9 entries                                                                                       
     n  l   j            E        occ.                                                              
     1  0  0.50     -6424.8288   2.0000                                                             
     2  0  0.50      -739.1154   2.0000                                                             
     2  1  1.50      -625.3949   6.0000                                                             
     3  0  0.50       -81.6100   2.0000                                                             
     3  1  1.50       -50.4667   6.0000                                                             
     3  2  2.50        -3.3745   6.0000                                                             
     4  0  0.50        -4.1331   1.0000                                                             
     4  1  0.50        -4.0817   0.0000                                                             
     4  3  2.50        -1.3606   0.0000                                                             
   Description                                                                                      
     l       E           TYP  RCUT    TYP  RCUT                                                     
     2     -3.3744664     23  2.300                                                                 
     2     -4.7350490     23  2.300                                                                 
     0     -4.1331408     23  2.300                                                                 
     0      7.6656614     23  2.300                                                                 
     1     -2.7211652     23  2.300                                                                 
     1     20.4087390     23  2.300                                                                 
  local pseudopotential read in
  partial core-charges read in
  partial kinetic energy density read in
  atomic valenz-charges read in
  non local Contribution for L=           2  read in
    real space projection operators read in
  non local Contribution for L=           2  read in
    real space projection operators read in
  non local Contribution for L=           0  read in
    real space projection operators read in
  non local Contribution for L=           0  read in
    real space projection operators read in
  non local Contribution for L=           1  read in
    real space projection operators read in
  non local Contribution for L=           1  read in
    real space projection operators read in
    PAW grid and wavefunctions read in
 
   number of l-projection  operators is LMAX  =           6
   number of lm-projection operators is LMMAX =          18
 
 POTCAR:    PAW_PBE O 08Apr2002                   
   VRHFIN =O: s2p4                                                                                  
   LEXCH  = PE                                                                                      
   EATOM  =   432.3788 eV,   31.7789 Ry                                                             
                                                                                                    
   TITEL  = PAW_PBE O 08Apr2002                                                                     
   LULTRA =        F    use ultrasoft PP ?                                                          
   IUNSCR =        1    unscreen: 0-lin 1-nonlin 2-no                                               
   RPACOR =    1.200    partial core radius                                                         
   POMASS =   16.000; ZVAL   =    6.000    mass and valenz                                          
   RCORE  =    1.520    outmost cutoff radius                                                       
   RWIGS  =    1.550; RWIGS  =    0.820    wigner-seitz radius (au A)                               
   ENMAX  =  400.000; ENMIN  =  300.000 eV                                                          
   ICORE  =        2    local potential                                                             
   LCOR   =        T    correct aug charges                                                         
   LPAW   =        T    paw PP                                                                      
   EAUG   =  605.392                                                                                
   DEXC   =    0.000                                                                                
   RMAX   =    1.553    core radius for proj-oper                                                   
   RAUG   =    1.300    factor for augmentation sphere                                              
   RDEP   =    1.550    radius for radial grids                                                     
   RDEPT  =    1.329    core radius for aug-charge                                                  
                                                                                                    
   Atomic configuration                                                                             
    4 entries                                                                                       
     n  l   j            E        occ.                                                              
     1  0  0.50      -514.6923   2.0000                                                             
     2  0  0.50       -23.9615   2.0000                                                             
     2  1  0.50        -9.0305   4.0000                                                             
     3  2  1.50        -9.5241   0.0000                                                             
   Description                                                                                      
     l       E           TYP  RCUT    TYP  RCUT                                                     
     0    -23.9615318     23  1.200                                                                 
     0     -9.5240782     23  1.200                                                                 
     1     -9.0304911     23  1.520                                                                 
     1      8.1634956     23  1.520                                                                 
     2     -9.5240782      7  1.500                                                                 
  local pseudopotential read in
  partial core-charges read in
  partial kinetic energy density read in
  kinetic energy density of atom read in
  atomic valenz-charges read in
  non local Contribution for L=           0  read in
    real space projection operators read in
  non local Contribution for L=           0  read in
    real space projection operators read in
  non local Contribution for L=           1  read in
    real space projection operators read in
  non local Contribution for L=           1  read in
    real space projection operators read in
    PAW grid and wavefunctions read in
 
   number of l-projection  operators is LMAX  =           4
   number of lm-projection operators is LMMAX =           8
 
 Optimization of the real space projectors (new method)

 maximal supplied QI-value         = 15.12
 optimisation between [QCUT,QGAM] = [ 11.34, 22.83] = [ 36.00,145.93] Ry 
 Optimized for a Real-space Cutoff    1.43 Angstroem

   l    n(q)    QCUT    max X(q) W(low)/X(q) W(high)/X(q)  e(spline) 
   2      9    11.338    53.897    0.16E-03    0.20E-03    0.28E-06
   2      9    11.338    52.416    0.16E-03    0.20E-03    0.29E-06
   0     10    11.338   122.045    0.31E-04    0.76E-04    0.15E-06
   0     10    11.338    73.629    0.30E-04    0.72E-04    0.15E-06
   1      9    11.338    15.255    0.20E-03    0.19E-04    0.17E-06
   1      9    11.338     9.562    0.16E-03    0.15E-04    0.14E-06
 Optimization of the real space projectors (new method)

 maximal supplied QI-value         = 16.25
 optimisation between [QCUT,QGAM] = [ 11.38, 22.75] = [ 36.24,144.96] Ry 
 Optimized for a Real-space Cutoff    1.39 Angstroem

   l    n(q)    QCUT    max X(q) W(low)/X(q) W(high)/X(q)  e(spline) 
   2      8    11.376   110.144    0.49E-03    0.27E-04    0.26E-06
   2      8    11.376   103.200    0.49E-03    0.28E-04    0.27E-06
   0      9    11.376    68.437    0.57E-04    0.92E-04    0.15E-06
   0      9    11.376    33.971    0.51E-04    0.83E-04    0.14E-06
   1      9    11.376    17.065    0.34E-03    0.68E-04    0.14E-06
   1      9    11.376    12.540    0.27E-03    0.59E-04    0.11E-06
 Optimization of the real space projectors (new method)

 maximal supplied QI-value         = 24.76
 optimisation between [QCUT,QGAM] = [ 11.39, 22.77] = [ 36.31,145.25] Ry 
 Optimized for a Real-space Cutoff    1.00 Angstroem

   l    n(q)    QCUT    max X(q) W(low)/X(q) W(high)/X(q)  e(spline) 
   0      7    11.387    20.381    0.39E-03    0.13E-02    0.15E-06
   0      7    11.387    15.268    0.42E-03    0.14E-02    0.17E-06
   1      6    11.387     5.964    0.41E-03    0.11E-02    0.17E-06
   1      6    11.387     5.382    0.39E-03    0.87E-03    0.15E-06
  PAW_PBE Ag 02Apr2005                  :
 energy of atom  1       EATOM=-1037.2675
 kinetic energy error for atom=    0.0052 (will be added to EATOM!!)
  PAW_PBE Mn 06Sep2000                  :
 energy of atom  2       EATOM= -416.7541
 kinetic energy error for atom=    0.0024 (will be added to EATOM!!)
  PAW_PBE O 08Apr2002                   :
 energy of atom  3       EATOM= -432.3788
 kinetic energy error for atom=    0.0224 (will be added to EATOM!!)
 
 
 POSCAR: Ag-Mn-O
  positions in direct lattice
  velocities in cartesian coordinates
 exchange correlation table for  LEXCH =        8
   RHO(1)=    0.500       N(1)  =     2000
   RHO(2)=  100.500       N(2)  =     4000

 VTST: version 3.2, (02/03/18)

 CHAIN: initializing optimizer
 
 OPT: Using VASP Conjugate-Gradient optimizer
 CHAIN: Read ICHAIN            0
 
 POSCAR: Ag-Mn-O
  positions in direct lattice
  velocities in cartesian coordinates
 


--------------------------------------------------------------------------------------------------------


 ion  position               nearest neighbor table
   1  0.000  0.000  0.238-   2 2.93   8 2.93   7 2.93   6 2.93   4 2.93  12 2.93  16 2.93  10 2.93
                             3 2.93
   2  0.333  0.000  0.238-   1 2.93   8 2.93   9 2.93   3 2.93   4 2.93   5 2.93  10 2.93  17 2.93
                            11 2.93
   3  0.667  0.000  0.238-   9 2.93   2 2.93   5 2.93  11 2.93   7 2.93  18 2.93   1 2.93   6 2.93
                            12 2.93
   4  0.000  0.333  0.238-   5 2.93   6 2.93   2 2.93   1 2.93   7 2.93  13 2.93  15 2.93   9 2.93
                            10 2.93
   5  0.333  0.333  0.238-   4 2.93   3 2.93   7 2.93   2 2.93   8 2.93  14 2.93  13 2.93  11 2.93
                             6 2.93
   6  0.667  0.333  0.238-   4 2.93   9 2.93   1 2.93  15 2.93   8 2.93  12 2.93   3 2.93   5 2.93
                            14 2.93
   7  0.000  0.667  0.238-   8 2.93   1 2.93   5 2.93   3 2.93   4 2.93  16 2.93  18 2.93  13 2.93
                             9 2.93
   8  0.333  0.667  0.238-   7 2.93   1 2.93   2 2.93   9 2.93   5 2.93  16 2.93   6 2.93  17 2.93
                            14 2.93
   9  0.667  0.667  0.238-   3 2.93   2 2.93   8 2.93   6 2.93  17 2.93   4 2.93  15 2.93   7 2.93
                            18 2.93
  10  0.111  0.111  0.346-  20 2.92  19 2.93  26 2.93  12 2.93  16 2.93  15 2.93  17 2.93  13 2.93
                            11 2.93   2 2.93   1 2.93   4 2.93
  11  0.444  0.111  0.346-  21 2.90  20 2.90  27 2.92  14 2.93  17 2.93  18 2.93   3 2.93  12 2.93
                            13 2.93  10 2.93   5 2.93   2 2.93
  12  0.778  0.111  0.346-  21 2.92  25 2.93  19 2.93  10 2.93  16 2.93  18 2.93  15 2.93  11 2.93
                             1 2.93  14 2.93   6 2.93   3 2.93
  13  0.111  0.444  0.346-  20 2.90  23 2.90  22 2.92  15 2.93  14 2.93  18 2.93  10 2.93  11 2.93
                            16 2.93   4 2.93   5 2.93   7 2.93
  14  0.444  0.444  0.346-  23 2.90  21 2.90  24 2.92  13 2.93  11 2.93  16 2.93   5 2.93  12 2.93
                            17 2.93   8 2.93  15 2.93   6 2.93
  15  0.778  0.444  0.346-  24 2.92  22 2.92  19 2.92  13 2.93  10 2.93  12 2.93  17 2.93  18 2.93
                             4 2.93   6 2.93   9 2.93  14 2.93
  16  0.111  0.778  0.346-  23 2.92  26 2.93  25 2.93  18 2.93  12 2.93  10 2.93  14 2.93  17 2.93
                            13 2.93   7 2.93   8 2.93   1 2.93
  17  0.444  0.778  0.346-  27 2.92  24 2.92  26 2.92  11 2.93  10 2.93   9 2.93  18 2.93  15 2.93
                            16 2.93   2 2.93  14 2.93   8 2.93
  18  0.778  0.778  0.346-  22 2.92  27 2.92  25 2.92  16 2.93  12 2.93  13 2.93  11 2.93  17 2.93
                            15 2.93   7 2.93   3 2.93   9 2.93
  19  0.889  0.223  0.454-  28 2.91  15 2.92  10 2.93  12 2.93  24 2.93  22 2.93  26 2.94  25 2.94
                            20 2.94  21 2.94  32 2.95  31 2.95
  20  0.223  0.223  0.453-  36 2.71  31 2.90  29 2.90  13 2.90  11 2.90  21 2.91  23 2.91  10 2.92
                            27 2.93  22 2.93  19 2.94  26 2.94
  21  0.554  0.223  0.453-  36 2.71  30 2.90  32 2.90  11 2.90  14 2.90  20 2.91  23 2.91  12 2.92
                            27 2.93  24 2.93  25 2.94  19 2.94
  22  0.888  0.556  0.453-  35 2.91  18 2.92  15 2.92  13 2.92  24 2.93  27 2.93  33 2.93  31 2.93
                            25 2.93  19 2.93  23 2.93  20 2.93
  23  0.223  0.554  0.453-  36 2.71  34 2.90  33 2.90  14 2.90  13 2.90  21 2.91  20 2.91  16 2.92
                            22 2.93  24 2.93  26 2.94  25 2.94
  24  0.556  0.556  0.453-  35 2.91  15 2.92  17 2.92  14 2.92  27 2.93  22 2.93  32 2.93  34 2.93
                            19 2.93  26 2.93  23 2.93  21 2.93
  25  0.889  0.889  0.454-  28 2.91  18 2.92  16 2.93  12 2.93  22 2.93  27 2.93  26 2.94  19 2.94
                            23 2.94  21 2.94  33 2.95  30 2.95
  26  0.223  0.889  0.454-  28 2.91  17 2.92  16 2.93  10 2.93  27 2.93  24 2.93  25 2.94  19 2.94
                            23 2.94  20 2.94  34 2.95  29 2.95
  27  0.556  0.888  0.453-  35 2.91  17 2.92  18 2.92  11 2.92  24 2.93  22 2.93  29 2.93  30 2.93
                            26 2.93  25 2.93  20 2.93  21 2.93
  28  0.000  0.000  0.560-  26 2.91  25 2.91  19 2.91  29 2.97  34 2.97  33 2.97  32 2.97  31 2.97
                            30 2.97
  29  0.333  0.008  0.561-  31 2.86  30 2.86  36 2.87  20 2.90  27 2.93  26 2.95  28 2.97  35 2.97
                            34 3.07
  30  0.659  0.008  0.561-  32 2.86  29 2.86  36 2.87  21 2.90  27 2.93  25 2.95  28 2.97  35 2.97
                            33 3.07
  31  0.008  0.333  0.561-  29 2.86  33 2.86  36 2.87  20 2.90  22 2.93  19 2.95  28 2.97  35 2.97
                            32 3.07
  32  0.659  0.333  0.561-  30 2.86  34 2.86  36 2.87  21 2.90  24 2.93  19 2.95  28 2.97  35 2.97
                            31 3.07
  33  0.008  0.659  0.561-  34 2.86  31 2.86  36 2.87  23 2.90  22 2.93  25 2.95  28 2.97  35 2.97
                            30 3.07
  34  0.333  0.659  0.561-  33 2.86  32 2.86  36 2.87  23 2.90  24 2.93  26 2.95  28 2.97  35 2.97
                            29 3.07
  35  0.667  0.667  0.560-  24 2.91  27 2.91  22 2.91  32 2.97  30 2.97  29 2.97  34 2.97  31 2.97
                            33 2.97
  36  0.333  0.333  0.549-  37 1.60  21 2.71  20 2.71  23 2.71  31 2.87  30 2.87  33 2.87  29 2.87
                            34 2.87  32 2.87
  37  0.333  0.333  0.621-  36 1.60
 
  LATTYP: Found a hexagonal cell.
 ALAT       =     8.7913665772
 C/A-ratio  =     2.5227160501
  
  Lattice vectors:
  
 A1 = (  -4.3956832886,  -7.6135467898,   0.0000000000)
 A2 = (   8.7913665771,   0.0000000000,   0.0000000000)
 A3 = (   0.0000000000,   0.0000000000,  22.1781215668)


Analysis of symmetry for initial positions (statically):
=====================================================================
 Subroutine PRICEL returns:
 Original cell was already a primitive cell.
 

 Routine SETGRP: Setting up the symmetry group for a 
 hexagonal supercell.


 Subroutine GETGRP returns: Found  6 space group operations
 (whereof  6 operations were pure point group operations)
 out of a pool of 24 trial point group operations.


The static configuration has the point symmetry C_3v.


Analysis of symmetry for dynamics (positions and initial velocities):
=====================================================================
 Subroutine PRICEL returns:
 Original cell was already a primitive cell.
 

 Routine SETGRP: Setting up the symmetry group for a 
 hexagonal supercell.


 Subroutine GETGRP returns: Found  6 space group operations
 (whereof  6 operations were pure point group operations)
 out of a pool of 24 trial point group operations.


The dynamic configuration has the point symmetry C_3v.


Analysis of constrained symmetry for selective dynamics:
=====================================================================
 Subroutine PRICEL returns:
 Original cell was already a primitive cell.
 

 Routine SETGRP: Setting up the symmetry group for a 
 hexagonal supercell.


 Subroutine GETGRP returns: Found  6 space group operations
 (whereof  6 operations were pure point group operations)
 out of a pool of 24 trial point group operations.


The constrained configuration has the point symmetry C_3v.


 Subroutine INISYM returns: Found  6 space group operations
 (whereof  6 operations are pure point group operations),
 and found     1 'primitive' translations


----------------------------------------------------------------------------------------

                                     Primitive cell                                     

  volume of cell :    1484.4589

  direct lattice vectors                    reciprocal lattice vectors
     8.791366577  0.000000000  0.000000000     0.113747958 -0.065672414  0.000000000
     4.395683289  7.613546790  0.000000000     0.000000000  0.131344829  0.000000000
     0.000000000  0.000000000 22.178121567     0.000000000  0.000000000  0.045089481

  length of vectors
     8.791366577  8.791366577 22.178121567     0.131344829  0.131344829  0.045089481

  position of ions in fractional coordinates (direct lattice)
     0.000000000  0.000000000  0.238171124
     0.333333313  0.000000000  0.238171124
     0.666666627  0.000000000  0.238171124
     0.000000000  0.333333343  0.238171124
     0.333333313  0.333333343  0.238171124
     0.666666687  0.333333343  0.238171124
     0.000000000  0.666666687  0.238171124
     0.333333313  0.666666687  0.238171124
     0.666666627  0.666666687  0.238171124
     0.111111104  0.111111112  0.346057051
     0.444444448  0.111111112  0.346057051
     0.777777791  0.111111112  0.346057051
     0.111111097  0.444444448  0.346057051
     0.444444418  0.444444448  0.346057051
     0.777777791  0.444444448  0.346057051
     0.111111104  0.777777791  0.346057051
     0.444444448  0.777777791  0.346057051
     0.777777791  0.777777791  0.346057051
     0.888714883  0.222570249  0.453663014
     0.223066128  0.223066143  0.452714222
     0.553867683  0.223066143  0.452714222
     0.888483964  0.555758048  0.453313683
     0.223066143  0.553867743  0.452714222
     0.555758048  0.555758048  0.453313683
     0.888714883  0.888714883  0.453663014
     0.222570219  0.888714883  0.453663014
     0.555757988  0.888483964  0.453313683
     0.000000000  0.000000000  0.560253222
     0.333276683  0.007879607  0.560847750
     0.658843650  0.007879607  0.560847750
     0.007879607  0.333276713  0.560847750
     0.658843710  0.333276713  0.560847750
     0.007879607  0.658843710  0.560847750
     0.333276683  0.658843710  0.560847750
     0.666666627  0.666666687  0.560223949
     0.333333313  0.333333343  0.548724862
     0.333333313  0.333333343  0.620797289

  ion indices of the primitive-cell ions
   primitive index   ion index
                 1           1
                 2           2
                 3           3
                 4           4
                 5           5
                 6           6
                 7           7
                 8           8
                 9           9
                10          10
                11          11
                12          12
                13          13
                14          14
                15          15
                16          16
                17          17
                18          18
                19          19
                20          20
                21          21
                22          22
                23          23
                24          24
                25          25
                26          26
                27          27
                28          28
                29          29
                30          30
                31          31
                32          32
                33          33
                34          34
                35          35
                36          36
                37          37

----------------------------------------------------------------------------------------

 
 
 KPOINTS: Automatic mesh                          

Automatic generation of k-mesh.
 Grid dimensions read from file:
 generate k-points for:    8    8    1

 Generating k-lattice:

  Cartesian coordinates                     Fractional coordinates (reciprocal lattice)
     0.014218495 -0.008209052  0.000000000     0.125000000  0.000000000  0.000000000
     0.000000000  0.016418104  0.000000000     0.000000000  0.125000000  0.000000000
     0.000000000  0.000000000  0.045089481     0.000000000  0.000000000  1.000000000

  Length of vectors
     0.016418104  0.016418104  0.045089481

  Shift w.r.t. Gamma in fractional coordinates (k-lattice)
     0.000000000  0.000000000  0.000000000

 TETIRR: Found     36 inequivalent tetrahedra from      384
 
 Subroutine IBZKPT returns following result:
 ===========================================
 
 Found     10 irreducible k-points:
 
 Following reciprocal coordinates:
            Coordinates               Weight
  0.000000  0.000000  0.000000      1.000000
  0.125000 -0.000000  0.000000      6.000000
  0.250000 -0.000000  0.000000      6.000000
  0.375000 -0.000000  0.000000      6.000000
  0.500000 -0.000000  0.000000      3.000000
  0.250000  0.125000  0.000000      6.000000
  0.375000  0.125000  0.000000     12.000000
  0.500000  0.125000  0.000000     12.000000
  0.500000  0.250000  0.000000      6.000000
 -0.375000  0.250000  0.000000      6.000000
 
 Following cartesian coordinates:
            Coordinates               Weight
  0.000000  0.000000  0.000000      1.000000
  0.014218 -0.008209  0.000000      6.000000
  0.028437 -0.016418  0.000000      6.000000
  0.042655 -0.024627  0.000000      6.000000
  0.056874 -0.032836  0.000000      3.000000
  0.028437 -0.000000  0.000000      6.000000
  0.042655 -0.008209  0.000000     12.000000
  0.056874 -0.016418  0.000000     12.000000
  0.056874 -0.000000  0.000000      6.000000
 -0.042655  0.057463  0.000000      6.000000
 


--------------------------------------------------------------------------------------------------------




 Dimension of arrays:
   k-points           NKPTS =     10   k-points in BZ     NKDIM =     10   number of bands    NBANDS=    252
   number of dos      NEDOS =    301   number of ions     NIONS =     37
   non local maximal  LDIM  =      6   non local SUM 2l+1 LMDIM =     18
   total plane-waves  NPLWV = 290304
   max r-space proj   IRMAX =   2452   max aug-charges    IRDMAX=   9814
   dimension x,y,z NGX =    48 NGY =   48 NGZ =  126
   dimension x,y,z NGXF=    96 NGYF=   96 NGZF=  252
   support grid    NGXF=    96 NGYF=   96 NGZF=  252
   ions per type =              35   1   1
   NGX,Y,Z   is equivalent  to a cutoff of   9.08,  9.08,  9.44 a.u.
   NGXF,Y,Z  is equivalent  to a cutoff of  18.15, 18.15, 18.89 a.u.

 SYSTEM =  unknown system                          
 POSCAR =  Ag-Mn-O                                 

 Startparameter for this run:
   NWRITE =      2    write-flag & timer
   PREC   = normal    normal or accurate (medium, high low for compatibility)
   ISTART =      0    job   : 0-new  1-cont  2-samecut
   ICHARG =     11    charge: 1-file 2-atom 10-const
   ISPIN  =      1    spin polarized calculation?
   LNONCOLLINEAR =      F non collinear calculations
   LSORBIT =      F    spin-orbit coupling
   INIWAV =      1    electr: 0-lowe 1-rand  2-diag
   LASPH  =      F    aspherical Exc in radial PAW
   METAGGA=      F    non-selfconsistent MetaGGA calc.

 Electronic Relaxation 1
   ENCUT  =  500.0 eV  36.75 Ry    6.06 a.u.  16.03 16.03 40.44*2*pi/ulx,y,z
   ENINI  =  500.0     initial cutoff
   ENAUG  =  605.4 eV  augmentation charge cutoff
   NELM   =    150;   NELMIN=  2; NELMDL= -5     # of ELM steps 
   EDIFF  = 0.1E-04   stopping-criterion for ELM
   LREAL  =      T    real-space projection
   NLSPLINE    = F    spline interpolate recip. space projectors
   LCOMPAT=      F    compatible to vasp.4.4
   GGA_COMPAT  = T    GGA compatible to vasp.4.4-vasp.4.6
   LMAXPAW     = -100 max onsite density
   LMAXMIX     =    2 max onsite mixed and CHGCAR
   VOSKOWN=      0    Vosko Wilk Nusair interpolation
   ROPT   =   -0.00050  -0.00050  -0.00050
 Ionic relaxation
   EDIFFG = -.1E-01   stopping-criterion for IOM
   NSW    =      0    number of steps for IOM
   NBLOCK =      1;   KBLOCK =      1    inner block; outer block 
   IBRION =     -1    ionic relax: 0-MD 1-quasi-New 2-CG
   NFREE  =      1    steps in history (QN), initial steepest desc. (CG)
   ISIF   =      2    stress and relaxation
   IWAVPR =     10    prediction:  0-non 1-charg 2-wave 3-comb
   ISYM   =      2    0-nonsym 1-usesym 2-fastsym
   LCORR  =      T    Harris-Foulkes like correction to forces

   POTIM  = 0.5000    time-step for ionic-motion
   TEIN   =    0.0    initial temperature
   TEBEG  =    0.0;   TEEND  =   0.0 temperature during run
   SMASS  =  -3.00    Nose mass-parameter (am)
   estimated Nose-frequenzy (Omega)   =  0.10E-29 period in steps = 0.13E+47 mass=  -0.177E-26a.u.
   SCALEE = 1.0000    scale energy and forces
   NPACO  =    256;   APACO  = 16.0  distance and # of slots for P.C.
   PSTRESS=    0.0 pullay stress

  Mass of Ions in am
   POMASS = 107.87 54.94 16.00
  Ionic Valenz
   ZVAL   =  11.00  7.00  6.00
  Atomic Wigner-Seitz radii
   RWIGS  =  -1.00 -1.00 -1.00
  virtual crystal weights 
   VCA    =   1.00  1.00  1.00
   NELECT =     398.0000    total number of electrons
   NUPDOWN=      -1.0000    fix difference up-down

 DOS related values:
   EMIN   =  10.00;   EMAX   =-10.00  energy-range for DOS
   EFERMI =   0.00
   ISMEAR =    -5;   SIGMA  =   0.10  broadening in eV -4-tet -1-fermi 0-gaus

 Electronic relaxation 2 (details)
   IALGO  =     68    algorithm
   LDIAG  =      T    sub-space diagonalisation (order eigenvalues)
   LSUBROT=      F    optimize rotation matrix (better conditioning)
   TURBO    =      0    0=normal 1=particle mesh
   IRESTART =      0    0=no restart 2=restart with 2 vectors
   NREBOOT  =      0    no. of reboots
   NMIN     =      0    reboot dimension
   EREF     =   0.00    reference energy to select bands
   IMIX   =      4    mixing-type and parameters
     AMIX     =   0.40;   BMIX     =  1.00
     AMIX_MAG =   1.60;   BMIX_MAG =  1.00
     AMIN     =   0.10
     WC   =   100.;   INIMIX=   1;  MIXPRE=   1;  MAXMIX= -45

 Intra band minimization:
   WEIMIN = 0.0000     energy-eigenvalue tresh-hold
   EBREAK =  0.99E-08  absolut break condition
   DEPER  =   0.30     relativ break condition  

   TIME   =   0.40     timestep for ELM

  volume/ion in A,a.u.               =      40.12       270.75
  Fermi-wavevector in a.u.,A,eV,Ry     =   1.055633  1.994858 15.161814  1.114362
  Thomas-Fermi vector in A             =   2.190839
 
 Write flags
   LWAVE        =      F    write WAVECAR
   LDOWNSAMPLE  =      F    k-point downsampling of WAVECAR
   LCHARG       =      F    write CHGCAR
   LVTOT        =      F    write LOCPOT, total local potential
   LVHAR        =      F    write LOCPOT, Hartree potential only
   LELF         =      F    write electronic localiz. function (ELF)
   LORBIT       =     10    0 simple, 1 ext, 2 COOP (PROOUT), +10 PAW based schemes


 Dipole corrections
   LMONO  =      F    monopole corrections only (constant potential shift)
   LDIPOL =      F    correct potential (dipole corrections)
   IDIPOL =      0    1-x, 2-y, 3-z, 4-all directions 
   EPSILON=  1.0000000 bulk dielectric constant

 Exchange correlation treatment:
   GGA     =    --    GGA type
   LEXCH   =     8    internal setting for exchange type
   VOSKOWN=      0    Vosko Wilk Nusair interpolation
   LHFCALC =     F    Hartree Fock is set to
   LHFONE  =     F    Hartree Fock one center treatment
   AEXX    =    0.0000 exact exchange contribution

 Linear response parameters
   LEPSILON=     F    determine dielectric tensor
   LRPA    =     F    only Hartree local field effects (RPA)
   LNABLA  =     F    use nabla operator in PAW spheres
   LVEL    =     F    velocity operator in full k-point grid
   LINTERFAST=   F  fast interpolation
   KINTER  =     0    interpolate to denser k-point grid
   CSHIFT  =0.1000    complex shift for real part using Kramers Kronig
   OMEGAMAX=  -1.0    maximum frequency
   DEG_THRESHOLD= 0.2000000E-02 threshold for treating states as degnerate
   RTIME   =   -0.100 relaxation time in fs
  (WPLASMAI=    0.000 imaginary part of plasma frequency in eV, 0.658/RTIME)
   DFIELD  = 0.0000000 0.0000000 0.0000000 field for delta impulse in time
 
 Orbital magnetization related:
   ORBITALMAG=     F  switch on orbital magnetization
   LCHIMAG   =     F  perturbation theory with respect to B field
   DQ        =  0.001000  dq finite difference perturbation B field
   LLRAUG    =     F  two centre corrections for induced B field



--------------------------------------------------------------------------------------------------------


 Static calculation
 charge density and potential remain constant during run
 non-spin polarized calculation
 RMM-DIIS sequential band-by-band and
  variant of blocked Davidson during initial phase
 perform sub-space diagonalisation
    before iterative eigenvector-optimisation
 no mixing
 using additional bands           53
 real space projection scheme for non local part
 use partial core corrections
 calculate Harris-corrections to forces 
   (improved forces if not selfconsistent)
 use gradient corrections 
 WARNING: stress and forces are not correct
  (second derivative of E(xc) not defined)
 use of overlap-Matrix (Vanderbilt PP)
 Fermi weights with tetrahedron method with Bloechl corrections


--------------------------------------------------------------------------------------------------------


  energy-cutoff  :      500.00
  volume of cell :     1484.46
      direct lattice vectors                 reciprocal lattice vectors
     8.791366577  0.000000000  0.000000000     0.113747958 -0.065672414  0.000000000
     4.395683289  7.613546790  0.000000000     0.000000000  0.131344829  0.000000000
     0.000000000  0.000000000 22.178121567     0.000000000  0.000000000  0.045089481

  length of vectors
     8.791366577  8.791366577 22.178121567     0.131344829  0.131344829  0.045089481


 
 k-points in units of 2pi/SCALE and weight: Automatic mesh                          
   0.00000000  0.00000000  0.00000000       0.016
   0.01421849 -0.00820905  0.00000000       0.094
   0.02843699 -0.01641810  0.00000000       0.094
   0.04265548 -0.02462716  0.00000000       0.094
   0.05687398 -0.03283621  0.00000000       0.047
   0.02843699 -0.00000000  0.00000000       0.094
   0.04265548 -0.00820905  0.00000000       0.188
   0.05687398 -0.01641810  0.00000000       0.188
   0.05687398 -0.00000000  0.00000000       0.094
  -0.04265548  0.05746336  0.00000000       0.094
 
 k-points in reciprocal lattice and weights: Automatic mesh                          
   0.00000000  0.00000000  0.00000000       0.016
   0.12500000 -0.00000000  0.00000000       0.094
   0.25000000 -0.00000000  0.00000000       0.094
   0.37500000 -0.00000000  0.00000000       0.094
   0.50000000 -0.00000000  0.00000000       0.047
   0.25000000  0.12500000  0.00000000       0.094
   0.37500000  0.12500000  0.00000000       0.188
   0.50000000  0.12500000  0.00000000       0.188
   0.50000000  0.25000000  0.00000000       0.094
  -0.37500000  0.25000000  0.00000000       0.094
 
 position of ions in fractional coordinates (direct lattice) 
   0.00000000  0.00000000  0.23817112
   0.33333331  0.00000000  0.23817112
   0.66666663  0.00000000  0.23817112
   0.00000000  0.33333334  0.23817112
   0.33333331  0.33333334  0.23817112
   0.66666669  0.33333334  0.23817112
   0.00000000  0.66666669  0.23817112
   0.33333331  0.66666669  0.23817112
   0.66666663  0.66666669  0.23817112
   0.11111110  0.11111111  0.34605705
   0.44444445  0.11111111  0.34605705
   0.77777779  0.11111111  0.34605705
   0.11111110  0.44444445  0.34605705
   0.44444442  0.44444445  0.34605705
   0.77777779  0.44444445  0.34605705
   0.11111110  0.77777779  0.34605705
   0.44444445  0.77777779  0.34605705
   0.77777779  0.77777779  0.34605705
   0.88871488  0.22257025  0.45366301
   0.22306613  0.22306614  0.45271422
   0.55386768  0.22306614  0.45271422
   0.88848396  0.55575805  0.45331368
   0.22306614  0.55386774  0.45271422
   0.55575805  0.55575805  0.45331368
   0.88871488  0.88871488  0.45366301
   0.22257022  0.88871488  0.45366301
   0.55575799  0.88848396  0.45331368
   0.00000000  0.00000000  0.56025322
   0.33327668  0.00787961  0.56084775
   0.65884365  0.00787961  0.56084775
   0.00787961  0.33327671  0.56084775
   0.65884371  0.33327671  0.56084775
   0.00787961  0.65884371  0.56084775
   0.33327668  0.65884371  0.56084775
   0.66666663  0.66666669  0.56022395
   0.33333331  0.33333334  0.54872486
   0.33333331  0.33333334  0.62079729
 
 position of ions in cartesian coordinates  (Angst):
   0.00000000  0.00000000  5.28218814
   2.93045535  0.00000000  5.28218814
   5.86091070  0.00000000  5.28218814
   1.46522781  2.53784900  5.28218814
   4.39568315  2.53784900  5.28218814
   7.32613904  2.53784900  5.28218814
   2.93045562  5.07569801  5.28218814
   5.86091096  5.07569801  5.28218814
   8.79136632  5.07569801  5.28218814
   1.46522770  0.84594965  7.67489535
   4.39568332  0.84594965  7.67489535
   7.32613893  0.84594965  7.67489535
   2.93045542  3.38379860  7.67489535
   5.86091083  3.38379860  7.67489535
   8.79136671  3.38379860  7.67489535
   4.39568328  5.92164760  7.67489535
   7.32613890  5.92164760  7.67489535
  10.25659451  5.92164760  7.67489535
   8.79136665  1.69454901 10.06139347
   2.94158422  1.69832452 10.04035105
   5.84978196  1.69832452 10.04035105
  10.25392459  4.23128990 10.05364597
   4.39568342  4.21689798 10.04035105
   7.32880909  4.23128990 10.05364597
  11.71952748  6.76627235 10.06139347
   5.86320555  6.76627235 10.06139347
   8.79136631  6.76451423 10.05364597
   0.00000000  0.00000000 12.42536406
   2.96459375  0.05999176 12.43854957
   5.82677230  0.05999176 12.43854957
   1.53425139  2.53741785 12.43854957
   7.25711545  2.53741785 12.43854957
   2.96534080  5.01613741 12.43854957
   5.82602577  5.01613741 12.43854957
   8.79136632  5.07569801 12.42471485
   4.39568315  2.53784900 12.16968670
   4.39568315  2.53784900 13.76811775
 


--------------------------------------------------------------------------------------------------------


 k-point   1 :   0.0000 0.0000 0.0000  plane waves:   37683
 k-point   2 :   0.1250-0.0000 0.0000  plane waves:   37658
 k-point   3 :   0.2500-0.0000 0.0000  plane waves:   37682
 k-point   4 :   0.3750-0.0000 0.0000  plane waves:   37686
 k-point   5 :   0.5000-0.0000 0.0000  plane waves:   37668
 k-point   6 :   0.2500 0.1250 0.0000  plane waves:   37666
 k-point   7 :   0.3750 0.1250 0.0000  plane waves:   37708
 k-point   8 :   0.5000 0.1250 0.0000  plane waves:   37726
 k-point   9 :   0.5000 0.2500 0.0000  plane waves:   37706
 k-point  10 :  -0.3750 0.2500 0.0000  plane waves:   37686

 maximum and minimum number of plane-waves per node :     37726    37658

 maximum number of plane-waves:     37726
 maximum index in each direction: 
   IXMAX=   16   IYMAX=   16   IZMAX=   40
   IXMIN=  -16   IYMIN=  -16   IZMIN=  -40


 serial   3D FFT for wavefunctions
 parallel 3D FFT for charge:
    minimum data exchange during FFTs selected (reduces bandwidth)


 total amount of memory used by VASP MPI-rank0   122902. kBytes
=======================================================================

   base      :      30000. kBytes
   nonlr-proj:      14799. kBytes
   fftplans  :       4330. kBytes
   grid      :      17879. kBytes
   one-center:        575. kBytes
   wavefun   :      55319. kBytes
 
     INWAV:  cpu time    0.0000: real time    0.0000
 initial charge density was supplied:
 number of electron     397.9999966 magnetization 
 keeping initial charge density in first step


--------------------------------------------------------------------------------------------------------


 Maximum index for non-local projection operator         2350
 Maximum index for augmentation-charges          703 (set IRDMAX)


--------------------------------------------------------------------------------------------------------


 First call to EWALD:  gamma=   0.155
 Maximum number of real-space cells 4x 4x 2
 Maximum number of reciprocal cells 2x 2x 5

    FEWALD:  cpu time    0.0013: real time    0.0013


--------------------------------------- Iteration      1(   1)  ---------------------------------------


    POTLOK:  cpu time    0.0407: real time    0.0412
    SETDIJ:  cpu time    0.0046: real time    0.0047
     EDDAV:  cpu time    7.1801: real time    7.1818
 BZINTS: Fermi energy:    9.757123;  398.000000 electrons
         Band energy: 0.124390E+04;  BLOECHL correction:   -0.005911
       DOS:  cpu time    0.0102: real time    0.0102
    --------------------------------------------
      LOOP:  cpu time    7.2356: real time    7.2380

 eigenvalue-minimisations  :  5040
 total energy-change (2. order) : 0.2472925E+04  (-0.1837659E+05)
 number of electron     397.9999966 magnetization 
 augmentation part      397.9999966 magnetization 

 Free energy of the ion-electron system (eV)
  ---------------------------------------------------
  alpha Z        PSCENC =       752.96648471
  Ewald energy   TEWEN  =     98160.95182443
  -Hartree energ DENC   =   -136013.38927838
  -exchange      EXHF   =         0.00000000
  -V(xc)+E(xc)   XCENC  =      -374.13400961
  PAW double counting   =     39302.46014258   -37753.11726351
  entropy T*S    EENTRO =         0.00000000
  eigenvalues    EBANDS =      1243.89812231
  atomic energy  EATOM  =     37153.28896966
  Solvation  Ediel_sol  =         0.00000000
  ---------------------------------------------------
  free energy    TOTEN  =      2472.92499218 eV

  energy without entropy =     2472.92499218  energy(sigma->0) =     2472.92499218


--------------------------------------------------------------------------------------------------------




--------------------------------------- Iteration      1(   2)  ---------------------------------------


     EDDAV:  cpu time    7.1614: real time    7.1653
 BZINTS: Fermi energy:    1.434887;  398.000000 electrons
         Band energy:-0.122979E+04;  BLOECHL correction:   -0.027893
       DOS:  cpu time    0.0100: real time    0.0100
    --------------------------------------------
      LOOP:  cpu time    7.1714: real time    7.1753

 eigenvalue-minimisations  :  5040
 total energy-change (2. order) :-0.2473690E+04  (-0.2354463E+04)
 number of electron     397.9999966 magnetization 
 augmentation part      397.9999966 magnetization 

 Free energy of the ion-electron system (eV)
  ---------------------------------------------------
  alpha Z        PSCENC =       752.96648471
  Ewald energy   TEWEN  =     98160.95182443
  -Hartree energ DENC   =   -136013.38927838
  -exchange      EXHF   =         0.00000000
  -V(xc)+E(xc)   XCENC  =      -374.13400961
  PAW double counting   =     39302.46014258   -37753.11726351
  entropy T*S    EENTRO =         0.00000000
  eigenvalues    EBANDS =     -1229.79219525
  atomic energy  EATOM  =     37153.28896966
  Solvation  Ediel_sol  =         0.00000000
  ---------------------------------------------------
  free energy    TOTEN  =        -0.76532538 eV

  energy without entropy =       -0.76532538  energy(sigma->0) =       -0.76532538


--------------------------------------------------------------------------------------------------------




--------------------------------------- Iteration      1(   3)  ---------------------------------------


     EDDAV:  cpu time    8.4313: real time    8.4320
 BZINTS: Fermi energy:    0.791814;  398.000000 electrons
         Band energy:-0.132969E+04;  BLOECHL correction:   -0.043880
       DOS:  cpu time    0.0102: real time    0.0102
    --------------------------------------------
      LOOP:  cpu time    8.4415: real time    8.4421

 eigenvalue-minimisations  :  6160
 total energy-change (2. order) :-0.9989959E+02  (-0.9648059E+02)
 number of electron     397.9999966 magnetization 
 augmentation part      397.9999966 magnetization 

 Free energy of the ion-electron system (eV)
  ---------------------------------------------------
  alpha Z        PSCENC =       752.96648471
  Ewald energy   TEWEN  =     98160.95182443
  -Hartree energ DENC   =   -136013.38927838
  -exchange      EXHF   =         0.00000000
  -V(xc)+E(xc)   XCENC  =      -374.13400961
  PAW double counting   =     39302.46014258   -37753.11726351
  entropy T*S    EENTRO =         0.00000000
  eigenvalues    EBANDS =     -1329.69178574
  atomic energy  EATOM  =     37153.28896966
  Solvation  Ediel_sol  =         0.00000000
  ---------------------------------------------------
  free energy    TOTEN  =      -100.66491587 eV

  energy without entropy =     -100.66491587  energy(sigma->0) =     -100.66491587


--------------------------------------------------------------------------------------------------------




--------------------------------------- Iteration      1(   4)  ---------------------------------------


     EDDAV:  cpu time    7.7415: real time    7.7421
 BZINTS: Fermi energy:    0.776492;  398.000000 electrons
         Band energy:-0.133182E+04;  BLOECHL correction:   -0.041758
       DOS:  cpu time    0.0099: real time    0.0099
    --------------------------------------------
      LOOP:  cpu time    7.7514: real time    7.7520

 eigenvalue-minimisations  :  5544
 total energy-change (2. order) :-0.2130770E+01  (-0.2119797E+01)
 number of electron     397.9999966 magnetization 
 augmentation part      397.9999966 magnetization 

 Free energy of the ion-electron system (eV)
  ---------------------------------------------------
  alpha Z        PSCENC =       752.96648471
  Ewald energy   TEWEN  =     98160.95182443
  -Hartree energ DENC   =   -136013.38927838
  -exchange      EXHF   =         0.00000000
  -V(xc)+E(xc)   XCENC  =      -374.13400961
  PAW double counting   =     39302.46014258   -37753.11726351
  entropy T*S    EENTRO =         0.00000000
  eigenvalues    EBANDS =     -1331.82255536
  atomic energy  EATOM  =     37153.28896966
  Solvation  Ediel_sol  =         0.00000000
  ---------------------------------------------------
  free energy    TOTEN  =      -102.79568549 eV

  energy without entropy =     -102.79568549  energy(sigma->0) =     -102.79568549


--------------------------------------------------------------------------------------------------------




--------------------------------------- Iteration      1(   5)  ---------------------------------------


     EDDAV:  cpu time    8.1108: real time    8.1112
 BZINTS: Fermi energy:    0.776283;  398.000000 electrons
         Band energy:-0.133187E+04;  BLOECHL correction:   -0.041732
       DOS:  cpu time    0.0102: real time    0.0102
    --------------------------------------------
      LOOP:  cpu time    8.1210: real time    8.1214

 eigenvalue-minimisations  :  5880
 total energy-change (2. order) :-0.4664937E-01  (-0.4665191E-01)
 number of electron     397.9999966 magnetization 
 augmentation part      397.9999966 magnetization 

 Free energy of the ion-electron system (eV)
  ---------------------------------------------------
  alpha Z        PSCENC =       752.96648471
  Ewald energy   TEWEN  =     98160.95182443
  -Hartree energ DENC   =   -136013.38927838
  -exchange      EXHF   =         0.00000000
  -V(xc)+E(xc)   XCENC  =      -374.13400961
  PAW double counting   =     39302.46014258   -37753.11726351
  entropy T*S    EENTRO =         0.00000000
  eigenvalues    EBANDS =     -1331.86920473
  atomic energy  EATOM  =     37153.28896966
  Solvation  Ediel_sol  =         0.00000000
  ---------------------------------------------------
  free energy    TOTEN  =      -102.84233486 eV

  energy without entropy =     -102.84233486  energy(sigma->0) =     -102.84233486


--------------------------------------------------------------------------------------------------------




--------------------------------------- Iteration      1(   6)  ---------------------------------------


    EDDIAG:  cpu time    1.4062: real time    1.4065
  RMM-DIIS:  cpu time    4.0740: real time    4.0742
    ORTHCH:  cpu time    0.2593: real time    0.2593
 BZINTS: Fermi energy:    0.776282;  398.000000 electrons
         Band energy:-0.133187E+04;  BLOECHL correction:   -0.041732
       DOS:  cpu time    0.0101: real time    0.0101
    --------------------------------------------
      LOOP:  cpu time    5.7496: real time    5.7501

 eigenvalue-minimisations  :  5169
 total energy-change (2. order) :-0.1913367E-02  (-0.1913714E-02)
 number of electron     397.9999966 magnetization 
 augmentation part      397.9999966 magnetization 

 Free energy of the ion-electron system (eV)
  ---------------------------------------------------
  alpha Z        PSCENC =       752.96648471
  Ewald energy   TEWEN  =     98160.95182443
  -Hartree energ DENC   =   -136013.38927838
  -exchange      EXHF   =         0.00000000
  -V(xc)+E(xc)   XCENC  =      -374.13400961
  PAW double counting   =     39302.46014258   -37753.11726351
  entropy T*S    EENTRO =         0.00000000
  eigenvalues    EBANDS =     -1331.87111810
  atomic energy  EATOM  =     37153.28896966
  Solvation  Ediel_sol  =         0.00000000
  ---------------------------------------------------
  free energy    TOTEN  =      -102.84424823 eV

  energy without entropy =     -102.84424823  energy(sigma->0) =     -102.84424823


--------------------------------------------------------------------------------------------------------




--------------------------------------- Iteration      1(   7)  ---------------------------------------


    EDDIAG:  cpu time    1.4075: real time    1.4076
  RMM-DIIS:  cpu time    6.0497: real time    6.0500
    ORTHCH:  cpu time    0.2597: real time    0.2597
 BZINTS: Fermi energy:    0.776281;  398.000000 electrons
         Band energy:-0.133187E+04;  BLOECHL correction:   -0.041732
       DOS:  cpu time    0.0101: real time    0.0101
    --------------------------------------------
      LOOP:  cpu time    7.7271: real time    7.7275

 eigenvalue-minimisations  :  7728
 total energy-change (2. order) :-0.1076149E-02  (-0.1052434E-02)
 number of electron     397.9999966 magnetization 
 augmentation part      397.9999966 magnetization 

 Free energy of the ion-electron system (eV)
  ---------------------------------------------------
  alpha Z        PSCENC =       752.96648471
  Ewald energy   TEWEN  =     98160.95182443
  -Hartree energ DENC   =   -136013.38927838
  -exchange      EXHF   =         0.00000000
  -V(xc)+E(xc)   XCENC  =      -374.13400961
  PAW double counting   =     39302.46014258   -37753.11726351
  entropy T*S    EENTRO =         0.00000000
  eigenvalues    EBANDS =     -1331.87219425
  atomic energy  EATOM  =     37153.28896966
  Solvation  Ediel_sol  =         0.00000000
  ---------------------------------------------------
  free energy    TOTEN  =      -102.84532438 eV

  energy without entropy =     -102.84532438  energy(sigma->0) =     -102.84532438


--------------------------------------------------------------------------------------------------------




--------------------------------------- Iteration      1(   8)  ---------------------------------------


    EDDIAG:  cpu time    1.4092: real time    1.4092
  RMM-DIIS:  cpu time    5.8782: real time    5.8785
    ORTHCH:  cpu time    0.2602: real time    0.2603
 BZINTS: Fermi energy:    0.776281;  398.000000 electrons
         Band energy:-0.133187E+04;  BLOECHL correction:   -0.041732
       DOS:  cpu time    0.0095: real time    0.0095
    --------------------------------------------
      LOOP:  cpu time    7.5571: real time    7.5575

 eigenvalue-minimisations  :  7298
 total energy-change (2. order) :-0.1244833E-03  (-0.1249688E-03)
 number of electron     397.9999966 magnetization 
 augmentation part      397.9999966 magnetization 

 Free energy of the ion-electron system (eV)
  ---------------------------------------------------
  alpha Z        PSCENC =       752.96648471
  Ewald energy   TEWEN  =     98160.95182443
  -Hartree energ DENC   =   -136013.38927838
  -exchange      EXHF   =         0.00000000
  -V(xc)+E(xc)   XCENC  =      -374.13400961
  PAW double counting   =     39302.46014258   -37753.11726351
  entropy T*S    EENTRO =         0.00000000
  eigenvalues    EBANDS =     -1331.87231873
  atomic energy  EATOM  =     37153.28896966
  Solvation  Ediel_sol  =         0.00000000
  ---------------------------------------------------
  free energy    TOTEN  =      -102.84544886 eV

  energy without entropy =     -102.84544886  energy(sigma->0) =     -102.84544886


--------------------------------------------------------------------------------------------------------




--------------------------------------- Iteration      1(   9)  ---------------------------------------


    EDDIAG:  cpu time    1.4084: real time    1.4086
  RMM-DIIS:  cpu time    4.6348: real time    4.6351
    ORTHCH:  cpu time    0.2601: real time    0.2601
 BZINTS: Fermi energy:    0.776281;  398.000000 electrons
         Band energy:-0.133187E+04;  BLOECHL correction:   -0.041732
       DOS:  cpu time    0.0095: real time    0.0095
    --------------------------------------------
      LOOP:  cpu time    6.3128: real time    6.3133

 eigenvalue-minimisations  :  5309
 total energy-change (2. order) :-0.1629308E-04  (-0.1776426E-04)
 number of electron     397.9999966 magnetization 
 augmentation part      397.9999966 magnetization 

 Free energy of the ion-electron system (eV)
  ---------------------------------------------------
  alpha Z        PSCENC =       752.96648471
  Ewald energy   TEWEN  =     98160.95182443
  -Hartree energ DENC   =   -136013.38927838
  -exchange      EXHF   =         0.00000000
  -V(xc)+E(xc)   XCENC  =      -374.13400961
  PAW double counting   =     39302.46014258   -37753.11726351
  entropy T*S    EENTRO =         0.00000000
  eigenvalues    EBANDS =     -1331.87233502
  atomic energy  EATOM  =     37153.28896966
  Solvation  Ediel_sol  =         0.00000000
  ---------------------------------------------------
  free energy    TOTEN  =      -102.84546516 eV

  energy without entropy =     -102.84546516  energy(sigma->0) =     -102.84546516


--------------------------------------------------------------------------------------------------------




--------------------------------------- Iteration      1(  10)  ---------------------------------------


    EDDIAG:  cpu time    1.4077: real time    1.4078
  RMM-DIIS:  cpu time    3.0472: real time    3.0474
    ORTHCH:  cpu time    0.2604: real time    0.2604
 BZINTS: Fermi energy:    0.776281;  398.000000 electrons
         Band energy:-0.133187E+04;  BLOECHL correction:   -0.041732
       DOS:  cpu time    0.0099: real time    0.0099
    --------------------------------------------
      LOOP:  cpu time    4.7252: real time    4.7255

 eigenvalue-minimisations  :  3262
 total energy-change (2. order) :-0.2545508E-05  (-0.3002011E-05)
 number of electron     397.9999966 magnetization 
 augmentation part      397.9999966 magnetization 

 Free energy of the ion-electron system (eV)
  ---------------------------------------------------
  alpha Z        PSCENC =       752.96648471
  Ewald energy   TEWEN  =     98160.95182443
  -Hartree energ DENC   =   -136013.38927838
  -exchange      EXHF   =         0.00000000
  -V(xc)+E(xc)   XCENC  =      -374.13400961
  PAW double counting   =     39302.46014258   -37753.11726351
  entropy T*S    EENTRO =         0.00000000
  eigenvalues    EBANDS =     -1331.87233757
  atomic energy  EATOM  =     37153.28896966
  Solvation  Ediel_sol  =         0.00000000
  ---------------------------------------------------
  free energy    TOTEN  =      -102.84546770 eV

  energy without entropy =     -102.84546770  energy(sigma->0) =     -102.84546770


--------------------------------------------------------------------------------------------------------




 average (electrostatic) potential at core
  the test charge radii are     1.1249  1.0210  0.7215
  (the norm of the test charge is              1.0000)
       1 -78.1197       2 -78.1024       3 -78.1024       4 -78.1024       5 -78.0895
       6 -78.1022       7 -78.1024       8 -78.1022       9 -78.1231      10 -78.3379
      11 -78.3272      12 -78.3377      13 -78.3272      14 -78.3269      15 -78.3340
      16 -78.3377      17 -78.3340      18 -78.3341      19 -78.3039      20 -78.4205
      21 -78.4203      22 -78.3204      23 -78.4203      24 -78.3202      25 -78.3039
      26 -78.3039      27 -78.3204      28 -78.0440      29 -78.0300      30 -78.0300
      31 -78.0300      32 -78.0298      33 -78.0300      34 -78.0298      35 -78.0249
      36 -49.3554      37 -75.9242
 
 
 
 E-fermi :   0.7763     XC(G=0):  -5.8693     alpha+bet : -5.5762

 Fermi energy:         0.7762812951

 k-point     1 :       0.0000    0.0000    0.0000
  band No.  band energies     occupation 
      1     -17.8076      2.00000
      2      -6.3371      2.00000
      3      -5.4695      2.00000
      4      -5.1714      2.00000
      5      -5.1232      2.00000
      6      -5.0579      2.00000
      7      -5.0579      2.00000
      8      -5.0549      2.00000
      9      -5.0519      2.00000
     10      -5.0519      2.00000
     11      -5.0352      2.00000
     12      -5.0226      2.00000
     13      -5.0150      2.00000
     14      -5.0149      2.00000
     15      -4.9971      2.00000
     16      -4.9971      2.00000
     17      -4.9612      2.00000
     18      -4.8787      2.00000
     19      -4.8482      2.00000
     20      -4.8482      2.00000
     21      -4.8419      2.00000
     22      -4.8332      2.00000
     23      -4.8332      2.00000
     24      -4.6760      2.00000
     25      -4.6495      2.00000
     26      -4.6495      2.00000
     27      -4.6470      2.00000
     28      -4.6257      2.00000
     29      -4.6232      2.00000
     30      -4.6164      2.00000
     31      -4.6164      2.00000
     32      -4.5994      2.00000
     33      -4.5994      2.00000
     34      -4.5893      2.00000
     35      -4.5893      2.00000
     36      -4.5125      2.00000
     37      -4.4812      2.00000
     38      -4.4812      2.00000
     39      -4.4589      2.00000
     40      -4.3287      2.00000
     41      -4.3287      2.00000
     42      -4.2985      2.00000
     43      -4.2728      2.00000
     44      -4.2727      2.00000
     45      -4.2542      2.00000
     46      -4.2542      2.00000
     47      -4.2355      2.00000
     48      -4.2355      2.00000
     49      -4.2309      2.00000
     50      -4.2151      2.00000
     51      -4.2151      2.00000
     52      -4.1886      2.00000
     53      -4.1037      2.00000
     54      -4.1022      2.00000
     55      -4.0733      2.00000
     56      -4.0480      2.00000
     57      -4.0479      2.00000
     58      -3.9231      2.00000
     59      -3.8647      2.00000
     60      -3.8624      2.00000
     61      -3.8624      2.00000
     62      -3.8578      2.00000
     63      -3.8453      2.00000
     64      -3.8453      2.00000
     65      -3.8344      2.00000
     66      -3.8273      2.00000
     67      -3.8272      2.00000
     68      -3.8077      2.00000
     69      -3.8077      2.00000
     70      -3.7075      2.00000
     71      -3.7075      2.00000
     72      -3.6904      2.00000
     73      -3.6835      2.00000
     74      -3.6835      2.00000
     75      -3.6780      2.00000
     76      -3.6700      2.00000
     77      -3.6700      2.00000
     78      -3.6478      2.00000
     79      -3.6465      2.00000
     80      -3.6464      2.00000
     81      -3.6120      2.00000
     82      -3.6120      2.00000
     83      -3.6107      2.00000
     84      -3.6107      2.00000
     85      -3.6073      2.00000
     86      -3.6044      2.00000
     87      -3.5543      2.00000
     88      -3.5543      2.00000
     89      -3.4762      2.00000
     90      -3.4722      2.00000
     91      -3.4722      2.00000
     92      -3.4431      2.00000
     93      -3.4431      2.00000
     94      -3.4094      2.00000
     95      -3.4094      2.00000
     96      -3.3949      2.00000
     97      -3.3949      2.00000
     98      -3.3790      2.00000
     99      -3.3790      2.00000
    100      -3.3518      2.00000
    101      -3.1579      2.00000
    102      -3.1579      2.00000
    103      -3.1557      2.00000
    104      -3.1479      2.00000
    105      -3.1479      2.00000
    106      -3.1302      2.00000
    107      -3.1302      2.00000
    108      -3.1251      2.00000
    109      -3.0852      2.00000
    110      -3.0660      2.00000
    111      -3.0660      2.00000
    112      -3.0474      2.00000
    113      -3.0474      2.00000
    114      -3.0339      2.00000
    115      -3.0323      2.00000
    116      -2.9175      2.00000
    117      -2.9174      2.00000
    118      -2.9162      2.00000
    119      -2.8858      2.00000
    120      -2.8858      2.00000
    121      -2.8616      2.00000
    122      -2.8616      2.00000
    123      -2.8087      2.00000
    124      -2.8087      2.00000
    125      -2.7949      2.00000
    126      -2.7792      2.00000
    127      -2.7791      2.00000
    128      -2.7626      2.00000
    129      -2.7626      2.00000
    130      -2.7580      2.00000
    131      -2.7545      2.00000
    132      -2.7545      2.00000
    133      -2.7542      2.00000
    134      -2.7468      2.00000
    135      -2.7065      2.00000
    136      -2.7065      2.00000
    137      -2.5682      2.00000
    138      -2.5681      2.00000
    139      -2.5670      2.00000
    140      -2.5655      2.00000
    141      -2.5655      2.00000
    142      -2.5560      2.00000
    143      -2.5485      2.00000
    144      -2.5485      2.00000
    145      -2.5423      2.00000
    146      -2.5423      2.00000
    147      -2.5366      2.00000
    148      -2.5220      2.00000
    149      -2.5142      2.00000
    150      -2.5142      2.00000
    151      -2.4698      2.00000
    152      -2.4566      2.00000
    153      -2.4518      2.00000
    154      -2.4518      2.00000
    155      -2.4515      2.00000
    156      -2.4350      2.00000
    157      -2.4349      2.00000
    158      -2.4143      2.00000
    159      -2.3938      2.00000
    160      -2.3938      2.00000
    161      -2.3742      2.00000
    162      -2.3653      2.00000
    163      -2.3653      2.00000
    164      -2.3590      2.00000
    165      -2.3585      2.00000
    166      -2.3547      2.00000
    167      -2.3547      2.00000
    168      -2.3255      2.00000
    169      -2.3114      2.00000
    170      -2.3114      2.00000
    171      -2.2917      2.00000
    172      -2.2917      2.00000
    173      -2.2895      2.00000
    174      -2.2638      2.00000
    175      -2.2492      2.00000
    176      -2.2492      2.00000
    177      -2.1916      2.00000
    178      -2.1916      2.00000
    179      -2.1596      2.00000
    180      -2.1595      2.00000
    181      -2.1495      2.00000
    182      -2.1326      2.00000
    183      -2.0817      2.00000
    184      -2.0519      2.00000
    185      -2.0518      2.00000
    186      -2.0307      2.00000
    187      -2.0017      2.00000
    188      -2.0017      2.00000
    189      -1.2972      2.00000
    190      -1.2972      2.00000
    191      -1.2777      2.00000
    192      -1.2352      2.00000
    193      -1.2352      2.00000
    194      -1.1612      2.00000
    195      -0.0307      2.00000
    196       0.2006      2.00000
    197       0.3550      2.00000
    198       0.3550      2.00000
    199       0.4567      2.00000
    200       0.5121      2.00000
    201       0.5121      2.00000
    202       0.7026      1.43751
    203       0.7026      0.56429
    204       1.2345      0.00000
    205       1.3329      0.00000
    206       1.3329      0.00000
    207       1.9138      0.00000
    208       2.6698      0.00000
    209       2.7149      0.00000
    210       2.7149      0.00000
    211       2.8141      0.00000
    212       2.8141      0.00000
    213       3.8708      0.00000
    214       4.0534      0.00000
    215       4.0766      0.00000
    216       4.2272      0.00000
    217       4.2272      0.00000
    218       4.2576      0.00000
    219       4.2577      0.00000
    220       4.9818      0.00000
    221       4.9818      0.00000
    222       5.0090      0.00000
    223       5.0325      0.00000
    224       5.0587      0.00000
    225       5.0587      0.00000
    226       5.0890      0.00000
    227       5.0890      0.00000
    228       5.2336      0.00000
    229       5.2515      0.00000
    230       5.2515      0.00000
    231       5.3276      0.00000
    232       5.3414      0.00000
    233       5.7293      0.00000
    234       6.5811      0.00000
    235       6.6241      0.00000
    236       6.6242      0.00000
    237       6.7441      0.00000
    238       6.7984      0.00000
    239       6.7985      0.00000
    240       6.8379      0.00000
    241       7.0215      0.00000
    242       7.0216      0.00000
    243       7.0221      0.00000
    244       7.0778      0.00000
    245       7.0780      0.00000
    246       7.1221      0.00000
    247       7.2223      0.00000
    248       7.3119      0.00000
    249       7.3162      0.00000
    250       7.3386      0.00000
    251       7.3733      0.00000
    252       7.4246      0.00000

 k-point     2 :       0.1250   -0.0000    0.0000
  band No.  band energies     occupation 
      1     -17.8076      2.00000
      2      -6.2913      2.00000
      3      -5.4302      2.00000
      4      -5.1425      2.00000
      5      -5.1282      2.00000
      6      -5.1085      2.00000
      7      -5.0707      2.00000
      8      -5.0549      2.00000
      9      -5.0539      2.00000
     10      -5.0421      2.00000
     11      -5.0286      2.00000
     12      -5.0196      2.00000
     13      -5.0095      2.00000
     14      -4.9619      2.00000
     15      -4.9503      2.00000
     16      -4.9372      2.00000
     17      -4.9333      2.00000
     18      -4.9216      2.00000
     19      -4.8972      2.00000
     20      -4.8897      2.00000
     21      -4.7940      2.00000
     22      -4.7762      2.00000
     23      -4.7393      2.00000
     24      -4.7253      2.00000
     25      -4.7126      2.00000
     26      -4.7084      2.00000
     27      -4.6604      2.00000
     28      -4.6495      2.00000
     29      -4.6166      2.00000
     30      -4.6153      2.00000
     31      -4.5835      2.00000
     32      -4.5709      2.00000
     33      -4.5614      2.00000
     34      -4.5373      2.00000
     35      -4.5055      2.00000
     36      -4.5048      2.00000
     37      -4.4779      2.00000
     38      -4.4575      2.00000
     39      -4.4211      2.00000
     40      -4.3474      2.00000
     41      -4.3409      2.00000
     42      -4.3339      2.00000
     43      -4.3277      2.00000
     44      -4.3080      2.00000
     45      -4.2951      2.00000
     46      -4.2707      2.00000
     47      -4.2682      2.00000
     48      -4.2564      2.00000
     49      -4.2147      2.00000
     50      -4.2070      2.00000
     51      -4.1742      2.00000
     52      -4.1635      2.00000
     53      -4.0870      2.00000
     54      -4.0689      2.00000
     55      -4.0599      2.00000
     56      -4.0439      2.00000
     57      -4.0315      2.00000
     58      -3.9465      2.00000
     59      -3.8860      2.00000
     60      -3.8790      2.00000
     61      -3.8708      2.00000
     62      -3.8637      2.00000
     63      -3.8562      2.00000
     64      -3.8541      2.00000
     65      -3.8407      2.00000
     66      -3.8347      2.00000
     67      -3.8219      2.00000
     68      -3.8199      2.00000
     69      -3.7900      2.00000
     70      -3.7435      2.00000
     71      -3.7120      2.00000
     72      -3.7112      2.00000
     73      -3.7061      2.00000
     74      -3.6949      2.00000
     75      -3.6821      2.00000
     76      -3.6767      2.00000
     77      -3.6674      2.00000
     78      -3.6576      2.00000
     79      -3.6469      2.00000
     80      -3.6361      2.00000
     81      -3.6288      2.00000
     82      -3.6281      2.00000
     83      -3.6147      2.00000
     84      -3.5977      2.00000
     85      -3.5837      2.00000
     86      -3.5833      2.00000
     87      -3.5708      2.00000
     88      -3.5498      2.00000
     89      -3.5421      2.00000
     90      -3.5352      2.00000
     91      -3.5296      2.00000
     92      -3.4771      2.00000
     93      -3.4771      2.00000
     94      -3.4220      2.00000
     95      -3.4042      2.00000
     96      -3.3730      2.00000
     97      -3.3679      2.00000
     98      -3.2933      2.00000
     99      -3.2762      2.00000
    100      -3.2756      2.00000
    101      -3.2175      2.00000
    102      -3.2171      2.00000
    103      -3.1884      2.00000
    104      -3.1849      2.00000
    105      -3.1688      2.00000
    106      -3.1582      2.00000
    107      -3.1475      2.00000
    108      -3.1303      2.00000
    109      -3.1252      2.00000
    110      -3.0840      2.00000
    111      -3.0815      2.00000
    112      -3.0651      2.00000
    113      -3.0482      2.00000
    114      -3.0101      2.00000
    115      -3.0069      2.00000
    116      -2.9658      2.00000
    117      -2.9538      2.00000
    118      -2.9438      2.00000
    119      -2.9292      2.00000
    120      -2.9196      2.00000
    121      -2.8919      2.00000
    122      -2.8774      2.00000
    123      -2.8521      2.00000
    124      -2.8515      2.00000
    125      -2.8435      2.00000
    126      -2.8395      2.00000
    127      -2.8250      2.00000
    128      -2.8048      2.00000
    129      -2.7962      2.00000
    130      -2.7838      2.00000
    131      -2.7711      2.00000
    132      -2.7460      2.00000
    133      -2.7369      2.00000
    134      -2.7282      2.00000
    135      -2.7215      2.00000
    136      -2.6969      2.00000
    137      -2.6965      2.00000
    138      -2.6852      2.00000
[...]
  0.000   0.000   0.000   0.000   0.000   0.000   0.000   0.000   0.000   0.000   0.000   0.000   0.000   0.000   0.000   0.000
  0.000   0.000   0.000   0.000   0.000   0.000   0.000   0.000   0.000   0.000   0.000   0.000   0.000   0.000   0.000   0.000
  0.000   0.000   0.000   0.000   0.000   0.000   0.000   0.000   0.000   0.000   0.000   0.000   0.000   0.000   0.000   0.000
  0.000   0.000   0.000   0.000   0.000   0.000   0.000   0.000   0.000   0.000   0.000   0.000   0.000   0.000   0.000   0.000
  0.000   0.000   0.000   0.000   0.000   0.000   0.000   0.000   0.000   0.000   0.000   0.000   0.000   0.000   0.000   0.000
  0.000   0.000   0.000   0.000   0.000   0.000   0.000   0.000   0.000   0.000   1.000   0.000   0.000   0.000   0.000   0.000
  0.000   0.000   0.000   0.000   0.000   0.000   0.000   0.000   0.000   0.000   0.000   0.000   0.000   0.000   0.000   0.000
  0.000   0.000   0.000   0.000   0.000   0.000   0.000   0.000   0.000   0.000   0.000   0.000   0.000   0.000   0.000   0.000
  0.000   0.000   0.000   0.000   0.000   0.000   0.000   0.000   0.000   0.000   0.000   0.000   0.000   0.000   0.000   0.000
  0.000   0.000   0.000   0.000   0.000   0.000   0.000   0.000   0.000   0.000   0.000   0.000   0.000   0.000   0.000   0.000
  0.000   0.000   0.000   0.000   0.000   0.000   0.000   0.000   0.000   0.000   0.000   0.000   0.000   0.000   0.000   0.000
  0.000   0.000   0.000   0.000   0.000   0.000   0.000   0.000   0.000   0.000   0.000   0.000   0.000   0.000   0.000   0.000
  0.000   0.000   0.000   0.000   0.000   0.000   0.000   0.000   0.000   0.000   0.000   0.000   0.000   0.000   0.000   0.000


------------------------ aborting loop because EDIFF is reached ----------------------------------------





 total charge

# of ion       s       p       d       tot
------------------------------------------
    1        0.419   0.200   9.179   9.798
    2        0.416   0.204   9.177   9.796
    3        0.416   0.204   9.177   9.796
    4        0.416   0.204   9.177   9.796
    5        0.420   0.203   9.176   9.798
    6        0.416   0.204   9.177   9.796
    7        0.416   0.204   9.177   9.796
    8        0.416   0.204   9.177   9.796
    9        0.413   0.204   9.177   9.794
   10        0.408   0.268   9.164   9.840
   11        0.404   0.272   9.166   9.841
   12        0.408   0.268   9.164   9.840
   13        0.404   0.272   9.166   9.841
   14        0.404   0.272   9.166   9.841
   15        0.403   0.269   9.165   9.838
   16        0.408   0.268   9.164   9.840
   17        0.403   0.269   9.165   9.838
   18        0.403   0.269   9.165   9.838
   19        0.403   0.264   9.167   9.835
   20        0.431   0.296   9.144   9.872
   21        0.431   0.296   9.144   9.872
   22        0.395   0.275   9.166   9.836
   23        0.431   0.296   9.144   9.872
   24        0.395   0.275   9.166   9.836
   25        0.403   0.264   9.167   9.835
   26        0.403   0.264   9.167   9.835
   27        0.395   0.275   9.166   9.836
   28        0.416   0.194   9.181   9.791
   29        0.407   0.207   9.181   9.795
   30        0.407   0.207   9.181   9.795
   31        0.407   0.207   9.181   9.795
   32        0.407   0.207   9.181   9.795
   33        0.407   0.207   9.181   9.795
   34        0.407   0.207   9.181   9.795
   35        0.412   0.196   9.180   9.788
   36        0.374   0.402   5.154   5.931
   37        1.612   3.260   0.000   4.872
--------------------------------------------------
tot         16.333  12.060 326.111 354.504
 
    CHARGE:  cpu time    0.3327: real time    0.3327
    FORLOC:  cpu time    0.0101: real time    0.0101
    FORNL :  cpu time    1.4770: real time    1.4772
    STRESS:  cpu time    4.4489: real time    4.4493
    FORCOR:  cpu time    0.0538: real time    0.0540
    FORHAR:  cpu time    0.0165: real time    0.0166
    OFIELD:  cpu time    0.0003: real time    0.0003

  FORCE on cell =-STRESS in cart. coord.  units (eV):
  Direction    XX          YY          ZZ          XY          YZ          ZX
  --------------------------------------------------------------------------------------
  Alpha Z   752.96648   752.96648   752.96648
  Ewald  120845.82661120845.82665************     0.00003    -0.00000     0.00004
  Hartree131124.28289131124.28291************     0.00001    -0.00000     0.00002
  E(xc)   -2091.23462 -2091.23462 -2096.17040     0.00000     0.00000     0.00001
  Local  ************************263237.72075     0.00044    -0.00005    -0.00016
  n-local  -376.49142  -359.21234  -367.23488    10.63805    -0.36002     0.53539
  augment  3257.25263  3257.25276  3259.37957    -0.00011     0.00002     0.00009
  Kinetic  4969.84573  4972.12814  4974.54106     4.02232     0.90767    -0.37119
  Fock        0.00000     0.00000     0.00000     0.00000     0.00000     0.00000
  -------------------------------------------------------------------------------------
  Total      -9.03494    -9.03494    -1.85234    -0.00000    -0.00000     0.00000
  in kB      -9.75142    -9.75142    -1.99923    -0.00000    -0.00000     0.00000
  external pressure =       -7.17 kB  Pullay stress =        0.00 kB


 VOLUME and BASIS-vectors are now :
 -----------------------------------------------------------------------------
  energy-cutoff  :      500.00
  volume of cell :     1484.46
      direct lattice vectors                 reciprocal lattice vectors
     8.791366577  0.000000000  0.000000000     0.113747958 -0.065672414  0.000000000
     4.395683289  7.613546790  0.000000000     0.000000000  0.131344829  0.000000000
     0.000000000  0.000000000 22.178121567     0.000000000  0.000000000  0.045089481

  length of vectors
     8.791366577  8.791366577 22.178121567     0.131344829  0.131344829  0.045089481


 FORCES acting on ions
    electron-ion (+dipol)            ewald-force                    non-local-force                 convergence-correction
 -----------------------------------------------------------------------------------------------
   0.459E-04 -.283E-04 0.251E+04   -.954E-04 0.593E-04 -.251E+04   0.507E-17 -.348E-17 -.193E+01   -.105E-03 -.168E-03 -.280E-01
   0.439E+00 0.363E+00 0.251E+04   -.433E+00 -.416E+00 -.251E+04   0.196E-01 0.958E-01 -.162E+01   -.199E-01 -.323E-01 -.438E-01
   -.439E+00 0.363E+00 0.251E+04   0.433E+00 -.416E+00 -.251E+04   -.196E-01 0.958E-01 -.162E+01   0.194E-01 -.303E-01 -.431E-01
   0.534E+00 0.198E+00 0.251E+04   -.577E+00 -.167E+00 -.251E+04   0.927E-01 -.310E-01 -.162E+01   -.377E-01 -.932E-03 -.438E-01
   -.540E-05 -.186E-04 0.251E+04   0.981E-04 -.200E-05 -.251E+04   0.127E-17 0.202E-19 -.150E+01   0.624E-02 0.381E-02 0.264E-01
   -.534E+00 0.198E+00 0.251E+04   0.577E+00 -.167E+00 -.251E+04   -.927E-01 -.310E-01 -.162E+01   0.363E-01 -.937E-05 -.429E-01
   0.953E-01 -.562E+00 0.251E+04   -.144E+00 0.583E+00 -.251E+04   0.732E-01 -.648E-01 -.162E+01   -.161E-01 0.325E-01 -.431E-01
   -.953E-01 -.562E+00 0.251E+04   0.144E+00 0.583E+00 -.251E+04   -.732E-01 -.648E-01 -.162E+01   0.178E-01 0.315E-01 -.429E-01
   0.361E-04 -.131E-04 0.251E+04   0.792E-04 -.643E-04 -.251E+04   0.846E-18 -.188E-17 -.173E+01   -.666E-02 -.344E-02 -.146E-01
   0.405E+01 0.234E+01 0.848E+03   -.368E+01 -.213E+01 -.848E+03   -.342E+00 -.197E+00 -.664E+00   -.231E-01 -.133E-01 0.149E+00
   -.290E-04 0.453E+01 0.855E+03   0.415E-04 -.473E+01 -.855E+03   0.106E-11 0.162E+00 -.401E+00   0.629E-02 0.312E-02 0.218E+00
   -.405E+01 0.234E+01 0.848E+03   0.368E+01 -.213E+01 -.848E+03   0.342E+00 -.197E+00 -.664E+00   0.215E-01 -.122E-01 0.149E+00
   0.393E+01 -.227E+01 0.855E+03   -.410E+01 0.237E+01 -.855E+03   0.140E+00 -.810E-01 -.401E+00   0.573E-02 0.391E-02 0.218E+00
   -.393E+01 -.227E+01 0.855E+03   0.410E+01 0.237E+01 -.855E+03   -.140E+00 -.810E-01 -.401E+00   0.492E-02 0.309E-02 0.217E+00
   0.159E-04 0.103E+01 0.849E+03   -.108E-03 -.113E+01 -.849E+03   0.243E-12 0.370E-01 -.651E+00   -.163E-02 0.402E-01 0.130E+00
   -.797E-05 -.468E+01 0.848E+03   0.207E-04 0.425E+01 -.848E+03   0.259E-11 0.395E+00 -.664E+00   0.124E-03 0.247E-01 0.149E+00
   0.891E+00 -.514E+00 0.849E+03   -.977E+00 0.564E+00 -.849E+03   0.320E-01 -.185E-01 -.651E+00   0.340E-01 -.215E-01 0.130E+00
   -.891E+00 -.515E+00 0.849E+03   0.977E+00 0.564E+00 -.849E+03   -.320E-01 -.185E-01 -.651E+00   -.340E-01 -.196E-01 0.131E+00
   0.401E-04 0.737E+00 -.838E+03   -.128E-03 -.760E+00 0.838E+03   0.134E-12 0.205E-01 0.677E+00   -.166E-03 0.630E-02 0.278E+00
   0.151E+02 0.872E+01 -.810E+03   -.143E+02 -.825E+01 0.810E+03   -.112E+01 -.645E+00 -.760E+00   0.245E+00 0.142E+00 0.663E+00
   -.151E+02 0.872E+01 -.810E+03   0.143E+02 -.825E+01 0.810E+03   0.112E+01 -.645E+00 -.760E+00   -.246E+00 0.142E+00 0.663E+00
   0.572E+01 -.330E+01 -.828E+03   -.600E+01 0.346E+01 0.827E+03   0.236E+00 -.136E+00 0.604E+00   0.677E-01 -.386E-01 0.267E+00
   -.574E-04 -.174E+02 -.810E+03   0.432E-04 0.165E+02 0.810E+03   0.847E-11 0.129E+01 -.760E+00   0.800E-03 -.283E+00 0.663E+00
   -.572E+01 -.330E+01 -.828E+03   0.600E+01 0.346E+01 0.827E+03   -.236E+00 -.136E+00 0.604E+00   -.677E-01 -.390E-01 0.267E+00
   -.638E+00 -.368E+00 -.838E+03   0.658E+00 0.380E+00 0.838E+03   -.177E-01 -.102E-01 0.677E+00   -.514E-02 -.312E-02 0.277E+00
   0.638E+00 -.368E+00 -.838E+03   -.658E+00 0.380E+00 0.838E+03   0.177E-01 -.102E-01 0.677E+00   0.507E-02 -.342E-02 0.278E+00
   0.212E-04 0.661E+01 -.828E+03   0.109E-03 -.692E+01 0.827E+03   0.179E-11 0.273E+00 0.604E+00   -.238E-03 0.779E-01 0.268E+00
   0.544E-04 -.367E-04 -.248E+04   -.115E-03 0.777E-04 0.248E+04   0.394E-17 -.396E-17 0.185E+01   0.126E-02 0.590E-03 0.255E+00
   0.259E+02 0.434E+02 -.247E+04   -.258E+02 -.436E+02 0.247E+04   -.315E+00 -.347E+00 0.235E+01   0.176E+00 0.360E+00 0.197E+00
   -.259E+02 0.434E+02 -.247E+04   0.258E+02 -.436E+02 0.247E+04   0.315E+00 -.347E+00 0.235E+01   -.187E+00 0.361E+00 0.197E+00
   0.505E+02 0.680E+00 -.247E+04   -.507E+02 -.554E+00 0.247E+04   -.458E+00 -.990E-01 0.235E+01   0.400E+00 -.271E-01 0.197E+00
   -.505E+02 0.680E+00 -.247E+04   0.507E+02 -.554E+00 0.247E+04   0.458E+00 -.990E-01 0.235E+01   -.411E+00 -.262E-01 0.197E+00
   0.247E+02 -.441E+02 -.247E+04   -.249E+02 0.442E+02 0.247E+04   -.143E+00 0.446E+00 0.235E+01   0.220E+00 -.342E+00 0.197E+00
   -.247E+02 -.441E+02 -.247E+04   0.249E+02 0.442E+02 0.247E+04   0.143E+00 0.446E+00 0.235E+01   -.229E+00 -.343E+00 0.197E+00
   0.225E-04 -.127E-04 -.248E+04   0.106E-03 -.659E-04 0.248E+04   -.607E-17 0.107E-17 0.195E+01   -.536E-02 -.267E-02 0.243E+00
   -.280E-04 -.213E-04 -.130E+04   0.674E-04 0.931E-05 0.130E+04   -.198E-17 0.107E-17 -.880E-01   0.390E-02 0.236E-02 0.116E+00
   0.180E-03 -.952E-04 -.168E+04   0.333E-04 0.589E-06 0.170E+04   -.239E-18 0.134E-17 -.282E+02   0.401E-02 0.244E-02 -.816E+00
 -----------------------------------------------------------------------------------------------
   0.529E-03 -.797E-03 0.231E+02   -.506E-13 0.317E-12 0.273E-11   0.214E-15 -.330E-15 -.289E+02   -.141E-01 -.477E-02 0.582E+01
 
 
 POSITION                                       TOTAL-FORCE (eV/Angst)
 -----------------------------------------------------------------------------------
      0.00000      0.00000      5.28219        -0.000000      0.000000     -0.019992
      2.93046      0.00000      5.28219         0.006372      0.011621      0.037495
      5.86091      0.00000      5.28219        -0.006372      0.011621      0.037495
      1.46523      2.53785      5.28219         0.013250     -0.000292      0.037495
      4.39568      2.53785      5.28219        -0.000000      0.000000      0.007597
      7.32614      2.53785      5.28219        -0.013250     -0.000292      0.037495
      2.93046      5.07570      5.28219         0.006878     -0.011329      0.037495
      5.86091      5.07570      5.28219        -0.006878     -0.011329      0.037495
      8.79137      5.07570      5.28219        -0.000000      0.000000      0.017038
      1.46523      0.84595      7.67490         0.002315      0.001337      0.005716
      4.39568      0.84595      7.67490        -0.000000     -0.035982     -0.043350
      7.32614      0.84595      7.67490        -0.002315      0.001337      0.005716
      2.93046      3.38380      7.67490        -0.031162      0.017991     -0.043350
      5.86091      3.38380      7.67490         0.031162      0.017991     -0.043350
      8.79137      3.38380      7.67490        -0.000000     -0.022123      0.008572
      4.39568      5.92165      7.67490        -0.000000     -0.002674      0.005716
      7.32614      5.92165      7.67490        -0.019159      0.011061      0.008572
     10.25659      5.92165      7.67490         0.019159      0.011061      0.008572
      8.79137      1.69455     10.06139         0.000000      0.003678      0.023240
      2.94158      1.69832     10.04035        -0.060423     -0.034886     -0.079281
      5.84978      1.69832     10.04035         0.060423     -0.034886     -0.079281
     10.25392      4.23129     10.05365         0.028782     -0.016618      0.011496
      4.39568      4.21690     10.04035         0.000000      0.069771     -0.079281
      7.32881      4.23129     10.05365        -0.028782     -0.016618      0.011496
     11.71953      6.76627     10.06139        -0.003186     -0.001839      0.023240
      5.86321      6.76627     10.06139         0.003186     -0.001839      0.023240
      8.79137      6.76451     10.05365         0.000000      0.033235      0.011496
      0.00000      0.00000     12.42536        -0.000000      0.000000     -0.004269
      2.96459      0.05999     12.43855        -0.108571     -0.194502     -0.157171
      5.82677      0.05999     12.43855         0.108571     -0.194502     -0.157171
      1.53425      2.53742     12.43855        -0.222729      0.003226     -0.157171
      7.25712      2.53742     12.43855         0.222729      0.003226     -0.157171
      2.96534      5.01614     12.43855        -0.114158      0.191276     -0.157171
      5.82603      5.01614     12.43855         0.114158      0.191276     -0.157171
      8.79137      5.07570     12.42471        -0.000000      0.000000      0.006020
      4.39568      2.53785     12.16969        -0.000000      0.000000      0.990269
      4.39568      2.53785     13.76812        -0.000000      0.000000     -0.057788
 -----------------------------------------------------------------------------------
    total drift:                               -0.013601     -0.005570      0.067445


--------------------------------------------------------------------------------------------------------



  FREE ENERGIE OF THE ION-ELECTRON SYSTEM (eV)
  ---------------------------------------------------
  free  energy   TOTEN  =      -102.84546770 eV

  energy  without entropy=     -102.84546770  energy(sigma->0) =     -102.84546770
 


--------------------------------------------------------------------------------------------------------


    POTLOK:  cpu time    0.0404: real time    0.0404


--------------------------------------------------------------------------------------------------------


 stress matrix after NEB project (eV)
     -9.03494     -0.00000      0.00000
     -0.00000     -9.03494      0.00000
     -0.00000     -0.00000     -1.85234
  FORCES: max atom, RMS     0.057788    0.009500
  FORCE total and by dimension    0.057788    0.057788
  Stress total and by dimension   12.910904    9.034940
     LOOP+:  cpu time   77.2192: real time   77.2351
 -----------------------------------------------------------------------------
|                                                                             |
|           W    W    AA    RRRRR   N    N  II  N    N   GGGG   !!!           |
|           W    W   A  A   R    R  NN   N  II  NN   N  G    G  !!!           |
|           W    W  A    A  R    R  N N  N  II  N N  N  G       !!!           |
|           W WW W  AAAAAA  RRRRR   N  N N  II  N  N N  G  GGG   !            |
|           WW  WW  A    A  R   R   N   NN  II  N   NN  G    G                |
|           W    W  A    A  R    R  N    N  II  N    N   GGGG   !!!           |
|                                                                             |
|     Tetrahedron method does not include variations of the Fermi             |
|     occupations, so forces and stress will be inaccurate. We suggest        |
|     using a different smearing scheme ISMEAR = 1 or 2 for metals in         |
|     relaxations.                                                            |
|                                                                             |
 -----------------------------------------------------------------------------

    4ORBIT:  cpu time    0.0000: real time    0.0000



 total charge

# of ion       s       p       d       tot
------------------------------------------
    1        0.419   0.200   9.179   9.798
    2        0.416   0.204   9.177   9.796
    3        0.416   0.204   9.177   9.796
    4        0.416   0.204   9.177   9.796
    5        0.420   0.203   9.176   9.798
    6        0.416   0.204   9.177   9.796
    7        0.416   0.204   9.177   9.796
    8        0.416   0.204   9.177   9.796
    9        0.413   0.204   9.177   9.794
   10        0.408   0.268   9.164   9.840
   11        0.404   0.272   9.166   9.841
   12        0.408   0.268   9.164   9.840
   13        0.404   0.272   9.166   9.841
   14        0.404   0.272   9.166   9.841
   15        0.403   0.269   9.165   9.838
   16        0.408   0.268   9.164   9.840
   17        0.403   0.269   9.165   9.838
   18        0.403   0.269   9.165   9.838
   19        0.403   0.264   9.167   9.835
   20        0.431   0.296   9.144   9.872
   21        0.431   0.296   9.144   9.872
   22        0.395   0.275   9.166   9.836
   23        0.431   0.296   9.144   9.872
   24        0.395   0.275   9.166   9.836
   25        0.403   0.264   9.167   9.835
   26        0.403   0.264   9.167   9.835
   27        0.395   0.275   9.166   9.836
   28        0.416   0.194   9.181   9.791
   29        0.407   0.207   9.181   9.795
   30        0.407   0.207   9.181   9.795
   31        0.407   0.207   9.181   9.795
   32        0.407   0.207   9.181   9.795
   33        0.407   0.207   9.181   9.795
   34        0.407   0.207   9.181   9.795
   35        0.412   0.196   9.180   9.788
   36        0.374   0.402   5.154   5.931
   37        1.612   3.260   0.000   4.872
--------------------------------------------------
tot         16.333  12.060 326.111 354.504
 
 BZINTS: Fermi energy:    0.776281;  398.000000 electrons
         Band energy:-0.133187E+04;  BLOECHL correction:   -0.041732

 total amount of memory used by VASP MPI-rank0   122902. kBytes
=======================================================================

   base      :      30000. kBytes
   nonlr-proj:      14799. kBytes
   fftplans  :       4330. kBytes
   grid      :      17879. kBytes
   one-center:        575. kBytes
   wavefun   :      55319. kBytes
 
  
  
 General timing and accounting informations for this job:
 ========================================================
  
                  Total CPU time used (sec):       84.532
                            User time (sec):       81.617
                          System time (sec):        2.915
                         Elapsed time (sec):       85.004
  
                   Maximum memory used (kb):      379928.
                   Average memory used (kb):          N/A
  
                          Minor page faults:        69570
                          Major page faults:            0
                 Voluntary context switches:         4850
