PROCAR new format
# of k-points:   10         # of bands:  252         # of ions:   38

 k-point     1 :    0.00000000 0.00000000 0.00000000     weight = 0.01562500

band     1 # energy  -19.53355102 # occ.  2.00000000
 
ion      s      p      d    tot
    1  0.000  0.000  0.000  0.000
    2  0.000  0.000  0.000  0.000
    3  0.000  0.000  0.000  0.000
    4  0.000  0.000  0.000  0.000
    5  0.000  0.000  0.000  0.000
    6  0.000  0.000  0.000  0.000
    7  0.000  0.000  0.000  0.000
    8  0.000  0.000  0.000  0.000
    9  0.000  0.000  0.000  0.000
   10  0.000  0.000  0.000  0.000
   11  0.000  0.000  0.000  0.000
   12  0.000  0.000  0.000  0.000
   13  0.000  0.000  0.000  0.000
   14  0.000  0.000  0.000  0.000
   15  0.000  0.000  0.000  0.000
   16  0.000  0.000  0.000  0.000
   17  0.000  0.000  0.000  0.000
   18  0.000  0.000  0.000  0.000
   19  0.000  0.000  0.000  0.000
   20  0.000  0.000  0.000  0.000
   21  0.000  0.000  0.000  0.000
   22  0.000  0.000  0.000  0.000
   23  0.000  0.000  0.000  0.000
   24  0.000  0.000  0.000  0.000
   25  0.000  0.000  0.000  0.000
   26  0.000  0.000  0.000  0.000
   27  0.000  0.000  0.000  0.000
   28  0.000  0.000  0.000  0.000
   29  0.000  0.000  0.000  0.000
   30  0.000  0.000  0.000  0.000
   31  0.000  0.000  0.000  0.000
   32  0.000  0.000  0.000  0.000
   33  0.000  0.000  0.000  0.000
   34  0.000  0.000  0.000  0.000
   35  0.000  0.000  0.000  0.000
   36  0.010  0.012  0.020  0.042
   37  0.740  0.014  0.000  0.754
   38  0.115  0.024  0.000  0.139
tot    0.866  0.049  0.020  0.935
 
band     2 # energy   -8.65619784 # occ.  2.00000000
 
ion      s      p      d    tot
    1  0.002  0.000  0.000  0.002
    2  0.002  0.000  0.000  0.002
    3  0.002  0.000  0.000  0.002
    4  0.002  0.000  0.000  0.002
    5  0.002  0.000  0.000  0.002
    6  0.002  0.000  0.000  0.002
    7  0.002  0.000  0.000  0.002
    8  0.002  0.000  0.000  0.002
    9  0.002  0.000  0.000  0.002
   10  0.009  0.000  0.000  0.009
   11  0.010  0.000  0.000  0.010
   12  0.009  0.000  0.000  0.009
   13  0.010  0.000  0.000  0.010
   14  0.010  0.000  0.000  0.010
   15  0.009  0.000  0.000  0.009
   16  0.009  0.000  0.000  0.009
   17  0.009  0.000  0.000  0.009
   18  0.009  0.000  0.000  0.009
   19  0.012  0.000  0.000  0.012
   20  0.019  0.000  0.001  0.020
   21  0.019  0.000  0.001  0.020
   22  0.012  0.000  0.000  0.012
   23  0.019  0.000  0.001  0.020
   24  0.012  0.000  0.000  0.012
   25  0.012  0.000  0.000  0.012
   26  0.012  0.000  0.000  0.012
   27  0.012  0.000  0.000  0.012
   28  0.004  0.000  0.000  0.004
   29  0.006  0.000  0.000  0.006
   30  0.006  0.000  0.000  0.006
   31  0.006  0.000  0.000  0.006
   32  0.006  0.000  0.000  0.006
   33  0.006  0.000  0.000  0.006
   34  0.006  0.000  0.000  0.006
   35  0.004  0.000  0.000  0.004
   36  0.076  0.007  0.056  0.139
   37  0.007  0.247  0.000  0.253
   38  0.084  0.009  0.000  0.093
tot    0.442  0.271  0.059  0.772
 
band     3 # energy   -8.29332951 # occ.  2.00000000
 
ion      s      p      d    tot
    1  0.005  0.001  0.000  0.006
    2  0.005  0.001  0.000  0.006
    3  0.005  0.001  0.000  0.006
    4  0.005  0.001  0.000  0.006
    5  0.005  0.001  0.000  0.006
    6  0.005  0.001  0.000  0.006
    7  0.005  0.001  0.000  0.006
    8  0.005  0.001  0.000  0.006
    9  0.005  0.001  0.000  0.006
   10  0.016  0.000  0.000  0.016
   11  0.016  0.000  0.000  0.016
   12  0.016  0.000  0.000  0.016
   13  0.016  0.000  0.000  0.016
   14  0.016  0.000  0.000  0.016
   15  0.017  0.000  0.000  0.017
   16  0.016  0.000  0.000  0.016
   17  0.017  0.000  0.000  0.017
   18  0.017  0.000  0.000  0.017
   19  0.012  0.000  0.000  0.012
   20  0.007  0.001  0.001  0.008
   21  0.007  0.001  0.001  0.008
   22  0.012  0.000  0.000  0.012
   23  0.007  0.001  0.001  0.008
   24  0.012  0.000  0.000  0.012
   25  0.012  0.000  0.000  0.012
   26  0.012  0.000  0.000  0.012
   27  0.012  0.000  0.000  0.012
   28  0.002  0.000  0.000  0.003
   29  0.001  0.000  0.000  0.002
   30  0.001  0.000  0.000  0.002
   31  0.001  0.000  0.000  0.002
   32  0.001  0.000  0.000  0.002
   33  0.001  0.000  0.000  0.002
   34  0.001  0.000  0.000  0.002
   35  0.002  0.000  0.000  0.003
   36  0.015  0.020  0.068  0.104
   37  0.010  0.243  0.000  0.253
   38  0.081  0.009  0.000  0.090
tot    0.403  0.285  0.071  0.760
 
band     4 # energy   -7.17296262 # occ.  2.00000000
 
ion      s      p      d    tot
    1  0.017  0.001  0.000  0.018
    2  0.017  0.001  0.000  0.018
    3  0.017  0.001  0.000  0.018
    4  0.017  0.001  0.000  0.018
    5  0.017  0.001  0.000  0.018
    6  0.017  0.001  0.000  0.018
    7  0.017  0.001  0.000  0.018
    8  0.017  0.001  0.000  0.018
    9  0.017  0.001  0.000  0.018
   10  0.009  0.002  0.000  0.012
   11  0.009  0.002  0.000  0.012
   12  0.009  0.002  0.000  0.012
   13  0.009  0.002  0.000  0.012
   14  0.009  0.002  0.000  0.012
   15  0.009  0.002  0.001  0.012
   16  0.009  0.002  0.000  0.012
   17  0.009  0.002  0.001  0.012
   18  0.009  0.002  0.001  0.012
   19  0.010  0.002  0.000  0.013
   20  0.008  0.002  0.000  0.010
   21  0.008  0.002  0.000  0.010
   22  0.010  0.002  0.000  0.013
   23  0.008  0.002  0.000  0.010
   24  0.010  0.002  0.000  0.013
   25  0.010  0.002  0.000  0.013
   26  0.010  0.002  0.000  0.013
   27  0.010  0.002  0.000  0.013
   28  0.019  0.001  0.001  0.020
   29  0.019  0.001  0.001  0.021
   30  0.019  0.001  0.001  0.021
   31  0.019  0.001  0.001  0.021
   32  0.019  0.001  0.001  0.021
   33  0.019  0.001  0.001  0.021
   34  0.019  0.001  0.001  0.021
   35  0.019  0.001  0.000  0.020
   36  0.017  0.005  0.021  0.043
   37  0.002  0.017  0.000  0.019
   38  0.005  0.000  0.000  0.006
tot    0.493  0.074  0.040  0.606
 
band     5 # energy   -5.62919566 # occ.  2.00000000
 
ion      s      p      d    tot
    1  0.015  0.000  0.006  0.021
    2  0.016  0.000  0.005  0.022
    3  0.016  0.000  0.005  0.022
    4  0.016  0.000  0.005  0.022
    5  0.015  0.000  0.006  0.020
    6  0.016  0.000  0.005  0.022
    7  0.016  0.000  0.005  0.022
    8  0.016  0.000  0.005  0.022
    9  0.019  0.000  0.005  0.024
   10  0.004  0.004  0.001  0.009
   11  0.004  0.004  0.001  0.009
   12  0.004  0.004  0.001  0.009
   13  0.004  0.004  0.001  0.009
   14  0.004  0.004  0.001  0.009
   15  0.002  0.003  0.002  0.007
   16  0.004  0.004  0.001  0.009
   17  0.002  0.003  0.002  0.007
   18  0.002  0.003  0.002  0.007
   19  0.006  0.003  0.003  0.012
   20  0.008  0.003  0.005  0.017
   21  0.008  0.003  0.005  0.017
   22  0.004  0.003  0.003  0.010
   23  0.008  0.003  0.005  0.017
   24  0.004  0.003  0.003  0.010
   25  0.006  0.003  0.003  0.012
   26  0.006  0.003  0.003  0.012
   27  0.004  0.003  0.003  0.010
   28  0.013  0.000  0.006  0.019
   29  0.018  0.000  0.008  0.026
   30  0.018  0.000  0.008  0.026
   31  0.018  0.000  0.008  0.026
   32  0.018  0.000  0.008  0.026
   33  0.018  0.000  0.008  0.026
   34  0.018  0.000  0.008  0.026
   35  0.015  0.000  0.006  0.021
   36  0.025  0.000  0.037  0.063
   37  0.000  0.000  0.000  0.000
   38  0.000  0.000  0.000  0.000
tot    0.388  0.062  0.197  0.646
 
band     6 # energy   -5.50924708 # occ.  2.00000000
 
ion      s      p      d    tot
    1  0.000  0.002  0.005  0.007
    2  0.008  0.002  0.002  0.012
    3  0.003  0.001  0.002  0.005
    4  0.009  0.002  0.002  0.013
    5  0.000  0.002  0.003  0.005
    6  0.004  0.002  0.002  0.008
    7  0.001  0.001  0.002  0.003
    8  0.002  0.001  0.002  0.005
    9  0.000  0.000  0.002  0.002
   10  0.054  0.005  0.004  0.062
   11  0.004  0.011  0.004  0.018
   12  0.022  0.003  0.010  0.034
   13  0.011  0.008  0.005  0.023
   14  0.026  0.001  0.006  0.033
   15  0.001  0.005  0.007  0.013
   16  0.007  0.002  0.013  0.022
   17  0.002  0.004  0.006  0.012
   18  0.005  0.002  0.003  0.010
   19  0.003  0.011  0.003  0.017
   20  0.067  0.003  0.007  0.077
   21  0.027  0.003  0.013  0.043
   22  0.003  0.004  0.007  0.014
   23  0.009  0.002  0.016  0.027
   24  0.007  0.003  0.003  0.013
   25  0.025  0.001  0.006  0.032
   26  0.010  0.008  0.004  0.022
   27  0.001  0.005  0.009  0.014
   28  0.000  0.003  0.003  0.006
   29  0.011  0.003  0.004  0.017
   30  0.006  0.002  0.003  0.010
   31  0.010  0.003  0.004  0.016
   32  0.003  0.001  0.004  0.008
   33  0.003  0.001  0.003  0.006
   34  0.001  0.001  0.003  0.005
   35  0.000  0.000  0.003  0.003
   36  0.000  0.005  0.026  0.031
   37  0.000  0.001  0.000  0.001
   38  0.000  0.000  0.000  0.000
tot    0.340  0.113  0.199  0.652
 
band     7 # energy   -5.50909072 # occ.  2.00000000
 
ion      s      p      d    tot
    1  0.000  0.002  0.005  0.007
    2  0.001  0.001  0.002  0.003
    3  0.006  0.002  0.002  0.010
    4  0.000  0.001  0.002  0.003
    5  0.000  0.002  0.003  0.005
    6  0.004  0.001  0.002  0.008
    7  0.008  0.002  0.002  0.013
    8  0.007  0.002  0.002  0.011
    9  0.000  0.000  0.002  0.002
   10  0.001  0.001  0.014  0.017
   11  0.023  0.002  0.006  0.031
   12  0.034  0.003  0.008  0.045
   13  0.016  0.005  0.005  0.027
   14  0.001  0.012  0.004  0.016
   15  0.004  0.003  0.004  0.011
   16  0.048  0.004  0.005  0.057
   17  0.003  0.004  0.005  0.011
   18  0.000  0.005  0.008  0.013
   19  0.022  0.002  0.006  0.030
   20  0.002  0.002  0.017  0.021
   21  0.042  0.003  0.011  0.055
   22  0.004  0.004  0.006  0.013
   23  0.060  0.003  0.008  0.071
   24  0.000  0.005  0.009  0.014
   25  0.001  0.013  0.002  0.016
   26  0.015  0.005  0.005  0.026
   27  0.006  0.003  0.004  0.013
   28  0.000  0.003  0.003  0.006
   29  0.000  0.001  0.003  0.004
   30  0.005  0.002  0.004  0.011
   31  0.001  0.001  0.003  0.004
   32  0.008  0.002  0.003  0.013
   33  0.008  0.003  0.004  0.015
   34  0.010  0.003  0.003  0.016
   35  0.000  0.000  0.003  0.003
   36  0.000  0.005  0.026  0.031
   37  0.000  0.001  0.000  0.001
   38  0.000  0.000  0.000  0.000
tot    0.340  0.113  0.199  0.652
 
band     8 # energy   -5.45941232 # occ.  2.00000000
 
ion      s      p      d    tot
    1  0.000  0.001  0.002  0.003
    2  0.010  0.002  0.002  0.014
    3  0.002  0.001  0.002  0.005
    4  0.010  0.002  0.002  0.014
    5  0.000  0.001  0.004  0.005
    6  0.004  0.001  0.002  0.007
    7  0.001  0.001  0.002  0.004
    8  0.003  0.001  0.002  0.007
    9  0.000  0.003  0.005  0.008
   10  0.000  0.011  0.002  0.014
   11  0.026  0.004  0.005  0.034
   12  0.002  0.004  0.005  0.010
   13  0.024  0.003  0.006  0.033
   14  0.000  0.000  0.015  0.015
   15  0.042  0.003  0.006  0.052
   16  0.002  0.003  0.005  0.010
   17  0.039  0.004  0.006  0.049
   18  0.000  0.008  0.009  0.017
   19  0.029  0.004  0.005  0.037
   20  0.000  0.013  0.002  0.015
   21  0.001  0.004  0.004  0.010
   22  0.040  0.004  0.006  0.050
   23  0.002  0.003  0.005  0.010
   24  0.000  0.008  0.008  0.017
   25  0.000  0.000  0.016  0.016
   26  0.026  0.003  0.006  0.036
   27  0.044  0.004  0.006  0.053
   28  0.000  0.001  0.005  0.006
   29  0.012  0.003  0.003  0.018
   30  0.003  0.002  0.003  0.008
   31  0.012  0.003  0.003  0.018
   32  0.004  0.001  0.003  0.007
   33  0.003  0.002  0.003  0.007
   34  0.003  0.001  0.003  0.007
   35  0.000  0.004  0.005  0.009
   36  0.000  0.001  0.011  0.012
   37  0.000  0.000  0.000  0.000
   38  0.000  0.000  0.000  0.000
tot    0.342  0.116  0.181  0.639
 
band     9 # energy   -5.45927582 # occ.  2.00000000
 
ion      s      p      d    tot
    1  0.000  0.001  0.002  0.003
    2  0.000  0.001  0.002  0.003
    3  0.008  0.002  0.002  0.012
    4  0.000  0.001  0.002  0.003
    5  0.000  0.001  0.004  0.005
    6  0.006  0.002  0.002  0.010
    7  0.008  0.002  0.002  0.013
    8  0.007  0.002  0.002  0.011
    9  0.000  0.003  0.005  0.008
   10  0.003  0.001  0.005  0.009
   11  0.007  0.001  0.012  0.021
   12  0.001  0.008  0.003  0.012
   13  0.009  0.002  0.011  0.022
   14  0.033  0.004  0.002  0.039
   15  0.012  0.006  0.008  0.027
   16  0.001  0.009  0.003  0.013
   17  0.015  0.006  0.008  0.029
   18  0.054  0.002  0.005  0.062
   19  0.008  0.001  0.013  0.022
   20  0.002  0.001  0.006  0.008
   21  0.001  0.010  0.003  0.013
   22  0.016  0.007  0.007  0.030
   23  0.000  0.010  0.002  0.013
   24  0.056  0.002  0.005  0.063
   25  0.037  0.005  0.002  0.043
   26  0.010  0.001  0.012  0.024
   27  0.012  0.007  0.008  0.027
   28  0.000  0.001  0.005  0.006
   29  0.000  0.001  0.003  0.004
   30  0.009  0.002  0.003  0.013
   31  0.000  0.001  0.003  0.004
   32  0.009  0.003  0.003  0.014
   33  0.010  0.002  0.003  0.014
   34  0.009  0.003  0.003  0.015
   35  0.000  0.004  0.005  0.009
   36  0.000  0.001  0.011  0.012
   37  0.000  0.000  0.000  0.000
   38  0.000  0.000  0.000  0.000
tot    0.342  0.116  0.181  0.639
 
band    10 # energy   -5.44722665 # occ.  2.00000000
 
ion      s      p      d    tot
    1  0.014  0.002  0.001  0.017
    2  0.000  0.002  0.004  0.006
    3  0.000  0.002  0.004  0.006
    4  0.000  0.002  0.004  0.006
    5  0.001  0.000  0.000  0.002
    6  0.000  0.002  0.004  0.006
    7  0.000  0.002  0.004  0.006
    8  0.000  0.002  0.004  0.006
    9  0.017  0.003  0.001  0.022
   10  0.020  0.001  0.011  0.032
   11  0.000  0.003  0.009  0.012
   12  0.020  0.001  0.011  0.032
   13  0.000  0.003  0.009  0.012
   14  0.000  0.003  0.009  0.012
   15  0.028  0.009  0.002  0.039
   16  0.020  0.001  0.011  0.032
   17  0.028  0.009  0.002  0.039
   18  0.027  0.009  0.002  0.038
   19  0.008  0.007  0.004  0.019
   20  0.006  0.000  0.012  0.018
   21  0.006  0.000  0.012  0.018
   22  0.032  0.007  0.004  0.043
   23  0.006  0.000  0.012  0.018
   24  0.033  0.007  0.004  0.043
   25  0.008  0.007  0.004  0.019
   26  0.008  0.007  0.004  0.019
   27  0.032  0.007  0.004  0.043
   28  0.010  0.001  0.000  0.011
   29  0.000  0.002  0.004  0.006
   30  0.000  0.002  0.004  0.006
   31  0.000  0.002  0.004  0.006
   32  0.000  0.002  0.004  0.006
   33  0.000  0.002  0.004  0.006
   34  0.000  0.002  0.004  0.006
   35  0.017  0.003  0.002  0.022
   36  0.004  0.002  0.000  0.006
   37  0.000  0.001  0.000  0.002
   38  0.000  0.000  0.000  0.000
tot    0.346  0.117  0.178  0.642
 
band    11 # energy   -5.43764793 # occ.  2.00000000
 
ion      s      p      d    tot
    1  0.010  0.001  0.000  0.012
    2  0.000  0.002  0.004  0.006
    3  0.000  0.002  0.004  0.006
    4  0.000  0.002  0.004  0.006
    5  0.021  0.003  0.001  0.026
    6  0.000  0.002  0.004  0.006
    7  0.000  0.002  0.004  0.006
    8  0.000  0.002  0.004  0.006
    9  0.002  0.000  0.000  0.003
   10  0.011  0.008  0.004  0.022
   11  0.033  0.006  0.005  0.044
   12  0.011  0.008  0.004  0.022
   13  0.032  0.006  0.005  0.044
   14  0.033  0.006  0.005  0.044
   15  0.006  0.000  0.012  0.018
   16  0.011  0.008  0.004  0.023
   17  0.006  0.000  0.012  0.018
   18  0.006  0.000  0.012  0.018
   19  0.022  0.002  0.009  0.033
   20  0.022  0.009  0.003  0.034
   21  0.022  0.009  0.003  0.034
   22  0.000  0.003  0.009  0.012
   23  0.022  0.009  0.003  0.034
   24  0.000  0.003  0.009  0.011
   25  0.022  0.002  0.009  0.033
   26  0.022  0.002  0.009  0.033
   27  0.000  0.003  0.009  0.012
   28  0.012  0.002  0.001  0.015
   29  0.000  0.002  0.004  0.006
   30  0.000  0.002  0.004  0.006
   31  0.000  0.002  0.004  0.006
   32  0.000  0.002  0.004  0.006
   33  0.000  0.002  0.004  0.006
   34  0.000  0.002  0.004  0.006
   35  0.000  0.000  0.000  0.000
   36  0.019  0.008  0.001  0.029
   37  0.001  0.005  0.000  0.005
   38  0.002  0.000  0.000  0.002
tot    0.346  0.125  0.183  0.655
 
band    12 # energy   -4.77325939 # occ.  2.00000000
 
ion      s      p      d    tot
    1  0.000  0.003  0.009  0.012
    2  0.016  0.003  0.004  0.024
    3  0.002  0.002  0.004  0.008
    4  0.018  0.003  0.004  0.026
    5  0.000  0.000  0.009  0.009
    6  0.010  0.003  0.005  0.018
    7  0.001  0.001  0.004  0.006
    8  0.007  0.002  0.004  0.014
    9  0.000  0.005  0.008  0.013
   10  0.000  0.005  0.014  0.018
   11  0.006  0.002  0.008  0.016
   12  0.004  0.002  0.009  0.014
   13  0.005  0.002  0.009  0.016
   14  0.000  0.002  0.014  0.016
   15  0.021  0.004  0.007  0.031
   16  0.005  0.001  0.008  0.013
   17  0.017  0.003  0.009  0.029
   18  0.000  0.001  0.020  0.020
   19  0.007  0.004  0.008  0.020
   20  0.000  0.003  0.023  0.026
   21  0.000  0.001  0.015  0.016
   22  0.008  0.003  0.011  0.021
   23  0.000  0.001  0.013  0.014
   24  0.000  0.001  0.026  0.028
   25  0.000  0.000  0.010  0.011
   26  0.006  0.004  0.009  0.018
   27  0.009  0.004  0.007  0.020
   28  0.000  0.003  0.007  0.010
   29  0.022  0.003  0.009  0.034
   30  0.002  0.003  0.011  0.015
   31  0.025  0.003  0.009  0.037
   32  0.018  0.002  0.009  0.029
   33  0.000  0.002  0.011  0.013
   34  0.013  0.002  0.010  0.025
   35  0.000  0.006  0.008  0.013
   36  0.000  0.000  0.056  0.057
   37  0.000  0.001  0.000  0.001
   38  0.000  0.000  0.000  0.000
tot    0.222  0.089  0.400  0.711
 
band    13 # energy   -4.77321356 # occ.  2.00000000
 
ion      s      p      d    tot
    1  0.000  0.003  0.009  0.012
    2  0.002  0.002  0.004  0.008
    3  0.016  0.003  0.005  0.024
    4  0.000  0.001  0.004  0.006
    5  0.000  0.000  0.009  0.009
    6  0.008  0.002  0.004  0.014
    7  0.018  0.003  0.005  0.026
    8  0.011  0.003  0.004  0.018
    9  0.000  0.005  0.008  0.013
   10  0.006  0.000  0.006  0.012
   11  0.001  0.002  0.013  0.016
   12  0.002  0.003  0.011  0.016
   13  0.002  0.002  0.012  0.016
   14  0.007  0.002  0.006  0.016
   15  0.004  0.001  0.017  0.023
   16  0.001  0.004  0.012  0.017
   17  0.008  0.002  0.014  0.025
   18  0.025  0.004  0.004  0.033
   19  0.002  0.001  0.010  0.013
   20  0.000  0.000  0.011  0.012
   21  0.000  0.002  0.019  0.021
   22  0.004  0.002  0.018  0.024
   23  0.000  0.003  0.021  0.024
   24  0.011  0.004  0.003  0.018
   25  0.009  0.005  0.008  0.022
   26  0.003  0.002  0.010  0.015
   27  0.002  0.002  0.022  0.026
   28  0.000  0.003  0.007  0.010
   29  0.005  0.002  0.010  0.017
   30  0.025  0.002  0.009  0.036
   31  0.002  0.002  0.011  0.014
   32  0.008  0.003  0.010  0.022
   33  0.027  0.002  0.009  0.038
   34  0.013  0.003  0.010  0.026
   35  0.000  0.006  0.008  0.013
   36  0.000  0.000  0.056  0.057
   37  0.000  0.001  0.000  0.001
   38  0.000  0.000  0.000  0.000
tot    0.222  0.089  0.400  0.711
 
band    14 # energy   -4.76706178 # occ.  2.00000000
 
ion      s      p      d    tot
    1  0.001  0.001  0.011  0.013
    2  0.006  0.001  0.010  0.016
    3  0.006  0.001  0.010  0.016
    4  0.006  0.001  0.010  0.016
    5  0.017  0.000  0.007  0.024
    6  0.006  0.001  0.010  0.016
    7  0.006  0.001  0.010  0.016
    8  0.006  0.001  0.010  0.016
    9  0.005  0.001  0.010  0.016
   10  0.011  0.000  0.022  0.034
   11  0.002  0.000  0.022  0.025
   12  0.011  0.000  0.022  0.034
   13  0.002  0.000  0.022  0.025
   14  0.002  0.000  0.022  0.025
   15  0.009  0.000  0.023  0.031
   16  0.011  0.000  0.022  0.034
   17  0.009  0.000  0.023  0.031
   18  0.009  0.000  0.023  0.032
   19  0.009  0.001  0.017  0.027
   20  0.003  0.000  0.027  0.029
   21  0.003  0.000  0.027  0.029
   22  0.004  0.000  0.015  0.020
   23  0.003  0.000  0.027  0.029
   24  0.004  0.000  0.015  0.020
   25  0.009  0.001  0.017  0.027
   26  0.009  0.001  0.017  0.027
   27  0.004  0.000  0.015  0.020
   28  0.000  0.001  0.005  0.007
   29  0.003  0.001  0.009  0.013
   30  0.002  0.001  0.009  0.013
   31  0.003  0.001  0.009  0.013
   32  0.003  0.001  0.009  0.013
   33  0.002  0.001  0.009  0.013
   34  0.003  0.001  0.009  0.013
   35  0.000  0.001  0.004  0.005
   36  0.020  0.000  0.025  0.045
   37  0.000  0.000  0.000  0.000
   38  0.000  0.000  0.000  0.000
tot    0.209  0.020  0.553  0.782
 
band    15 # energy   -4.71370265 # occ.  2.00000000
 
ion      s      p      d    tot
    1  0.000  0.004  0.010  0.013
    2  0.020  0.004  0.006  0.030
    3  0.005  0.002  0.005  0.013
    4  0.023  0.004  0.006  0.033
    5  0.000  0.006  0.010  0.016
    6  0.013  0.003  0.006  0.023
    7  0.001  0.002  0.005  0.008
    8  0.006  0.002  0.006  0.014
    9  0.000  0.000  0.013  0.013
   10  0.021  0.005  0.009  0.034
   11  0.002  0.003  0.024  0.029
   12  0.009  0.002  0.016  0.027
   13  0.007  0.003  0.018  0.028
   14  0.017  0.003  0.006  0.026
   15  0.000  0.003  0.015  0.019
   16  0.003  0.001  0.020  0.023
   17  0.000  0.002  0.013  0.016
   18  0.000  0.001  0.009  0.010
   19  0.000  0.002  0.019  0.022
   20  0.019  0.006  0.004  0.030
   21  0.008  0.003  0.019  0.030
   22  0.002  0.002  0.010  0.014
   23  0.002  0.001  0.027  0.030
   24  0.004  0.002  0.010  0.016
   25  0.004  0.001  0.006  0.010
   26  0.001  0.002  0.015  0.018
   27  0.001  0.001  0.011  0.013
   28  0.000  0.002  0.008  0.011
   29  0.013  0.003  0.006  0.023
   30  0.003  0.001  0.004  0.009
   31  0.016  0.004  0.007  0.026
   32  0.010  0.003  0.007  0.020
   33  0.000  0.001  0.005  0.006
   34  0.005  0.002  0.006  0.013
   35  0.000  0.000  0.008  0.008
   36  0.000  0.008  0.031  0.039
   37  0.000  0.002  0.000  0.002
   38  0.000  0.000  0.000  0.000
tot    0.216  0.097  0.401  0.715
 
band    16 # energy   -4.71363097 # occ.  2.00000000
 
ion      s      p      d    tot
    1  0.000  0.004  0.010  0.013
    2  0.003  0.002  0.006  0.010
    3  0.018  0.004  0.006  0.027
    4  0.000  0.002  0.006  0.007
    5  0.000  0.006  0.010  0.016
    6  0.010  0.003  0.005  0.018
    7  0.022  0.004  0.006  0.032
    8  0.017  0.003  0.006  0.026
    9  0.000  0.000  0.013  0.013
   10  0.001  0.000  0.021  0.022
   11  0.015  0.003  0.008  0.026
   12  0.013  0.003  0.014  0.030
   13  0.011  0.003  0.014  0.027
   14  0.000  0.003  0.026  0.029
   15  0.000  0.001  0.010  0.011
   16  0.019  0.005  0.010  0.033
   17  0.000  0.002  0.012  0.014
   18  0.000  0.004  0.016  0.020
   19  0.003  0.001  0.007  0.011
   20  0.001  0.001  0.029  0.030
   21  0.012  0.004  0.014  0.030
   22  0.003  0.002  0.010  0.015
   23  0.017  0.006  0.007  0.030
   24  0.000  0.001  0.011  0.012
   25  0.000  0.002  0.021  0.023
   26  0.002  0.001  0.012  0.015
   27  0.004  0.002  0.010  0.016
   28  0.000  0.002  0.008  0.011
   29  0.002  0.001  0.006  0.010
   30  0.013  0.003  0.007  0.023
   31  0.000  0.001  0.005  0.006
   32  0.006  0.002  0.005  0.013
   33  0.016  0.004  0.007  0.026
   34  0.011  0.003  0.005  0.019
   35  0.000  0.000  0.008  0.008
   36  0.000  0.008  0.031  0.039
   37  0.000  0.002  0.000  0.002
   38  0.000  0.000  0.000  0.000
tot    0.217  0.097  0.401  0.715
 
band    17 # energy   -4.68988125 # occ.  2.00000000
 
ion      s      p      d    tot
    1  0.040  0.003  0.000  0.043
    2  0.000  0.003  0.010  0.013
    3  0.000  0.003  0.010  0.013
    4  0.000  0.003  0.010  0.013
    5  0.000  0.000  0.001  0.001
    6  0.000  0.003  0.010  0.013
    7  0.000  0.003  0.010  0.013
    8  0.000  0.003  0.010  0.013
    9  0.022  0.003  0.001  0.026
   10  0.007  0.004  0.012  0.023
   11  0.003  0.000  0.014  0.017
   12  0.007  0.004  0.012  0.023
   13  0.003  0.000  0.014  0.017
   14  0.003  0.000  0.014  0.017
   15  0.006  0.003  0.018  0.027
   16  0.007  0.004  0.012  0.023
   17  0.006  0.003  0.018  0.027
   18  0.006  0.003  0.018  0.027
   19  0.005  0.004  0.016  0.025
   20  0.000  0.000  0.016  0.016
   21  0.000  0.000  0.016  0.016
   22  0.012  0.003  0.011  0.026
   23  0.000  0.000  0.016  0.016
   24  0.012  0.003  0.010  0.026
   25  0.005  0.004  0.016  0.025
   26  0.005  0.004  0.016  0.025
   27  0.012  0.003  0.011  0.026
   28  0.042  0.003  0.000  0.045
   29  0.000  0.003  0.011  0.014
   30  0.000  0.003  0.010  0.014
   31  0.000  0.003  0.011  0.014
   32  0.000  0.003  0.010  0.014
   33  0.000  0.003  0.010  0.014
   34  0.000  0.003  0.010  0.014
   35  0.021  0.003  0.002  0.026
   36  0.001  0.001  0.000  0.001
   37  0.000  0.000  0.000  0.000
   38  0.000  0.000  0.000  0.000
tot    0.228  0.090  0.389  0.707
 
band    18 # energy   -4.66248317 # occ.  2.00000000
 
ion      s      p      d    tot
    1  0.007  0.000  0.001  0.008
    2  0.000  0.003  0.010  0.013
    3  0.000  0.003  0.010  0.013
    4  0.000  0.003  0.010  0.013
    5  0.031  0.005  0.002  0.037
    6  0.000  0.003  0.010  0.013
    7  0.000  0.003  0.010  0.013
    8  0.000  0.003  0.010  0.013
    9  0.021  0.001  0.000  0.023
   10  0.000  0.000  0.020  0.020
   11  0.011  0.004  0.016  0.031
   12  0.000  0.000  0.020  0.020
   13  0.011  0.004  0.016  0.031
   14  0.011  0.004  0.016  0.031
   15  0.003  0.002  0.009  0.014
   16  0.000  0.000  0.020  0.020
   17  0.003  0.002  0.009  0.014
   18  0.003  0.002  0.009  0.014
   19  0.001  0.000  0.013  0.014
   20  0.016  0.004  0.012  0.032
   21  0.016  0.004  0.012  0.032
   22  0.001  0.002  0.020  0.023
   23  0.016  0.004  0.012  0.032
   24  0.001  0.002  0.020  0.023
   25  0.001  0.000  0.013  0.014
   26  0.001  0.000  0.013  0.014
   27  0.001  0.002  0.020  0.023
   28  0.006  0.000  0.000  0.006
   29  0.000  0.003  0.012  0.015
   30  0.000  0.003  0.012  0.015
   31  0.000  0.003  0.012  0.015
   32  0.000  0.003  0.012  0.015
   33  0.000  0.003  0.012  0.015
   34  0.000  0.003  0.012  0.015
   35  0.025  0.001  0.000  0.027
   36  0.035  0.015  0.001  0.051
   37  0.001  0.006  0.000  0.007
   38  0.002  0.000  0.000  0.002
tot    0.230  0.103  0.403  0.736
 
band    19 # energy   -4.21153591 # occ.  2.00000000
 
ion      s      p      d    tot
    1  0.000  0.001  0.009  0.009
    2  0.000  0.000  0.003  0.003
    3  0.005  0.001  0.003  0.008
    4  0.000  0.000  0.003  0.003
    5  0.000  0.000  0.006  0.007
    6  0.004  0.001  0.003  0.007
    7  0.006  0.001  0.003  0.009
    8  0.005  0.001  0.003  0.008
    9  0.000  0.002  0.001  0.003
   10  0.000  0.001  0.001  0.002
   11  0.000  0.000  0.004  0.004
   12  0.000  0.000  0.014  0.014
   13  0.000  0.000  0.004  0.005
   14  0.000  0.001  0.007  0.008
   15  0.000  0.001  0.008  0.008
   16  0.000  0.000  0.016  0.017
   17  0.000  0.001  0.007  0.008
   18  0.000  0.003  0.004  0.007
   19  0.000  0.001  0.010  0.012
   20  0.000  0.001  0.020  0.021
   21  0.000  0.000  0.028  0.028
   22  0.001  0.000  0.008  0.009
   23  0.000  0.000  0.029  0.029
   24  0.004  0.000  0.008  0.012
   25  0.001  0.001  0.001  0.004
   26  0.000  0.001  0.009  0.010
   27  0.001  0.000  0.008  0.009
   28  0.000  0.002  0.006  0.007
   29  0.016  0.002  0.015  0.033
   30  0.004  0.001  0.009  0.014
   31  0.016  0.002  0.016  0.034
   32  0.006  0.001  0.015  0.023
   33  0.002  0.001  0.009  0.012
   34  0.004  0.001  0.014  0.019
   35  0.000  0.000  0.019  0.019
   36  0.000  0.008  0.145  0.153
   37  0.000  0.174  0.000  0.174
   38  0.000  0.003  0.000  0.003
tot    0.078  0.211  0.467  0.755
 
band    20 # energy   -4.21149902 # occ.  2.00000000
 
ion      s      p      d    tot
    1  0.000  0.001  0.009  0.009
    2  0.007  0.001  0.003  0.010
    3  0.002  0.000  0.003  0.005
    4  0.007  0.001  0.003  0.010
    5  0.000  0.000  0.006  0.007
    6  0.003  0.001  0.003  0.006
    7  0.001  0.000  0.003  0.004
    8  0.002  0.000  0.003  0.005
    9  0.000  0.002  0.001  0.003
   10  0.000  0.000  0.020  0.020
   11  0.000  0.001  0.006  0.007
   12  0.000  0.000  0.007  0.008
   13  0.000  0.001  0.006  0.006
   14  0.000  0.000  0.003  0.003
   15  0.000  0.002  0.005  0.007
   16  0.000  0.000  0.005  0.005
   17  0.000  0.002  0.005  0.007
   18  0.000  0.000  0.009  0.009
   19  0.001  0.001  0.003  0.005
   20  0.000  0.000  0.031  0.031
   21  0.000  0.001  0.024  0.024
   22  0.003  0.000  0.008  0.011
   23  0.000  0.001  0.022  0.023
   24  0.000  0.000  0.008  0.008
   25  0.000  0.001  0.012  0.013
   26  0.001  0.001  0.005  0.007
   27  0.003  0.000  0.008  0.011
   28  0.000  0.002  0.006  0.007
   29  0.000  0.000  0.011  0.012
   30  0.012  0.001  0.017  0.030
   31  0.000  0.000  0.010  0.011
   32  0.010  0.001  0.011  0.022
   33  0.014  0.002  0.017  0.033
   34  0.013  0.001  0.012  0.026
   35  0.000  0.000  0.019  0.019
   36  0.000  0.008  0.145  0.153
   37  0.000  0.173  0.000  0.173
   38  0.000  0.003  0.000  0.003
tot    0.078  0.210  0.467  0.755
 
band    21 # energy   -4.13055555 # occ.  2.00000000
 
ion      s      p      d    tot
    1  0.000  0.000  0.018  0.018
    2  0.008  0.001  0.005  0.014
    3  0.007  0.001  0.005  0.012
    4  0.008  0.001  0.005  0.014
    5  0.000  0.001  0.004  0.005
    6  0.000  0.000  0.005  0.005
    7  0.007  0.001  0.005  0.012
    8  0.000  0.000  0.005  0.005
    9  0.000  0.002  0.006  0.008
   10  0.000  0.000  0.037  0.037
   11  0.000  0.003  0.010  0.013
   12  0.000  0.000  0.015  0.016
   13  0.000  0.003  0.010  0.013
   14  0.000  0.000  0.002  0.002
   15  0.000  0.002  0.010  0.013
   16  0.000  0.000  0.015  0.015