 vasp.6.2.0 18Jan21 (build Jun 12 2021 23:27:24) complex                        
  
 executed on             LinuxIFC date 2022.05.28  01:36:56
 running on   28 total cores
 distrk:  each k-point on   28 cores,    1 groups
 distr:  one band on NCORE=   1 cores,   28 groups


--------------------------------------------------------------------------------------------------------


 INCAR:
   ISMEAR = -5
   SIGMA = 0.1
   ISPIN = 1
   EDIFF = 1.d-5
   EDIFFG = -0.01
   NSW = 0
   NELM = 150
   ENCUT = 500
   ISIF = 2
   IBRION = 2
   LREAL = Auto
   ALGO = Fast
   ICHARG = 11
   LORBIT = 10
   LCHARG = .F.
   LWAVE = .F.

 POTCAR:    PAW_PBE Ag 02Apr2005                  
 POTCAR:    PAW_PBE Co 02Aug2007                  
 POTCAR:    PAW_PBE O 08Apr2002                   
 POTCAR:    PAW_PBE H 15Jun2001                   
 -----------------------------------------------------------------------------
|                                                                             |
|           W    W    AA    RRRRR   N    N  II  N    N   GGGG   !!!           |
|           W    W   A  A   R    R  NN   N  II  NN   N  G    G  !!!           |
|           W    W  A    A  R    R  N N  N  II  N N  N  G       !!!           |
|           W WW W  AAAAAA  RRRRR   N  N N  II  N  N N  G  GGG   !            |
|           WW  WW  A    A  R   R   N   NN  II  N   NN  G    G                |
|           W    W  A    A  R    R  N    N  II  N    N   GGGG   !!!           |
|                                                                             |
|     For optimal performance we recommend to set                             |
|       NCORE = 2 up to number-of-cores-per-socket                            |
|     NCORE specifies how many cores store one orbital (NPAR=cpu/NCORE).      |
|     This setting can greatly improve the performance of VASP for DFT.       |
|     The default, NCORE=1 might be grossly inefficient on modern             |
|     multi-core architectures or massively parallel machines. Do your        |
|     own testing! More info at https://www.vasp.at/wiki/index.php/NCORE      |
|     Unfortunately you need to use the default for GW and RPA                |
|     calculations (for HF NCORE is supported but not extensively tested      |
|     yet).                                                                   |
|                                                                             |
 -----------------------------------------------------------------------------

 POTCAR:    PAW_PBE Ag 02Apr2005                  
   VRHFIN =Ag : s1 d10                                                                              
   LEXCH  = PE                                                                                      
   EATOM  =  1037.2675 eV,   76.2370 Ry                                                             
                                                                                                    
   TITEL  = PAW_PBE Ag 02Apr2005                                                                    
   LULTRA =        F    use ultrasoft PP ?                                                          
   IUNSCR =        1    unscreen: 0-lin 1-nonlin 2-no                                               
   RPACOR =    2.000    partial core radius                                                         
   POMASS =  107.868; ZVAL   =   11.000    mass and valenz                                          
   RCORE  =    2.500    outmost cutoff radius                                                       
   RWIGS  =    2.840; RWIGS  =    1.503    wigner-seitz radius (au A)                               
   ENMAX  =  249.844; ENMIN  =  187.383 eV                                                          
   ICORE  =        3    local potential                                                             
   LCOR   =        T    correct aug charges                                                         
   LPAW   =        T    paw PP                                                                      
   EAUG   =  412.496                                                                                
   DEXC   =    0.000                                                                                
   RMAX   =    2.560    core radius for proj-oper                                                   
   RAUG   =    1.300    factor for augmentation sphere                                              
   RDEP   =    2.576    radius for radial grids                                                     
   RDEPT  =    2.072    core radius for aug-charge                                                  
                                                                                                    
   Atomic configuration                                                                             
   12 entries                                                                                       
     n  l   j            E        occ.                                                              
     1  0  0.50    -25324.9161   2.0000                                                             
     2  0  0.50     -3728.5341   2.0000                                                             
     2  1  1.50     -3344.0404   6.0000                                                             
     3  0  0.50      -683.5581   2.0000                                                             
     3  1  1.50      -557.3225   6.0000                                                             
     3  2  2.50      -358.3853  10.0000                                                             
     4  0  0.50       -95.0341   2.0000                                                             
     4  1  1.50       -58.5511   6.0000                                                             
     4  2  2.50        -7.4440  10.0000                                                             
     5  0  0.50        -4.4045   1.0000                                                             
     5  1  0.50        -1.3606   0.0000                                                             
     4  3  2.50        -1.3606   0.0000                                                             
   Description                                                                                      
     l       E           TYP  RCUT    TYP  RCUT                                                     
     2     -7.4439781     23  2.400                                                                 
     2     -8.8045607     23  2.400                                                                 
     0     -4.4044681     23  2.400                                                                 
     0      1.9520038     23  2.400                                                                 
     1     -1.3605826     23  2.500                                                                 
     1     27.2116520     23  2.500                                                                 
     3     -4.0817478     23  2.400                                                                 
  local pseudopotential read in
  partial core-charges read in
  partial kinetic energy density read in
  atomic valenz-charges read in
  non local Contribution for L=           2  read in
    real space projection operators read in
  non local Contribution for L=           2  read in
    real space projection operators read in
  non local Contribution for L=           0  read in
    real space projection operators read in
  non local Contribution for L=           0  read in
    real space projection operators read in
  non local Contribution for L=           1  read in
    real space projection operators read in
  non local Contribution for L=           1  read in
    real space projection operators read in
    PAW grid and wavefunctions read in
 
   number of l-projection  operators is LMAX  =           6
   number of lm-projection operators is LMMAX =          18
 
 POTCAR:    PAW_PBE Co 02Aug2007                  
   VRHFIN =Co: d8 s1                                                                                
   LEXCH  = PE                                                                                      
   EATOM  =   813.3670 eV,   59.7808 Ry                                                             
                                                                                                    
   TITEL  = PAW_PBE Co 02Aug2007                                                                    
   LULTRA =        F    use ultrasoft PP ?                                                          
   IUNSCR =        1    unscreen: 0-lin 1-nonlin 2-no                                               
   RPACOR =    2.000    partial core radius                                                         
   POMASS =   58.933; ZVAL   =    9.000    mass and valenz                                          
   RCORE  =    2.300    outmost cutoff radius                                                       
   RWIGS  =    2.460; RWIGS  =    1.302    wigner-seitz radius (au A)                               
   ENMAX  =  267.968; ENMIN  =  200.976 eV                                                          
   RCLOC  =    1.203    cutoff for local pot                                                        
   LCOR   =        T    correct aug charges                                                         
   LPAW   =        T    paw PP                                                                      
   EAUG   =  477.818                                                                                
   DEXC   =    0.000                                                                                
   RMAX   =    2.360    core radius for proj-oper                                                   
   RAUG   =    1.300    factor for augmentation sphere                                              
   RDEP   =    2.393    radius for radial grids                                                     
   RDEPT  =    1.864    core radius for aug-charge                                                  
                                                                                                    
   Atomic configuration                                                                             
    9 entries                                                                                       
     n  l   j            E        occ.                                                              
     1  0  0.50     -7587.6674   2.0000                                                             
     2  0  0.50      -893.6084   2.0000                                                             
     2  1  1.50      -764.5805   6.0000                                                             
     3  0  0.50       -97.5973   2.0000                                                             
     3  1  1.50       -60.9648   6.0000                                                             
     3  2  2.50        -4.2382   8.0000                                                             
     4  0  0.50        -4.3746   1.0000                                                             
     4  1  1.50        -4.0817   0.0000                                                             
     4  3  2.50        -1.3606   0.0000                                                             
   Description                                                                                      
     l       E           TYP  RCUT    TYP  RCUT                                                     
     2     -4.2382362     23  2.300                                                                 
     2     -5.5988188     23  2.300                                                                 
     0     -4.3745797     23  2.300                                                                 
     0      5.7660125     23  2.300                                                                 
     1     -2.7211652     23  2.300                                                                 
     1     16.9860234     23  2.300                                                                 
  local pseudopotential read in
  partial core-charges read in
  partial kinetic energy density read in
  atomic valenz-charges read in
  non local Contribution for L=           2  read in
    real space projection operators read in
  non local Contribution for L=           2  read in
    real space projection operators read in
  non local Contribution for L=           0  read in
    real space projection operators read in
  non local Contribution for L=           0  read in
    real space projection operators read in
  non local Contribution for L=           1  read in
    real space projection operators read in
  non local Contribution for L=           1  read in
    real space projection operators read in
    PAW grid and wavefunctions read in
 
   number of l-projection  operators is LMAX  =           6
   number of lm-projection operators is LMMAX =          18
 
 POTCAR:    PAW_PBE O 08Apr2002                   
   VRHFIN =O: s2p4                                                                                  
   LEXCH  = PE                                                                                      
   EATOM  =   432.3788 eV,   31.7789 Ry                                                             
                                                                                                    
   TITEL  = PAW_PBE O 08Apr2002                                                                     
   LULTRA =        F    use ultrasoft PP ?                                                          
   IUNSCR =        1    unscreen: 0-lin 1-nonlin 2-no                                               
   RPACOR =    1.200    partial core radius                                                         
   POMASS =   16.000; ZVAL   =    6.000    mass and valenz                                          
   RCORE  =    1.520    outmost cutoff radius                                                       
   RWIGS  =    1.550; RWIGS  =    0.820    wigner-seitz radius (au A)                               
   ENMAX  =  400.000; ENMIN  =  300.000 eV                                                          
   ICORE  =        2    local potential                                                             
   LCOR   =        T    correct aug charges                                                         
   LPAW   =        T    paw PP                                                                      
   EAUG   =  605.392                                                                                
   DEXC   =    0.000                                                                                
   RMAX   =    1.553    core radius for proj-oper                                                   
   RAUG   =    1.300    factor for augmentation sphere                                              
   RDEP   =    1.550    radius for radial grids                                                     
   RDEPT  =    1.329    core radius for aug-charge                                                  
                                                                                                    
   Atomic configuration                                                                             
    4 entries                                                                                       
     n  l   j            E        occ.                                                              
     1  0  0.50      -514.6923   2.0000                                                             
     2  0  0.50       -23.9615   2.0000                                                             
     2  1  0.50        -9.0305   4.0000                                                             
     3  2  1.50        -9.5241   0.0000                                                             
   Description                                                                                      
     l       E           TYP  RCUT    TYP  RCUT                                                     
     0    -23.9615318     23  1.200                                                                 
     0     -9.5240782     23  1.200                                                                 
     1     -9.0304911     23  1.520                                                                 
     1      8.1634956     23  1.520                                                                 
     2     -9.5240782      7  1.500                                                                 
  local pseudopotential read in
  partial core-charges read in
  partial kinetic energy density read in
  kinetic energy density of atom read in
  atomic valenz-charges read in
  non local Contribution for L=           0  read in
    real space projection operators read in
  non local Contribution for L=           0  read in
    real space projection operators read in
  non local Contribution for L=           1  read in
    real space projection operators read in
  non local Contribution for L=           1  read in
    real space projection operators read in
    PAW grid and wavefunctions read in
 
   number of l-projection  operators is LMAX  =           4
   number of lm-projection operators is LMMAX =           8
 
 POTCAR:    PAW_PBE H 15Jun2001                   
   VRHFIN =H: ultrasoft test                                                                        
   LEXCH  = PE                                                                                      
   EATOM  =    12.4884 eV,    0.9179 Ry                                                             
                                                                                                    
   TITEL  = PAW_PBE H 15Jun2001                                                                     
   LULTRA =        F    use ultrasoft PP ?                                                          
   IUNSCR =        0    unscreen: 0-lin 1-nonlin 2-no                                               
   RPACOR =    0.000    partial core radius                                                         
   POMASS =    1.000; ZVAL   =    1.000    mass and valenz                                          
   RCORE  =    1.100    outmost cutoff radius                                                       
   RWIGS  =    0.700; RWIGS  =    0.370    wigner-seitz radius (au A)                               
   ENMAX  =  250.000; ENMIN  =  200.000 eV                                                          
   RCLOC  =    0.701    cutoff for local pot                                                        
   LCOR   =        T    correct aug charges                                                         
   LPAW   =        T    paw PP                                                                      
   EAUG   =  400.000                                                                                
   RMAX   =    1.123    core radius for proj-oper                                                   
   RAUG   =    1.200    factor for augmentation sphere                                              
   RDEP   =    1.112    radius for radial grids                                                     
   RDEPT  =    0.926    core radius for aug-charge                                                  
                                                                                                    
   Atomic configuration                                                                             
    2 entries                                                                                       
     n  l   j            E        occ.                                                              
     1  0  0.50        -6.4927   1.0000                                                             
     2  1  0.50        -3.4015   0.0000                                                             
   Description                                                                                      
     l       E           TYP  RCUT    TYP  RCUT                                                     
     0     -6.4927494     23  1.100                                                                 
     0      6.8029130     23  1.100                                                                 
     1     -4.0817478     23  1.100                                                                 
  local pseudopotential read in
  atomic valenz-charges read in
  non local Contribution for L=           0  read in
    real space projection operators read in
  non local Contribution for L=           0  read in
    real space projection operators read in
  non local Contribution for L=           1  read in
    real space projection operators read in
    PAW grid and wavefunctions read in
 
   number of l-projection  operators is LMAX  =           3
   number of lm-projection operators is LMMAX =           5
 
 Optimization of the real space projectors (new method)

 maximal supplied QI-value         = 15.12
 optimisation between [QCUT,QGAM] = [ 11.34, 22.83] = [ 36.00,145.93] Ry 
 Optimized for a Real-space Cutoff    1.43 Angstroem

   l    n(q)    QCUT    max X(q) W(low)/X(q) W(high)/X(q)  e(spline) 
   2      9    11.338    53.897    0.16E-03    0.20E-03    0.28E-06
   2      9    11.338    52.416    0.16E-03    0.20E-03    0.29E-06
   0     10    11.338   122.045    0.31E-04    0.76E-04    0.15E-06
   0     10    11.338    73.629    0.30E-04    0.72E-04    0.15E-06
   1      9    11.338    15.255    0.20E-03    0.19E-04    0.17E-06
   1      9    11.338     9.562    0.16E-03    0.15E-04    0.14E-06
 Optimization of the real space projectors (new method)

 maximal supplied QI-value         = 16.25
 optimisation between [QCUT,QGAM] = [ 11.38, 22.75] = [ 36.24,144.96] Ry 
 Optimized for a Real-space Cutoff    1.39 Angstroem

   l    n(q)    QCUT    max X(q) W(low)/X(q) W(high)/X(q)  e(spline) 
   2      8    11.376    65.824    0.20E-03    0.32E-04    0.13E-06
   2      8    11.376    61.429    0.20E-03    0.33E-04    0.14E-06
   0      9    11.376    56.174    0.76E-04    0.11E-03    0.19E-06
   0      9    11.376    31.263    0.69E-04    0.99E-04    0.17E-06
   1      9    11.376    19.828    0.35E-03    0.11E-03    0.12E-06
   1      9    11.376    15.139    0.29E-03    0.94E-04    0.10E-06
 Optimization of the real space projectors (new method)

 maximal supplied QI-value         = 24.76
 optimisation between [QCUT,QGAM] = [ 11.39, 22.77] = [ 36.31,145.25] Ry 
 Optimized for a Real-space Cutoff    1.00 Angstroem

   l    n(q)    QCUT    max X(q) W(low)/X(q) W(high)/X(q)  e(spline) 
   0      7    11.387    20.381    0.39E-03    0.13E-02    0.15E-06
   0      7    11.387    15.268    0.42E-03    0.14E-02    0.17E-06
   1      6    11.387     5.964    0.41E-03    0.11E-02    0.17E-06
   1      6    11.387     5.382    0.39E-03    0.87E-03    0.15E-06
 Optimization of the real space projectors (new method)

 maximal supplied QI-value         = 34.20
 optimisation between [QCUT,QGAM] = [ 11.29, 22.57] = [ 35.68,142.71] Ry 
 Optimized for a Real-space Cutoff    1.16 Angstroem

   l    n(q)    QCUT    max X(q) W(low)/X(q) W(high)/X(q)  e(spline) 
   0      8    11.287    19.460    0.40E-03    0.73E-03    0.16E-06
   0      8    11.287    12.209    0.38E-03    0.70E-03    0.15E-06
   1      7    11.287     4.655    0.22E-03    0.25E-04    0.22E-06
  PAW_PBE Ag 02Apr2005                  :
 energy of atom  1       EATOM=-1037.2675
 kinetic energy error for atom=    0.0052 (will be added to EATOM!!)
  PAW_PBE Co 02Aug2007                  :
 energy of atom  2       EATOM= -813.3670
 kinetic energy error for atom=    0.0028 (will be added to EATOM!!)
  PAW_PBE O 08Apr2002                   :
 energy of atom  3       EATOM= -432.3788
 kinetic energy error for atom=    0.0224 (will be added to EATOM!!)
  PAW_PBE H 15Jun2001                   :
 energy of atom  4       EATOM=  -12.4884
 kinetic energy error for atom=    0.0020 (will be added to EATOM!!)
 
 
 POSCAR: Ag-Co-OOH
  positions in direct lattice
  velocities in cartesian coordinates
 exchange correlation table for  LEXCH =        8
   RHO(1)=    0.500       N(1)  =     2000
   RHO(2)=  100.500       N(2)  =     4000

 VTST: version 3.2, (02/03/18)

 CHAIN: initializing optimizer
 
 OPT: Using VASP Conjugate-Gradient optimizer
 CHAIN: Read ICHAIN            0
 
 POSCAR: Ag-Co-OOH
  positions in direct lattice
  velocities in cartesian coordinates
 


--------------------------------------------------------------------------------------------------------


 ion  position               nearest neighbor table
   1  0.000  0.000  0.204-   2 2.93   8 2.93   7 2.93   6 2.93   4 2.93  12 2.93  16 2.93  10 2.93
                             3 2.93
   2  0.333  0.000  0.204-   1 2.93   8 2.93   9 2.93   3 2.93   4 2.93   5 2.93  10 2.93  17 2.93
                            11 2.93
   3  0.667  0.000  0.204-   9 2.93   2 2.93   5 2.93  11 2.93   7 2.93  18 2.93   1 2.93   6 2.93
                            12 2.93
   4  0.000  0.333  0.204-   5 2.93   6 2.93   2 2.93   1 2.93   7 2.93  13 2.93  15 2.93   9 2.93
                            10 2.93
   5  0.333  0.333  0.204-   4 2.93   3 2.93   7 2.93   2 2.93   8 2.93  14 2.93  13 2.93  11 2.93
                             6 2.93
   6  0.667  0.333  0.204-   4 2.93   9 2.93   1 2.93  15 2.93   8 2.93  12 2.93   3 2.93   5 2.93
                            14 2.93
   7  0.000  0.667  0.204-   8 2.93   1 2.93   5 2.93   3 2.93   4 2.93  16 2.93  18 2.93  13 2.93
                             9 2.93
   8  0.333  0.667  0.204-   7 2.93   1 2.93   2 2.93   9 2.93   5 2.93  16 2.93   6 2.93  17 2.93
                            14 2.93
   9  0.667  0.667  0.204-   3 2.93   2 2.93   8 2.93   6 2.93  17 2.93   4 2.93  15 2.93   7 2.93
                            18 2.93
  10  0.111  0.111  0.296-  20 2.92  19 2.93  26 2.93  12 2.93  16 2.93  15 2.93  17 2.93  13 2.93
                            11 2.93   2 2.93   1 2.93   4 2.93
  11  0.444  0.111  0.296-  21 2.90  20 2.90  27 2.92  14 2.93  17 2.93  18 2.93   3 2.93  12 2.93
                            13 2.93  10 2.93   5 2.93   2 2.93
  12  0.778  0.111  0.296-  21 2.92  25 2.93  19 2.93  10 2.93  16 2.93  18 2.93  15 2.93  11 2.93
                             1 2.93  14 2.93   6 2.93   3 2.93
  13  0.111  0.444  0.296-  20 2.90  23 2.90  22 2.92  15 2.93  14 2.93  18 2.93  10 2.93  11 2.93
                            16 2.93   4 2.93   5 2.93   7 2.93
  14  0.444  0.444  0.296-  23 2.90  21 2.90  24 2.92  13 2.93  11 2.93  16 2.93   5 2.93  12 2.93
                            17 2.93   8 2.93  15 2.93   6 2.93
  15  0.778  0.444  0.296-  24 2.91  22 2.91  19 2.92  13 2.93  10 2.93  12 2.93  17 2.93  18 2.93
                             4 2.93   6 2.93   9 2.93  14 2.93
  16  0.111  0.778  0.296-  23 2.92  26 2.93  25 2.93  18 2.93  12 2.93  10 2.93  14 2.93  17 2.93
                            13 2.93   7 2.93   8 2.93   1 2.93
  17  0.444  0.778  0.296-  27 2.91  24 2.91  26 2.92  11 2.93  10 2.93   9 2.93  18 2.93  15 2.93
                            16 2.93   2 2.93  14 2.93   8 2.93
  18  0.778  0.778  0.296-  22 2.91  27 2.91  25 2.92  16 2.93  12 2.93  13 2.93  11 2.93  17 2.93
                            15 2.93   7 2.93   3 2.93   9 2.93
  19  0.889  0.222  0.388-  28 2.91  15 2.92  10 2.93  12 2.93  24 2.93  22 2.93  26 2.93  25 2.93
                            32 2.94  31 2.94  20 2.94  21 2.94
  20  0.223  0.223  0.387-  36 2.69  31 2.89  29 2.89  13 2.90  11 2.90  21 2.91  23 2.91  10 2.92
                            27 2.93  22 2.93  19 2.94  26 2.94
  21  0.554  0.223  0.387-  36 2.69  30 2.89  32 2.89  11 2.90  14 2.90  20 2.91  23 2.91  12 2.92
                            27 2.93  24 2.93  25 2.94  19 2.94
  22  0.888  0.556  0.388-  35 2.91  33 2.91  31 2.91  18 2.91  15 2.91  13 2.92  24 2.92  27 2.92
                            25 2.93  19 2.93  23 2.93  20 2.93
  23  0.223  0.554  0.387-  36 2.69  34 2.89  33 2.89  14 2.90  13 2.90  21 2.91  20 2.91  16 2.92
                            22 2.93  24 2.93  26 2.94  25 2.94
  24  0.556  0.556  0.388-  35 2.91  32 2.91  34 2.91  15 2.91  17 2.91  14 2.92  27 2.92  22 2.92
                            19 2.93  26 2.93  23 2.93  21 2.93
  25  0.889  0.889  0.388-  28 2.91  18 2.92  16 2.93  12 2.93  22 2.93  27 2.93  26 2.93  19 2.93
                            33 2.94  30 2.94  23 2.94  21 2.94
  26  0.222  0.889  0.388-  28 2.91  17 2.92  16 2.93  10 2.93  27 2.93  24 2.93  25 2.93  19 2.93
                            34 2.94  29 2.94  23 2.94  20 2.94
  27  0.556  0.888  0.388-  35 2.91  29 2.91  30 2.91  17 2.91  18 2.91  11 2.92  24 2.92  22 2.92
                            26 2.93  25 2.93  20 2.93  21 2.93
  28  0.000  0.000  0.480-  38 2.21  26 2.91  25 2.91  19 2.91  29 2.97  34 2.97  33 2.97  32 2.97
                            31 2.97  30 2.97
  29  0.333  0.008  0.479-  38 2.28  31 2.86  30 2.86  36 2.87  20 2.89  27 2.91  26 2.94  28 2.97
                            35 2.97  34 3.07
  30  0.659  0.008  0.479-  32 2.86  29 2.86  36 2.87  21 2.89  27 2.91  25 2.94  28 2.97  35 2.97
                            33 3.07
  31  0.008  0.333  0.479-  38 2.39  37 2.43  29 2.86  33 2.86  36 2.87  20 2.89  22 2.91  19 2.94
                            28 2.97  35 2.97  32 3.07
  32  0.659  0.333  0.479-  30 2.86  34 2.86  36 2.87  21 2.89  24 2.91  19 2.94  28 2.97  35 2.97
                            31 3.07
  33  0.008  0.659  0.479-  37 2.25  34 2.86  31 2.86  36 2.87  23 2.89  22 2.91  25 2.94  28 2.97
                            35 2.97  30 3.07
  34  0.333  0.659  0.479-  33 2.86  32 2.86  36 2.87  23 2.89  24 2.91  26 2.94  28 2.97  35 2.97
                            29 3.07
  35  0.667  0.667  0.479-  24 2.91  27 2.91  22 2.91  32 2.97  30 2.97  29 2.97  34 2.97  31 2.97
                            33 2.97
  36  0.333  0.333  0.468-  37 1.68  21 2.69  20 2.69  23 2.69  31 2.87  30 2.87  33 2.87  29 2.87
                            34 2.87  32 2.87
  37  0.206  0.414  0.521-  36 1.68  33 2.25  31 2.43
  38  0.114  0.094  0.539-  39 0.97  28 2.21  29 2.28  31 2.39
  39  0.124  0.073  0.576-  38 0.97
 
  LATTYP: Found a hexagonal cell.
 ALAT       =     8.7913665772
 C/A-ratio  =     2.9469639759
  
  Lattice vectors:
  
 A1 = (  -4.3956832886,  -7.6135467898,   0.0000000000)
 A2 = (   8.7913665771,   0.0000000000,   0.0000000000)
 A3 = (   0.0000000000,   0.0000000000,  25.9078406020)


Analysis of symmetry for initial positions (statically):
=====================================================================
 Subroutine PRICEL returns:
 Original cell was already a primitive cell.
 

 Routine SETGRP: Setting up the symmetry group for a 
 hexagonal supercell.


 Subroutine GETGRP returns: Found  1 space group operations
 (whereof  1 operations were pure point group operations)
 out of a pool of 24 trial point group operations.


The static configuration has the point symmetry C_1 .


Analysis of symmetry for dynamics (positions and initial velocities):
=====================================================================
 Subroutine PRICEL returns:
 Original cell was already a primitive cell.
 

 Routine SETGRP: Setting up the symmetry group for a 
 hexagonal supercell.


 Subroutine GETGRP returns: Found  1 space group operations
 (whereof  1 operations were pure point group operations)
 out of a pool of 24 trial point group operations.


The dynamic configuration has the point symmetry C_1 .


Analysis of constrained symmetry for selective dynamics:
=====================================================================
 Subroutine PRICEL returns:
 Original cell was already a primitive cell.
 

 Routine SETGRP: Setting up the symmetry group for a 
 hexagonal supercell.


 Subroutine GETGRP returns: Found  1 space group operations
 (whereof  1 operations were pure point group operations)
 out of a pool of 24 trial point group operations.


The constrained configuration has the point symmetry C_1 .


 Subroutine INISYM returns: Found  1 space group operations
 (whereof  1 operations are pure point group operations),
 and found     1 'primitive' translations


----------------------------------------------------------------------------------------

                                     Primitive cell                                     

  volume of cell :    1734.1020

  direct lattice vectors                    reciprocal lattice vectors
     8.791366577  0.000000000  0.000000000     0.113747958 -0.065672414  0.000000000
     4.395683289  7.613546790  0.000000000     0.000000000  0.131344829  0.000000000
     0.000000000  0.000000000 25.907840602     0.000000000  0.000000000  0.038598354

  length of vectors
     8.791366577  8.791366577 25.907840602     0.131344829  0.131344829  0.038598354

  position of ions in fractional coordinates (direct lattice)
     0.000000000  0.000000000  0.203883767
     0.333333313  0.000000000  0.203883767
     0.666666627  0.000000000  0.203883767
     1.000000000  0.333333343  0.203883767
     0.333333313  0.333333343  0.203883767
     0.666666687  0.333333343  0.203883767
     1.000000000  0.666666687  0.203883767
     0.333333313  0.666666687  0.203883767
     0.666666627  0.666666687  0.203883767
     0.111111104  0.111111112  0.296238327
     0.444444448  0.111111112  0.296238327
     0.777777791  0.111111112  0.296238327
     0.111111097  0.444444448  0.296238327
     0.444444418  0.444444448  0.296238327
     0.777777791  0.444444448  0.296238327
     0.111111104  0.777777791  0.296238327
     0.444444448  0.777777791  0.296238327
     0.777777791  0.777777791  0.296238327
     0.888752503  0.222495009  0.388369041
     0.223120888  0.223120903  0.387495858
     0.553758163  0.223120903  0.387495858
     0.888275417  0.555862322  0.387910601
     0.223120903  0.553758223  0.387495858
     0.555862322  0.555862322  0.387910601
     0.888752503  0.888752503  0.388369041
     0.222494979  0.888752503  0.388369041
     0.555862262  0.888275417  0.387910601
     0.000000000  0.000000000  0.479608507
     0.333222951  0.008221705  0.479372856
     0.658555284  0.008221705  0.479372856
     0.008221705  0.333222981  0.479372856
     0.658555344  0.333222981  0.479372856
     0.008221705  0.658555344  0.479372856
     0.333222951  0.658555344  0.479372856
     0.666666627  0.666666687  0.479440384
     0.333333313  0.333333343  0.468410280
     0.206138129  0.414285236  0.520835547
     0.114095377  0.094256188  0.538987778
     0.124174365  0.072745267  0.575997796

  ion indices of the primitive-cell ions
   primitive index   ion index
                 1           1
                 2           2
                 3           3
                 4           4
                 5           5
                 6           6
                 7           7
                 8           8
                 9           9
                10          10
                11          11
                12          12
                13          13
                14          14
                15          15
                16          16
                17          17
                18          18
                19          19
                20          20
                21          21
                22          22
                23          23
                24          24
                25          25
                26          26
                27          27
                28          28
                29          29
                30          30
                31          31
                32          32
                33          33
                34          34
                35          35
                36          36
                37          37
                38          38
                39          39

----------------------------------------------------------------------------------------

 
 
 KPOINTS: Automatic mesh                          

Automatic generation of k-mesh.
 Grid dimensions read from file:
 generate k-points for:    8    8    1

 Generating k-lattice:

  Cartesian coordinates                     Fractional coordinates (reciprocal lattice)
     0.014218495 -0.008209052  0.000000000     0.125000000 -0.000000000  0.000000000
     0.000000000  0.016418104  0.000000000     0.000000000  0.125000000  0.000000000
     0.000000000  0.000000000  0.038598354     0.000000000  0.000000000  1.000000000

  Length of vectors
     0.016418104  0.016418104  0.038598354

  Shift w.r.t. Gamma in fractional coordinates (k-lattice)
     0.000000000  0.000000000  0.000000000

 TETIRR: Found    192 inequivalent tetrahedra from      384
 
 Subroutine IBZKPT returns following result:
 ===========================================
 
 Found     34 irreducible k-points:
 
 Following reciprocal coordinates:
            Coordinates               Weight
  0.000000  0.000000  0.000000      1.000000
  0.125000  0.000000  0.000000      2.000000
  0.125000  0.125000  0.000000      2.000000
  0.000000  0.125000  0.000000      2.000000
  0.250000  0.000000  0.000000      2.000000
  0.250000  0.250000  0.000000      2.000000
  0.000000  0.250000  0.000000      2.000000
  0.375000  0.000000  0.000000      2.000000
  0.375000  0.375000  0.000000      2.000000
  0.000000  0.375000  0.000000      2.000000
  0.500000  0.000000  0.000000      1.000000
  0.500000  0.500000  0.000000      1.000000
  0.000000  0.500000  0.000000      1.000000
  0.250000  0.125000  0.000000      2.000000
  0.125000  0.250000  0.000000      2.000000
 -0.125000  0.125000  0.000000      2.000000
  0.375000  0.125000  0.000000      2.000000
  0.250000  0.375000  0.000000      2.000000
 -0.125000  0.250000  0.000000      2.000000
  0.250000 -0.125000  0.000000      2.000000
 -0.125000 -0.375000  0.000000      2.000000
 -0.375000 -0.250000  0.000000      2.000000
  0.500000  0.125000  0.000000      2.000000
  0.375000  0.500000  0.000000      2.000000
 -0.125000  0.375000  0.000000      2.000000
  0.375000 -0.125000  0.000000      2.000000
 -0.125000  0.500000  0.000000      2.000000
  0.500000 -0.375000  0.000000      2.000000
  0.500000  0.250000  0.000000      2.000000
  0.250000  0.500000  0.000000      2.000000
 -0.250000  0.250000  0.000000      2.000000
 -0.375000  0.250000  0.000000      2.000000
  0.375000 -0.375000  0.000000      2.000000
 -0.250000  0.375000  0.000000      2.000000
 
 Following cartesian coordinates:
            Coordinates               Weight
  0.000000  0.000000  0.000000      1.000000
  0.014218 -0.008209  0.000000      2.000000
  0.014218  0.008209  0.000000      2.000000
  0.000000  0.016418  0.000000      2.000000
  0.028437 -0.016418  0.000000      2.000000
  0.028437  0.016418  0.000000      2.000000
  0.000000  0.032836  0.000000      2.000000
  0.042655 -0.024627  0.000000      2.000000
  0.042655  0.024627  0.000000      2.000000
  0.000000  0.049254  0.000000      2.000000
  0.056874 -0.032836  0.000000      1.000000
  0.056874  0.032836  0.000000      1.000000
  0.000000  0.065672  0.000000      1.000000
  0.028437 -0.000000  0.000000      2.000000
  0.014218  0.024627  0.000000      2.000000
 -0.014218  0.024627  0.000000      2.000000
  0.042655 -0.008209  0.000000      2.000000
  0.028437  0.032836  0.000000      2.000000
 -0.014218  0.041045  0.000000      2.000000
  0.028437 -0.032836  0.000000      2.000000
 -0.014218 -0.041045  0.000000      2.000000
 -0.042655 -0.008209  0.000000      2.000000
  0.056874 -0.016418  0.000000      2.000000
  0.042655  0.041045  0.000000      2.000000
 -0.014218  0.057463  0.000000      2.000000
  0.042655 -0.041045  0.000000      2.000000
 -0.014218  0.073881  0.000000      2.000000
  0.056874 -0.082091  0.000000      2.000000
  0.056874 -0.000000  0.000000      2.000000
  0.028437  0.049254  0.000000      2.000000
 -0.028437  0.049254  0.000000      2.000000
 -0.042655  0.057463  0.000000      2.000000
  0.042655 -0.073881  0.000000      2.000000
 -0.028437  0.065672  0.000000      2.000000
 


--------------------------------------------------------------------------------------------------------




 Dimension of arrays:
   k-points           NKPTS =     34   k-points in BZ     NKDIM =     34   number of bands    NBANDS=    252
   number of dos      NEDOS =    301   number of ions     NIONS =     39
   non local maximal  LDIM  =      6   non local SUM 2l+1 LMDIM =     18
   total plane-waves  NPLWV = 331776
   max r-space proj   IRMAX =   2400   max aug-charges    IRDMAX=   9606
   dimension x,y,z NGX =    48 NGY =   48 NGZ =  144
   dimension x,y,z NGXF=    96 NGYF=   96 NGZF=  288
   support grid    NGXF=    96 NGYF=   96 NGZF=  288
   ions per type =              35   1   2   1
   NGX,Y,Z   is equivalent  to a cutoff of   9.08,  9.08,  9.24 a.u.
   NGXF,Y,Z  is equivalent  to a cutoff of  18.15, 18.15, 18.48 a.u.

 SYSTEM =  unknown system                          
 POSCAR =  Ag-Co-OOH                               

 Startparameter for this run:
   NWRITE =      2    write-flag & timer
   PREC   = normal    normal or accurate (medium, high low for compatibility)
   ISTART =      0    job   : 0-new  1-cont  2-samecut
   ICHARG =     11    charge: 1-file 2-atom 10-const
   ISPIN  =      1    spin polarized calculation?
   LNONCOLLINEAR =      F non collinear calculations
   LSORBIT =      F    spin-orbit coupling
   INIWAV =      1    electr: 0-lowe 1-rand  2-diag
   LASPH  =      F    aspherical Exc in radial PAW
   METAGGA=      F    non-selfconsistent MetaGGA calc.

 Electronic Relaxation 1
   ENCUT  =  500.0 eV  36.75 Ry    6.06 a.u.  16.03 16.03 47.24*2*pi/ulx,y,z
   ENINI  =  500.0     initial cutoff
   ENAUG  =  605.4 eV  augmentation charge cutoff
   NELM   =    150;   NELMIN=  2; NELMDL= -5     # of ELM steps 
   EDIFF  = 0.1E-04   stopping-criterion for ELM
   LREAL  =      T    real-space projection
   NLSPLINE    = F    spline interpolate recip. space projectors
   LCOMPAT=      F    compatible to vasp.4.4
   GGA_COMPAT  = T    GGA compatible to vasp.4.4-vasp.4.6
   LMAXPAW     = -100 max onsite density
   LMAXMIX     =    2 max onsite mixed and CHGCAR
   VOSKOWN=      0    Vosko Wilk Nusair interpolation
   ROPT   =   -0.00050  -0.00050  -0.00050  -0.00050
 Ionic relaxation
   EDIFFG = -.1E-01   stopping-criterion for IOM
   NSW    =      0    number of steps for IOM
   NBLOCK =      1;   KBLOCK =      1    inner block; outer block 
   IBRION =     -1    ionic relax: 0-MD 1-quasi-New 2-CG
   NFREE  =      1    steps in history (QN), initial steepest desc. (CG)
   ISIF   =      2    stress and relaxation
   IWAVPR =     10    prediction:  0-non 1-charg 2-wave 3-comb
   ISYM   =      2    0-nonsym 1-usesym 2-fastsym
   LCORR  =      T    Harris-Foulkes like correction to forces

   POTIM  = 0.5000    time-step for ionic-motion
   TEIN   =    0.0    initial temperature
   TEBEG  =    0.0;   TEEND  =   0.0 temperature during run
   SMASS  =  -3.00    Nose mass-parameter (am)
   estimated Nose-frequenzy (Omega)   =  0.10E-29 period in steps = 0.13E+47 mass=  -0.177E-26a.u.
   SCALEE = 1.0000    scale energy and forces
   NPACO  =    256;   APACO  = 16.0  distance and # of slots for P.C.
   PSTRESS=    0.0 pullay stress

  Mass of Ions in am
   POMASS = 107.87 58.93 16.00  1.00
  Ionic Valenz
   ZVAL   =  11.00  9.00  6.00  1.00
  Atomic Wigner-Seitz radii
   RWIGS  =  -1.00 -1.00 -1.00 -1.00
  virtual crystal weights 
   VCA    =   1.00  1.00  1.00  1.00
   NELECT =     407.0000    total number of electrons
   NUPDOWN=      -1.0000    fix difference up-down

 DOS related values:
   EMIN   =  10.00;   EMAX   =-10.00  energy-range for DOS
   EFERMI =   0.00
   ISMEAR =    -5;   SIGMA  =   0.10  broadening in eV -4-tet -1-fermi 0-gaus

 Electronic relaxation 2 (details)
   IALGO  =     68    algorithm
   LDIAG  =      T    sub-space diagonalisation (order eigenvalues)
   LSUBROT=      F    optimize rotation matrix (better conditioning)
   TURBO    =      0    0=normal 1=particle mesh
   IRESTART =      0    0=no restart 2=restart with 2 vectors
   NREBOOT  =      0    no. of reboots
   NMIN     =      0    reboot dimension
   EREF     =   0.00    reference energy to select bands
   IMIX   =      4    mixing-type and parameters
     AMIX     =   0.40;   BMIX     =  1.00
     AMIX_MAG =   1.60;   BMIX_MAG =  1.00
     AMIN     =   0.10
     WC   =   100.;   INIMIX=   1;  MIXPRE=   1;  MAXMIX= -45

 Intra band minimization:
   WEIMIN = 0.0000     energy-eigenvalue tresh-hold
   EBREAK =  0.99E-08  absolut break condition
   DEPER  =   0.30     relativ break condition  

   TIME   =   0.40     timestep for ELM

  volume/ion in A,a.u.               =      44.46       300.06
  Fermi-wavevector in a.u.,A,eV,Ry     =   1.009830  1.908301 13.874620  1.019756
  Thomas-Fermi vector in A             =   2.142782
 
 Write flags
   LWAVE        =      F    write WAVECAR
   LDOWNSAMPLE  =      F    k-point downsampling of WAVECAR
   LCHARG       =      F    write CHGCAR
   LVTOT        =      F    write LOCPOT, total local potential
   LVHAR        =      F    write LOCPOT, Hartree potential only
   LELF         =      F    write electronic localiz. function (ELF)
   LORBIT       =     10    0 simple, 1 ext, 2 COOP (PROOUT), +10 PAW based schemes


 Dipole corrections
   LMONO  =      F    monopole corrections only (constant potential shift)
   LDIPOL =      F    correct potential (dipole corrections)
   IDIPOL =      0    1-x, 2-y, 3-z, 4-all directions 
   EPSILON=  1.0000000 bulk dielectric constant

 Exchange correlation treatment:
   GGA     =    --    GGA type
   LEXCH   =     8    internal setting for exchange type
   VOSKOWN=      0    Vosko Wilk Nusair interpolation
   LHFCALC =     F    Hartree Fock is set to
   LHFONE  =     F    Hartree Fock one center treatment
   AEXX    =    0.0000 exact exchange contribution

 Linear response parameters
   LEPSILON=     F    determine dielectric tensor
   LRPA    =     F    only Hartree local field effects (RPA)
   LNABLA  =     F    use nabla operator in PAW spheres
   LVEL    =     F    velocity operator in full k-point grid
   LINTERFAST=   F  fast interpolation
   KINTER  =     0    interpolate to denser k-point grid
   CSHIFT  =0.1000    complex shift for real part using Kramers Kronig
   OMEGAMAX=  -1.0    maximum frequency
   DEG_THRESHOLD= 0.2000000E-02 threshold for treating states as degnerate
   RTIME   =   -0.100 relaxation time in fs
  (WPLASMAI=    0.000 imaginary part of plasma frequency in eV, 0.658/RTIME)
   DFIELD  = 0.0000000 0.0000000 0.0000000 field for delta impulse in time
 
 Orbital magnetization related:
   ORBITALMAG=     F  switch on orbital magnetization
   LCHIMAG   =     F  perturbation theory with respect to B field
   DQ        =  0.001000  dq finite difference perturbation B field
   LLRAUG    =     F  two centre corrections for induced B field



--------------------------------------------------------------------------------------------------------


 Static calculation
 charge density and potential remain constant during run
 non-spin polarized calculation
 RMM-DIIS sequential band-by-band and
  variant of blocked Davidson during initial phase
 perform sub-space diagonalisation
    before iterative eigenvector-optimisation
 no mixing
 using additional bands           48
 real space projection scheme for non local part
 use partial core corrections
 calculate Harris-corrections to forces 
   (improved forces if not selfconsistent)
 use gradient corrections 
 WARNING: stress and forces are not correct
  (second derivative of E(xc) not defined)
 use of overlap-Matrix (Vanderbilt PP)
 Fermi weights with tetrahedron method with Bloechl corrections


--------------------------------------------------------------------------------------------------------


  energy-cutoff  :      500.00
  volume of cell :     1734.10
      direct lattice vectors                 reciprocal lattice vectors
     8.791366577  0.000000000  0.000000000     0.113747958 -0.065672414  0.000000000
     4.395683289  7.613546790  0.000000000     0.000000000  0.131344829  0.000000000
     0.000000000  0.000000000 25.907840602     0.000000000  0.000000000  0.038598354

  length of vectors
     8.791366577  8.791366577 25.907840602     0.131344829  0.131344829  0.038598354


 
 k-points in units of 2pi/SCALE and weight: Automatic mesh                          
   0.00000000  0.00000000  0.00000000       0.016
   0.01421849 -0.00820905  0.00000000       0.031
   0.01421849  0.00820905  0.00000000       0.031
   0.00000000  0.01641810  0.00000000       0.031
   0.02843699 -0.01641810  0.00000000       0.031
   0.02843699  0.01641810  0.00000000       0.031
   0.00000000  0.03283621  0.00000000       0.031
   0.04265548 -0.02462716  0.00000000       0.031
   0.04265548  0.02462716  0.00000000       0.031
   0.00000000  0.04925431  0.00000000       0.031
   0.05687398 -0.03283621  0.00000000       0.016
   0.05687398  0.03283621  0.00000000       0.016
   0.00000000  0.06567241  0.00000000       0.016
   0.02843699 -0.00000000  0.00000000       0.031
   0.01421849  0.02462716  0.00000000       0.031
  -0.01421849  0.02462716  0.00000000       0.031
   0.04265548 -0.00820905  0.00000000       0.031
   0.02843699  0.03283621  0.00000000       0.031
  -0.01421849  0.04104526  0.00000000       0.031
   0.02843699 -0.03283621  0.00000000       0.031
  -0.01421849 -0.04104526  0.00000000       0.031
  -0.04265548 -0.00820905  0.00000000       0.031
   0.05687398 -0.01641810  0.00000000       0.031
   0.04265548  0.04104526  0.00000000       0.031
  -0.01421849  0.05746336  0.00000000       0.031
   0.04265548 -0.04104526  0.00000000       0.031
  -0.01421849  0.07388147  0.00000000       0.031
   0.05687398 -0.08209052  0.00000000       0.031
   0.05687398 -0.00000000  0.00000000       0.031
   0.02843699  0.04925431  0.00000000       0.031
  -0.02843699  0.04925431  0.00000000       0.031
  -0.04265548  0.05746336  0.00000000       0.031
   0.04265548 -0.07388147  0.00000000       0.031
  -0.02843699  0.06567241  0.00000000       0.031
 
 k-points in reciprocal lattice and weights: Automatic mesh                          
   0.00000000  0.00000000  0.00000000       0.016
   0.12500000  0.00000000  0.00000000       0.031
   0.12500000  0.12500000  0.00000000       0.031
   0.00000000  0.12500000  0.00000000       0.031
   0.25000000  0.00000000  0.00000000       0.031
   0.25000000  0.25000000  0.00000000       0.031
   0.00000000  0.25000000  0.00000000       0.031
   0.37500000  0.00000000  0.00000000       0.031
   0.37500000  0.37500000  0.00000000       0.031
   0.00000000  0.37500000  0.00000000       0.031
   0.50000000  0.00000000  0.00000000       0.016
   0.50000000  0.50000000  0.00000000       0.016
   0.00000000  0.50000000  0.00000000       0.016
   0.25000000  0.12500000  0.00000000       0.031
   0.12500000  0.25000000  0.00000000       0.031
  -0.12500000  0.12500000  0.00000000       0.031
   0.37500000  0.12500000  0.00000000       0.031
   0.25000000  0.37500000  0.00000000       0.031
  -0.12500000  0.25000000  0.00000000       0.031
   0.25000000 -0.12500000  0.00000000       0.031
  -0.12500000 -0.37500000  0.00000000       0.031
  -0.37500000 -0.25000000  0.00000000       0.031
   0.50000000  0.12500000  0.00000000       0.031
   0.37500000  0.50000000  0.00000000       0.031
  -0.12500000  0.37500000  0.00000000       0.031
   0.37500000 -0.12500000  0.00000000       0.031
  -0.12500000  0.50000000  0.00000000       0.031
   0.50000000 -0.37500000  0.00000000       0.031
   0.50000000  0.25000000  0.00000000       0.031
   0.25000000  0.50000000  0.00000000       0.031
  -0.25000000  0.25000000  0.00000000       0.031
  -0.37500000  0.25000000  0.00000000       0.031
   0.37500000 -0.37500000  0.00000000       0.031
  -0.25000000  0.37500000  0.00000000       0.031
 
 position of ions in fractional coordinates (direct lattice) 
   0.00000000  0.00000000  0.20388377
   0.33333331  0.00000000  0.20388377
   0.66666663  0.00000000  0.20388377
   0.00000000  0.33333334  0.20388377
   0.33333331  0.33333334  0.20388377
   0.66666669  0.33333334  0.20388377
   0.00000000  0.66666669  0.20388377
   0.33333331  0.66666669  0.20388377
   0.66666663  0.66666669  0.20388377
   0.11111110  0.11111111  0.29623833
   0.44444445  0.11111111  0.29623833
   0.77777779  0.11111111  0.29623833
   0.11111110  0.44444445  0.29623833
   0.44444442  0.44444445  0.29623833
   0.77777779  0.44444445  0.29623833
   0.11111110  0.77777779  0.29623833
   0.44444445  0.77777779  0.29623833
   0.77777779  0.77777779  0.29623833
   0.88875250  0.22249501  0.38836904
   0.22312089  0.22312090  0.38749586
   0.55375816  0.22312090  0.38749586
   0.88827542  0.55586232  0.38791060
   0.22312090  0.55375822  0.38749586
   0.55586232  0.55586232  0.38791060
   0.88875250  0.88875250  0.38836904
   0.22249498  0.88875250  0.38836904
   0.55586226  0.88827542  0.38791060
   0.00000000  0.00000000  0.47960851
   0.33322295  0.00822170  0.47937286
   0.65855528  0.00822170  0.47937286
   0.00822170  0.33322298  0.47937286
   0.65855534  0.33322298  0.47937286
   0.00822170  0.65855534  0.47937286
   0.33322295  0.65855534  0.47937286
   0.66666663  0.66666669  0.47944038
   0.33333331  0.33333334  0.46841028
   0.20613813  0.41428524  0.52083555
   0.11409538  0.09425619  0.53898778
   0.12417437  0.07274527  0.57599780
 
 position of ions in cartesian coordinates  (Angst):
   0.00000000  0.00000000  5.28218814
   2.93045535  0.00000000  5.28218814
   5.86091070  0.00000000  5.28218814
   1.46522781  2.53784900  5.28218814
   4.39568315  2.53784900  5.28218814
   7.32613904  2.53784900  5.28218814
   2.93045562  5.07569801  5.28218814
   5.86091096  5.07569801  5.28218814
   8.79136632  5.07569801  5.28218814
   1.46522770  0.84594965  7.67489535
   4.39568332  0.84594965  7.67489535
   7.32613893  0.84594965  7.67489535
   2.93045542  3.38379860  7.67489535
   5.86091083  3.38379860  7.67489535
   8.79136671  3.38379860  7.67489535
   4.39568328  5.92164760  7.67489535
   7.32613890  5.92164760  7.67489535
  10.25659451  5.92164760  7.67489535
   8.79136665  1.69397616 10.06180321
   2.94230635  1.69874144 10.03918093
   5.84905984  1.69874144 10.03918093
  10.25254953  4.23208379 10.04992602
   4.39568342  4.21606414 10.03918093
   7.33018415  4.23208379 10.04992602
  11.72002358  6.76655877 10.06180321
   5.86270945  6.76655877 10.06180321
   8.79136631  6.76292645 10.04992602
   0.00000000  0.00000000 12.42562075
   2.96562513  0.06259633 12.41951554
   5.82574092  0.06259633 12.41951554
   1.53702271  2.53700876 12.41951554
   7.25434413  2.53700876 12.41951554
   2.96708074  5.01394193 12.41951554
   5.82428584  5.01394193 12.41951554
   8.79136632  5.07569801 12.42126504
   4.39568315  2.53784900 12.13549887
   3.63330255  3.15418003 13.49372433
   1.41737463  0.71762390 13.96400945
   1.41142752  0.55384949 14.92285908
 


--------------------------------------------------------------------------------------------------------


 k-point   1 :   0.0000 0.0000 0.0000  plane waves:   43913
 k-point   2 :   0.1250 0.0000 0.0000  plane waves:   43928
 k-point   3 :   0.1250 0.1250 0.0000  plane waves:   43928
 k-point   4 :   0.0000 0.1250 0.0000  plane waves:   43928
 k-point   5 :   0.2500 0.0000 0.0000  plane waves:   43978
 k-point   6 :   0.2500 0.2500 0.0000  plane waves:   43978
 k-point   7 :   0.0000 0.2500 0.0000  plane waves:   43978
 k-point   8 :   0.3750 0.0000 0.0000  plane waves:   44020
 k-point   9 :   0.3750 0.3750 0.0000  plane waves:   44020
 k-point  10 :   0.0000 0.3750 0.0000  plane waves:   44020
 k-point  11 :   0.5000 0.0000 0.0000  plane waves:   44008
 k-point  12 :   0.5000 0.5000 0.0000  plane waves:   44008
 k-point  13 :   0.0000 0.5000 0.0000  plane waves:   44008
 k-point  14 :   0.2500 0.1250 0.0000  plane waves:   43994
 k-point  15 :   0.1250 0.2500 0.0000  plane waves:   43994
 k-point  16 :  -0.1250 0.1250 0.0000  plane waves:   43994
 k-point  17 :   0.3750 0.1250 0.0000  plane waves:   44042
 k-point  18 :   0.2500 0.3750 0.0000  plane waves:   44042
 k-point  19 :  -0.1250 0.2500 0.0000  plane waves:   44042
 k-point  20 :   0.2500-0.1250 0.0000  plane waves:   44042
 k-point  21 :  -0.1250-0.3750 0.0000  plane waves:   44042
 k-point  22 :  -0.3750-0.2500 0.0000  plane waves:   44042
 k-point  23 :   0.5000 0.1250 0.0000  plane waves:   44080
 k-point  24 :   0.3750 0.5000 0.0000  plane waves:   44080
 k-point  25 :  -0.1250 0.3750 0.0000  plane waves:   44080
 k-point  26 :   0.3750-0.1250 0.0000  plane waves:   44080
 k-point  27 :  -0.1250 0.5000 0.0000  plane waves:   44080
 k-point  28 :   0.5000-0.3750 0.0000  plane waves:   44080
 k-point  29 :   0.5000 0.2500 0.0000  plane waves:   44092
 k-point  30 :   0.2500 0.5000 0.0000  plane waves:   44092
 k-point  31 :  -0.2500 0.2500 0.0000  plane waves:   44092
 k-point  32 :  -0.3750 0.2500 0.0000  plane waves:   44050
 k-point  33 :   0.3750-0.3750 0.0000  plane waves:   44050
 k-point  34 :  -0.2500 0.3750 0.0000  plane waves:   44050

 maximum and minimum number of plane-waves per node :     44092    43913

 maximum number of plane-waves:     44092
 maximum index in each direction: 
   IXMAX=   16   IYMAX=   16   IZMAX=   47
   IXMIN=  -16   IYMIN=  -16   IZMIN=  -47


 serial   3D FFT for wavefunctions
 parallel 3D FFT for charge:
    minimum data exchange during FFTs selected (reduces bandwidth)


 total amount of memory used by VASP MPI-rank0   290801. kBytes
=======================================================================

   base      :      30000. kBytes
   nonlr-proj:      14731. kBytes
   fftplans  :       4948. kBytes
   grid      :      21313. kBytes
   one-center:        606. kBytes
   wavefun   :     219203. kBytes
 
     INWAV:  cpu time    0.0000: real time    0.0000
 initial charge density was supplied:
 number of electron     407.0000090 magnetization 
 keeping initial charge density in first step


--------------------------------------------------------------------------------------------------------


 Maximum index for non-local projection operator         2292
 Maximum index for augmentation-charges          695 (set IRDMAX)


--------------------------------------------------------------------------------------------------------


 First call to EWALD:  gamma=   0.148
 Maximum number of real-space cells 4x 4x 2
 Maximum number of reciprocal cells 2x 2x 5

    FEWALD:  cpu time    0.0014: real time    0.0014


--------------------------------------- Iteration      1(   1)  ---------------------------------------


    POTLOK:  cpu time    0.0489: real time    0.0492
    SETDIJ:  cpu time    0.0045: real time    0.0045
     EDDAV:  cpu time   27.1515: real time   27.1533
 BZINTS: Fermi energy:    9.030767;  407.000000 electrons
         Band energy: 0.971469E+03;  BLOECHL correction:   -0.015840
       DOS:  cpu time    0.0602: real time    0.0602
    --------------------------------------------
      LOOP:  cpu time   27.2651: real time   27.2673

 eigenvalue-minimisations  : 17136
 total energy-change (2. order) : 0.2518027E+04  (-0.1837650E+05)
 number of electron     407.0000090 magnetization 
 augmentation part      407.0000090 magnetization 

 Free energy of the ion-electron system (eV)
  ---------------------------------------------------
  alpha Z        PSCENC =       657.68722296
  Ewald energy   TEWEN  =    158622.98838448
  -Hartree energ DENC   =   -196895.45336081
  -exchange      EXHF   =         0.00000000
  -V(xc)+E(xc)   XCENC  =      -313.84590722
  PAW double counting   =     40189.84411523   -38709.40615479
  entropy T*S    EENTRO =         0.00000000
  eigenvalues    EBANDS =       971.46888798
  atomic energy  EATOM  =     37994.74430500
  Solvation  Ediel_sol  =         0.00000000
  ---------------------------------------------------
  free energy    TOTEN  =      2518.02749284 eV

  energy without entropy =     2518.02749284  energy(sigma->0) =     2518.02749284


--------------------------------------------------------------------------------------------------------




--------------------------------------- Iteration      1(   2)  ---------------------------------------


     EDDAV:  cpu time   28.2978: real time   28.2985
 BZINTS: Fermi energy:    0.897741;  407.000000 electrons
         Band energy:-0.153924E+04;  BLOECHL correction:   -0.022846
       DOS:  cpu time    0.0561: real time    0.0561
    --------------------------------------------
      LOOP:  cpu time   28.3539: real time   28.3545

 eigenvalue-minimisations  : 18088
 total energy-change (2. order) :-0.2510713E+04  (-0.2394584E+04)
 number of electron     407.0000090 magnetization 
 augmentation part      407.0000090 magnetization 

 Free energy of the ion-electron system (eV)
  ---------------------------------------------------
  alpha Z        PSCENC =       657.68722296
  Ewald energy   TEWEN  =    158622.98838448
  -Hartree energ DENC   =   -196895.45336081
  -exchange      EXHF   =         0.00000000
  -V(xc)+E(xc)   XCENC  =      -313.84590722
  PAW double counting   =     40189.84411523   -38709.40615479
  entropy T*S    EENTRO =         0.00000000
  eigenvalues    EBANDS =     -1539.24430745
  atomic energy  EATOM  =     37994.74430500
  Solvation  Ediel_sol  =         0.00000000
  ---------------------------------------------------
  free energy    TOTEN  =         7.31429740 eV

  energy without entropy =        7.31429740  energy(sigma->0) =        7.31429740


--------------------------------------------------------------------------------------------------------




--------------------------------------- Iteration      1(   3)  ---------------------------------------


     EDDAV:  cpu time   31.5751: real time   31.5755
 BZINTS: Fermi energy:    0.124857;  407.000000 electrons
         Band energy:-0.165509E+04;  BLOECHL correction:   -0.031737
       DOS:  cpu time    0.0575: real time    0.0575
    --------------------------------------------
      LOOP:  cpu time   31.6327: real time   31.6331

 eigenvalue-minimisations  : 20636
 total energy-change (2. order) :-0.1158435E+03  (-0.1129841E+03)
 number of electron     407.0000090 magnetization 
 augmentation part      407.0000090 magnetization 

 Free energy of the ion-electron system (eV)
  ---------------------------------------------------
  alpha Z        PSCENC =       657.68722296
  Ewald energy   TEWEN  =    158622.98838448
  -Hartree energ DENC   =   -196895.45336081
  -exchange      EXHF   =         0.00000000
  -V(xc)+E(xc)   XCENC  =      -313.84590722
  PAW double counting   =     40189.84411523   -38709.40615479
  entropy T*S    EENTRO =         0.00000000
  eigenvalues    EBANDS =     -1655.08784955
  atomic energy  EATOM  =     37994.74430500
  Solvation  Ediel_sol  =         0.00000000
  ---------------------------------------------------
  free energy    TOTEN  =      -108.52924469 eV

  energy without entropy =     -108.52924469  energy(sigma->0) =     -108.52924469


--------------------------------------------------------------------------------------------------------




--------------------------------------- Iteration      1(   4)  ---------------------------------------


     EDDAV:  cpu time   29.0542: real time   29.0547
 BZINTS: Fermi energy:    0.102535;  407.000000 electrons
         Band energy:-0.165755E+04;  BLOECHL correction:   -0.032765
       DOS:  cpu time    0.0579: real time    0.0579
    --------------------------------------------
      LOOP:  cpu time   29.1122: real time   29.1126

 eigenvalue-minimisations  : 18648
 total energy-change (2. order) :-0.2460209E+01  (-0.2453309E+01)
 number of electron     407.0000090 magnetization 
 augmentation part      407.0000090 magnetization 

 Free energy of the ion-electron system (eV)
  ---------------------------------------------------
  alpha Z        PSCENC =       657.68722296
  Ewald energy   TEWEN  =    158622.98838448
  -Hartree energ DENC   =   -196895.45336081
  -exchange      EXHF   =         0.00000000
  -V(xc)+E(xc)   XCENC  =      -313.84590722
  PAW double counting   =     40189.84411523   -38709.40615479
  entropy T*S    EENTRO =         0.00000000
  eigenvalues    EBANDS =     -1657.54805891
  atomic energy  EATOM  =     37994.74430500
  Solvation  Ediel_sol  =         0.00000000
  ---------------------------------------------------
  free energy    TOTEN  =      -110.98945405 eV

  energy without entropy =     -110.98945405  energy(sigma->0) =     -110.98945405


--------------------------------------------------------------------------------------------------------




--------------------------------------- Iteration      1(   5)  ---------------------------------------


     EDDAV:  cpu time   32.9440: real time   32.9446
 BZINTS: Fermi energy:    0.102232;  407.000000 electrons
         Band energy:-0.165760E+04;  BLOECHL correction:   -0.032781
       DOS:  cpu time    0.0592: real time    0.0592
    --------------------------------------------
      LOOP:  cpu time   33.0032: real time   33.0065

 eigenvalue-minimisations  : 21672
 total energy-change (2. order) :-0.4976997E-01  (-0.4975179E-01)
 number of electron     407.0000090 magnetization 
 augmentation part      407.0000090 magnetization 

 Free energy of the ion-electron system (eV)
  ---------------------------------------------------
  alpha Z        PSCENC =       657.68722296
  Ewald energy   TEWEN  =    158622.98838448
  -Hartree energ DENC   =   -196895.45336081
  -exchange      EXHF   =         0.00000000
  -V(xc)+E(xc)   XCENC  =      -313.84590722
  PAW double counting   =     40189.84411523   -38709.40615479
  entropy T*S    EENTRO =         0.00000000
  eigenvalues    EBANDS =     -1657.59782888
  atomic energy  EATOM  =     37994.74430500
  Solvation  Ediel_sol  =         0.00000000
  ---------------------------------------------------
  free energy    TOTEN  =      -111.03922402 eV

  energy without entropy =     -111.03922402  energy(sigma->0) =     -111.03922402


--------------------------------------------------------------------------------------------------------




--------------------------------------- Iteration      1(   6)  ---------------------------------------


    EDDIAG:  cpu time    5.4362: real time    5.4393
  RMM-DIIS:  cpu time   15.7617: real time   15.7619
    ORTHCH:  cpu time    1.0162: real time    1.0162
 BZINTS: Fermi energy:    0.102230;  407.000000 electrons
         Band energy:-0.165760E+04;  BLOECHL correction:   -0.032781
       DOS:  cpu time    0.0591: real time    0.0591
    --------------------------------------------
      LOOP:  cpu time   22.2732: real time   22.2737

 eigenvalue-minimisations  : 17460
 total energy-change (2. order) :-0.9882693E-03  (-0.9881979E-03)
 number of electron     407.0000090 magnetization 
 augmentation part      407.0000090 magnetization 

 Free energy of the ion-electron system (eV)
  ---------------------------------------------------
  alpha Z        PSCENC =       657.68722296
  Ewald energy   TEWEN  =    158622.98838448
  -Hartree energ DENC   =   -196895.45336081
  -exchange      EXHF   =         0.00000000
  -V(xc)+E(xc)   XCENC  =      -313.84590722
  PAW double counting   =     40189.84411523   -38709.40615479
  entropy T*S    EENTRO =         0.00000000
  eigenvalues    EBANDS =     -1657.59881714
  atomic energy  EATOM  =     37994.74430500
  Solvation  Ediel_sol  =         0.00000000
  ---------------------------------------------------
  free energy    TOTEN  =      -111.04021229 eV

  energy without entropy =     -111.04021229  energy(sigma->0) =     -111.04021229


--------------------------------------------------------------------------------------------------------




--------------------------------------- Iteration      1(   7)  ---------------------------------------


    EDDIAG:  cpu time    5.4378: real time    5.4381
  RMM-DIIS:  cpu time   21.9030: real time   21.9033
    ORTHCH:  cpu time    1.0162: real time    1.0162
 BZINTS: Fermi energy:    0.102229;  407.000000 electrons
         Band energy:-0.165760E+04;  BLOECHL correction:   -0.032781
       DOS:  cpu time    0.0579: real time    0.0579
    --------------------------------------------
      LOOP:  cpu time   28.4149: real time   28.4155

 eigenvalue-minimisations  : 24733
 total energy-change (2. order) :-0.3618366E-03  (-0.3580716E-03)
 number of electron     407.0000090 magnetization 
 augmentation part      407.0000090 magnetization 

 Free energy of the ion-electron system (eV)
  ---------------------------------------------------
  alpha Z        PSCENC =       657.68722296
  Ewald energy   TEWEN  =    158622.98838448
  -Hartree energ DENC   =   -196895.45336081
  -exchange      EXHF   =         0.00000000
  -V(xc)+E(xc)   XCENC  =      -313.84590722
  PAW double counting   =     40189.84411523   -38709.40615479
  entropy T*S    EENTRO =         0.00000000
  eigenvalues    EBANDS =     -1657.59917898
  atomic energy  EATOM  =     37994.74430500
  Solvation  Ediel_sol  =         0.00000000
  ---------------------------------------------------
  free energy    TOTEN  =      -111.04057412 eV

  energy without entropy =     -111.04057412  energy(sigma->0) =     -111.04057412


--------------------------------------------------------------------------------------------------------




--------------------------------------- Iteration      1(   8)  ---------------------------------------


    EDDIAG:  cpu time    5.4350: real time    5.4352
  RMM-DIIS:  cpu time   17.6781: real time   17.6783
    ORTHCH:  cpu time    1.0178: real time    1.0178
 BZINTS: Fermi energy:    0.102229;  407.000000 electrons
         Band energy:-0.165760E+04;  BLOECHL correction:   -0.032781
       DOS:  cpu time    0.0579: real time    0.0579
    --------------------------------------------
      LOOP:  cpu time   24.1888: real time   24.1893

 eigenvalue-minimisations  : 18455
 total energy-change (2. order) :-0.2674860E-04  (-0.2729340E-04)
 number of electron     407.0000090 magnetization 
 augmentation part      407.0000090 magnetization 

 Free energy of the ion-electron system (eV)
  ---------------------------------------------------
  alpha Z        PSCENC =       657.68722296
  Ewald energy   TEWEN  =    158622.98838448
  -Hartree energ DENC   =   -196895.45336081
  -exchange      EXHF   =         0.00000000
  -V(xc)+E(xc)   XCENC  =      -313.84590722
  PAW double counting   =     40189.84411523   -38709.40615479
  entropy T*S    EENTRO =         0.00000000
  eigenvalues    EBANDS =     -1657.59920573
  atomic energy  EATOM  =     37994.74430500
  Solvation  Ediel_sol  =         0.00000000
  ---------------------------------------------------
  free energy    TOTEN  =      -111.04060087 eV

  energy without entropy =     -111.04060087  energy(sigma->0) =     -111.04060087


--------------------------------------------------------------------------------------------------------




--------------------------------------- Iteration      1(   9)  ---------------------------------------


    EDDIAG:  cpu time    5.4359: real time    5.4361
  RMM-DIIS:  cpu time   13.0594: real time   13.0595
    ORTHCH:  cpu time    1.0158: real time    1.0158
 BZINTS: Fermi energy:    0.102229;  407.000000 electrons
         Band energy:-0.165760E+04;  BLOECHL correction:   -0.032781
       DOS:  cpu time    0.0592: real time    0.0592
    --------------------------------------------
      LOOP:  cpu time   19.5702: real time   19.5706

 eigenvalue-minimisations  : 12139
 total energy-change (2. order) :-0.4792761E-05  (-0.4848854E-05)
 number of electron     407.0000090 magnetization 
 augmentation part      407.0000090 magnetization 

 Free energy of the ion-electron system (eV)
  ---------------------------------------------------
  alpha Z        PSCENC =       657.68722296
  Ewald energy   TEWEN  =    158622.98838448
  -Hartree energ DENC   =   -196895.45336081
  -exchange      EXHF   =         0.00000000
  -V(xc)+E(xc)   XCENC  =      -313.84590722
  PAW double counting   =     40189.84411523   -38709.40615479
  entropy T*S    EENTRO =         0.00000000
  eigenvalues    EBANDS =     -1657.59921052
  atomic energy  EATOM  =     37994.74430500
  Solvation  Ediel_sol  =         0.00000000
  ---------------------------------------------------
  free energy    TOTEN  =      -111.04060567 eV

  energy without entropy =     -111.04060567  energy(sigma->0) =     -111.04060567


--------------------------------------------------------------------------------------------------------




 average (electrostatic) potential at core
  the test charge radii are     1.1249  1.0452  0.7215  0.5201
  (the norm of the test charge is              1.0000)
       1 -78.7962       2 -78.7847       3 -78.7834       4 -78.7932       5 -78.7848
       6 -78.7805       7 -78.8033       8 -78.7896       9 -78.8195      10 -79.0187
      11 -79.0129      12 -79.0113      13 -79.0194      14 -79.0213      15 -79.0237
      16 -79.0184      17 -79.0187      18 -79.0377      19 -78.9843      20 -79.0122
      21 -79.0633      22 -79.0046      23 -79.0170      24 -79.0196      25 -78.9869
      26 -78.9839      27 -79.0033      28 -78.6284      29 -78.5822      30 -78.6885
      31 -78.5996      32 -78.7257      33 -78.7822      34 -78.7384      35 -78.7265
      36 -88.1677      37 -75.8985      38 -75.2112      39 -39.5201
 
 
 
 E-fermi :   0.1022     XC(G=0):  -5.1311     alpha+bet : -4.8460

 Fermi energy:         0.1022292956

 k-point     1 :       0.0000    0.0000    0.0000
  band No.  band energies     occupation 
      1     -18.8761      2.00000
      2     -18.1642      2.00000
      3      -7.4359      2.00000
      4      -6.9803      2.00000
      5      -6.1266      2.00000
      6      -5.8515      2.00000
      7      -5.7736      2.00000
      8      -5.7430      2.00000
      9      -5.7397      2.00000
     10      -5.7345      2.00000
     11      -5.7318      2.00000
     12      -5.7298      2.00000
     13      -5.7230      2.00000
     14      -5.7010      2.00000
     15      -5.6967      2.00000
     16      -5.6924      2.00000
     17      -5.6824      2.00000
     18      -5.6815      2.00000
     19      -5.6006      2.00000
     20      -5.5764      2.00000
     21      -5.5353      2.00000
     22      -5.5303      2.00000
     23      -5.5226      2.00000
     24      -5.5214      2.00000
     25      -5.5153      2.00000
     26      -5.4136      2.00000
     27      -5.3732      2.00000
     28      -5.3486      2.00000
     29      -5.3379      2.00000
     30      -5.3274      2.00000
     31      -5.3094      2.00000
     32      -5.3032      2.00000
     33      -5.3020      2.00000
     34      -5.2929      2.00000
     35      -5.2847      2.00000
     36      -5.2685      2.00000
     37      -5.2631      2.00000
     38      -5.2539      2.00000
     39      -5.2195      2.00000
     40      -5.2034      2.00000
     41      -5.1849      2.00000
     42      -5.1246      2.00000
     43      -5.0617      2.00000
     44      -4.9698      2.00000
     45      -4.9618      2.00000
     46      -4.9560      2.00000
     47      -4.9346      2.00000
     48      -4.9304      2.00000
     49      -4.9218      2.00000
     50      -4.9104      2.00000
     51      -4.8875      2.00000
     52      -4.8821      2.00000
     53      -4.8453      2.00000
     54      -4.7982      2.00000
     55      -4.7877      2.00000
     56      -4.7846      2.00000
     57      -4.7631      2.00000
     58      -4.6709      2.00000
     59      -4.6416      2.00000
     60      -4.5623      2.00000
     61      -4.5459      2.00000
     62      -4.5433      2.00000
     63      -4.5388      2.00000
     64      -4.5305      2.00000
     65      -4.5252      2.00000
     66      -4.5138      2.00000
     67      -4.5103      2.00000
     68      -4.4907      2.00000
     69      -4.4776      2.00000
     70      -4.4703      2.00000
     71      -4.4561      2.00000
     72      -4.4238      2.00000
     73      -4.3939      2.00000
     74      -4.3833      2.00000
     75      -4.3701      2.00000
     76      -4.3680      2.00000
     77      -4.3568      2.00000
     78      -4.3510      2.00000
     79      -4.3348      2.00000
     80      -4.3278      2.00000
     81      -4.3256      2.00000
     82      -4.3219      2.00000
     83      -4.3030      2.00000
     84      -4.2978      2.00000
     85      -4.2895      2.00000
     86      -4.2702      2.00000
     87      -4.2453      2.00000
     88      -4.2422      2.00000
     89      -4.2405      2.00000
     90      -4.2294      2.00000
     91      -4.2126      2.00000
     92      -4.1813      2.00000
     93      -4.1483      2.00000
     94      -4.1361      2.00000
     95      -4.1228      2.00000
     96      -4.0982      2.00000
     97      -4.0958      2.00000
     98      -4.0749      2.00000
     99      -4.0681      2.00000
    100      -4.0579      2.00000
    101      -4.0354      2.00000
    102      -4.0204      2.00000
    103      -3.8983      2.00000
    104      -3.8647      2.00000
    105      -3.8444      2.00000
    106      -3.8261      2.00000
    107      -3.8160      2.00000
    108      -3.8134      2.00000
    109      -3.7773      2.00000
    110      -3.7602      2.00000
    111      -3.7533      2.00000
    112      -3.7227      2.00000
    113      -3.7149      2.00000
    114      -3.7049      2.00000
    115      -3.6966      2.00000
    116      -3.6625      2.00000
    117      -3.6350      2.00000
    118      -3.6298      2.00000
    119      -3.6069      2.00000
    120      -3.5897      2.00000
    121      -3.5697      2.00000
    122      -3.5599      2.00000
[...]
  0.000   0.000   0.000   0.000   0.000   0.000   0.000   0.000   0.000   0.000   1.000   0.000   0.000   0.000   0.000   0.000
  0.000   0.000   0.000   0.000   0.000   0.000   0.000   0.000   0.000   0.000   0.000   0.000   0.000   0.000   0.000   0.000
  0.000   0.000   0.000   0.000   0.000   0.000   0.000   0.000   0.000   0.000   0.000   0.000   0.000   0.000   0.000   0.000
  0.000   0.000   0.000   0.000   0.000   0.000   0.000   0.000   0.000   0.000   0.000   0.000   0.000   0.000   0.000   0.000
  0.000   0.000   0.000   0.000   0.000   0.000   0.000   0.000   0.000   0.000   0.000   0.000   0.000   0.000   0.000   0.000
  0.000   0.000   0.000   0.000   0.000   0.000   0.000   0.000   0.000   0.000   0.000   0.000   0.000   0.000   0.000   0.000
  0.000   0.000   0.000   0.000   0.000   0.000   0.000   0.000   0.000   0.000   0.000   0.000   0.000   0.000   0.000   0.000
  0.000   0.000   0.000   0.000   0.000   0.000   0.000   0.000   0.000   0.000   0.000   0.000   0.000   0.000   0.000   0.000


------------------------ aborting loop because EDIFF is reached ----------------------------------------





 total charge

# of ion       s       p       d       tot
------------------------------------------
    1        0.418   0.203   9.177   9.798
    2        0.417   0.203   9.177   9.797
    3        0.417   0.204   9.177   9.797
    4        0.416   0.203   9.177   9.797
    5        0.415   0.204   9.176   9.796
    6        0.416   0.204   9.176   9.797
    7        0.417   0.202   9.177   9.797
    8        0.417   0.202   9.178   9.797
    9        0.416   0.202   9.178   9.796
   10        0.405   0.268   9.165   9.838
   11        0.404   0.270   9.167   9.841
   12        0.415   0.266   9.162   9.842
   13        0.406   0.269   9.165   9.841
   14        0.402   0.271   9.167   9.839
   15        0.405   0.268   9.165   9.838
   16        0.406   0.268   9.164   9.838
   17        0.406   0.267   9.166   9.839
   18        0.401   0.272   9.163   9.835
   19        0.403   0.270   9.161   9.834
   20        0.416   0.297   9.151   9.865
   21        0.436   0.283   9.150   9.870
   22        0.402   0.273   9.166   9.840
   23        0.415   0.294   9.155   9.865
   24        0.397   0.272   9.169   9.838
   25        0.398   0.277   9.156   9.830
   26        0.403   0.267   9.164   9.834
   27        0.397   0.276   9.164   9.838
   28        0.376   0.242   9.184   9.802
   29        0.367   0.236   9.191   9.794
   30        0.407   0.207   9.179   9.792
   31        0.345   0.232   9.198   9.776
   32        0.405   0.203   9.185   9.793
   33        0.383   0.242   9.173   9.798
   34        0.388   0.195   9.202   9.786
   35        0.411   0.191   9.186   9.788
   36        0.444   0.442   7.377   8.262
   37        1.597   3.281   0.000   4.877
   38        1.556   3.494   0.000   5.050
   39        0.617   0.120   0.000   0.737
--------------------------------------------------
tot         18.363  15.840 328.387 362.590
 
    CHARGE:  cpu time    1.2920: real time    1.2921
    FORLOC:  cpu time    0.0127: real time    0.0127
    FORNL :  cpu time    5.5450: real time    5.5453
    STRESS:  cpu time   16.6766: real time   16.6770
    FORCOR:  cpu time    0.0514: real time    0.0515
    FORHAR:  cpu time    0.0202: real time    0.0203
    OFIELD:  cpu time    0.0003: real time    0.0003

  FORCE on cell =-STRESS in cart. coord.  units (eV):
  Direction    XX          YY          ZZ          XY          YZ          ZX
  --------------------------------------------------------------------------------------
  Alpha Z   657.68722   657.68722   657.68722
  Ewald  181594.79558181602.40421************    46.84444    14.43344   -68.55309
  Hartree191716.41299191735.68004************    63.96584    -1.00135   -35.44130
  E(xc)   -2138.31717 -2138.39344 -2142.43933    -0.12148     0.00328    -0.04931
  Local  ************************384486.34532  -115.77860   -10.05723    95.67591
  n-local  -377.88770  -378.47892  -382.78932    -1.00647     1.29355    -1.41240
  augment  3391.72973  3392.90064  3393.07456     2.72737    -4.06633     4.96441
  Kinetic  5122.52623  5123.65910  5118.92151     3.30696    -0.52173     4.41904
  Fock        0.00000     0.00000     0.00000     0.00000     0.00000     0.00000
  -------------------------------------------------------------------------------------
  Total      -5.01412    -5.38081     0.25842    -0.06193     0.08364    -0.39673
  in kB      -4.63266    -4.97146     0.23876    -0.05722     0.07728    -0.36655
  external pressure =       -3.12 kB  Pullay stress =        0.00 kB


 VOLUME and BASIS-vectors are now :
 -----------------------------------------------------------------------------
  energy-cutoff  :      500.00
  volume of cell :     1734.10
      direct lattice vectors                 reciprocal lattice vectors
     8.791366577  0.000000000  0.000000000     0.113747958 -0.065672414  0.000000000
     4.395683289  7.613546790  0.000000000     0.000000000  0.131344829  0.000000000
     0.000000000  0.000000000 25.907840602     0.000000000  0.000000000  0.038598354

  length of vectors
     8.791366577  8.791366577 25.907840602     0.131344829  0.131344829  0.038598354


 FORCES acting on ions
    electron-ion (+dipol)            ewald-force                    non-local-force                 convergence-correction
 -----------------------------------------------------------------------------------------------
   0.255E-01 0.202E+00 0.284E+04   -.257E+00 -.428E-01 -.283E+04   0.134E+00 -.108E+00 -.183E+01   0.757E-01 -.341E-01 -.416E-01
   0.334E+00 0.962E+00 0.284E+04   -.365E+00 -.851E+00 -.284E+04   0.160E-01 -.617E-01 -.151E+01   0.163E-01 -.429E-01 -.695E-01
   -.306E+00 0.727E+00 0.284E+04   0.623E+00 -.613E+00 -.283E+04   -.194E+00 -.142E-01 -.158E+01   -.104E+00 -.751E-01 -.920E-01
   0.108E+01 -.635E-01 0.284E+04   -.102E+01 -.780E-01 -.284E+04   -.500E-01 0.555E-01 -.175E+01   -.332E-02 0.725E-01 -.104E+00
   -.450E+00 0.153E-01 0.284E+04   0.337E+00 -.509E-01 -.284E+04   0.120E+00 -.302E-01 -.170E+01   -.126E-01 0.649E-01 -.947E-01
   -.640E+00 -.134E+00 0.284E+04   0.679E+00 -.182E+00 -.283E+04   -.790E-01 0.146E+00 -.156E+01   0.290E-01 0.142E+00 -.969E-01
   0.390E+00 -.972E+00 0.284E+04   -.313E+00 0.104E+01 -.284E+04   -.384E-01 0.203E-02 -.189E+01   -.290E-01 -.732E-01 -.107E+00
   -.407E+00 -.720E+00 0.284E+04   0.390E+00 0.694E+00 -.284E+04   -.902E-02 0.480E-01 -.162E+01   0.312E-01 -.236E-01 -.659E-01
   -.151E-01 -.303E-01 0.284E+04   -.771E-01 0.877E-01 -.283E+04   0.913E-01 -.261E-01 -.185E+01   -.114E-01 -.264E-01 -.709E-01
   0.596E+01 0.379E+01 0.102E+04   -.574E+01 -.372E+01 -.102E+04   -.249E+00 -.409E-01 -.676E+00   0.316E-01 -.158E-01 -.331E-01
   -.241E+01 0.780E+01 0.103E+04   0.233E+01 -.790E+01 -.103E+04   0.729E-01 0.865E-01 -.300E+00   0.973E-03 -.317E-01 -.876E-01
   -.349E+01 0.281E+01 0.102E+04   0.341E+01 -.275E+01 -.101E+04   0.980E-01 -.642E-01 -.989E+00   -.991E-02 -.238E-03 -.416E-02
   0.537E+01 -.458E+01 0.103E+04   -.538E+01 0.450E+01 -.103E+04   0.473E-01 0.349E-01 -.698E+00   -.456E-01 0.564E-01 -.934E-01
   -.728E+01 -.294E+01 0.103E+04   0.736E+01 0.297E+01 -.103E+04   -.778E-01 -.528E-01 -.284E+00   0.286E-01 0.515E-01 -.865E-01
   0.179E+01 0.111E-01 0.102E+04   -.198E+01 -.202E+00 -.102E+04   0.151E+00 0.120E+00 -.669E+00   0.188E-01 0.595E-01 -.569E-01
   0.342E+00 -.601E+01 0.102E+04   -.308E+00 0.582E+01 -.102E+04   -.712E-01 0.204E+00 -.740E+00   0.269E-01 -.286E-01 -.195E-01
   0.137E+00 0.678E+00 0.102E+04   -.115E+00 -.595E+00 -.102E+04   -.170E-01 -.644E-01 -.639E+00   -.128E-01 -.233E-01 -.382E-01
   -.410E+00 -.161E+01 0.102E+04   0.424E+00 0.188E+01 -.102E+04   0.173E-01 -.207E+00 -.742E+00   -.222E-01 -.518E-01 -.278E-01
   0.182E+02 -.302E+01 -.828E+03   -.178E+02 0.294E+01 0.829E+03   -.396E+00 0.117E+00 -.838E-01   -.933E-02 -.676E-02 -.225E+00
   0.213E+02 0.239E+02 -.765E+03   -.204E+02 -.236E+02 0.766E+03   -.723E+00 -.249E+00 -.721E+00   -.178E+00 -.102E+00 -.419E+00
   -.389E+02 0.218E+02 -.801E+03   0.377E+02 -.211E+02 0.802E+03   0.111E+01 -.619E+00 -.951E+00   0.186E+00 -.102E+00 -.424E+00
   0.232E+02 -.204E+02 -.819E+03   -.234E+02 0.204E+02 0.819E+03   0.213E+00 -.122E+00 0.437E+00   -.249E-01 0.739E-01 -.293E+00
   -.112E+02 -.414E+02 -.779E+03   0.113E+02 0.402E+02 0.779E+03   -.812E-01 0.948E+00 -.384E+00   -.133E-01 0.236E+00 -.435E+00
   -.126E+02 -.551E+01 -.836E+03   0.125E+02 0.565E+01 0.836E+03   -.253E-01 -.181E+00 0.763E+00   0.626E-01 0.426E-01 -.296E+00
   0.847E+01 -.519E+01 -.843E+03   -.803E+01 0.502E+01 0.844E+03   -.341E+00 0.234E+00 0.514E-01   -.157E-01 -.512E-01 -.210E+00
   -.255E+00 0.116E+02 -.826E+03   0.247E+00 -.115E+02 0.827E+03   0.350E-01 -.957E-01 -.287E-02   -.224E-01 -.203E-01 -.211E+00
   -.801E+01 0.181E+02 -.833E+03   0.772E+01 -.180E+02 0.833E+03   0.169E+00 0.218E-01 0.396E+00   0.311E-01 -.773E-01 -.282E+00
   0.125E+03 0.528E+02 -.260E+04   -.127E+03 -.534E+02 0.260E+04   0.468E+00 0.329E+00 0.114E+01   0.686E-01 -.759E-01 -.157E+00
   -.987E+02 0.120E+03 -.261E+04   0.100E+03 -.121E+03 0.261E+04   -.103E+01 0.398E-01 0.178E+01   -.164E+00 -.233E+00 -.929E-01
   -.246E+02 0.409E+02 -.273E+04   0.242E+02 -.402E+02 0.273E+04   0.367E+00 -.591E+00 0.209E+01   0.106E+00 -.194E+00 -.744E-01
   0.132E+03 -.842E+02 -.259E+04   -.132E+03 0.852E+02 0.259E+04   0.302E+00 -.620E+00 0.263E+01   -.275E+00 -.397E-01 -.118E+00
   -.166E+02 -.125E+02 -.272E+04   0.154E+02 0.128E+02 0.272E+04   0.976E+00 -.235E+00 0.243E+01   0.201E+00 -.107E-01 -.928E-01
   0.669E+02 -.156E+03 -.266E+04   -.669E+02 0.157E+03 0.266E+04   -.889E-01 -.386E+00 0.173E+01   -.144E+00 0.299E+00 -.153E+00
   -.641E+02 -.185E+02 -.270E+04   0.648E+02 0.175E+02 0.270E+04   -.605E+00 0.721E+00 0.301E+01   0.126E+00 0.313E+00 -.115E+00
   0.965E+01 -.109E+02 -.272E+04   -.987E+01 0.108E+02 0.272E+04   0.148E+00 0.115E+00 0.196E+01   0.964E-02 0.116E-01 -.888E-01
   -.145E+03 0.847E+02 -.191E+04   0.144E+03 -.845E+02 0.191E+04   0.593E+00 -.311E+00 -.201E+01   0.275E-01 -.400E-01 -.680E-01
   -.103E+02 -.334E+02 -.191E+04   0.630E+01 0.348E+02 0.193E+04   0.418E+01 -.158E+01 -.242E+02   -.188E+00 0.150E+00 0.308E+00
   0.188E+02 0.108E+02 -.184E+04   -.174E+02 -.193E+01 0.181E+04   -.136E+01 -.875E+01 0.253E+02   -.323E-01 -.925E-01 -.276E-01
   0.243E+01 0.161E+02 -.369E+03   -.246E+01 -.174E+02 0.377E+03   0.324E-01 0.133E+01 -.802E+01   -.305E-02 -.461E-02 -.419E-03
 -----------------------------------------------------------------------------------------------
   -.365E+01 0.976E+01 0.183E+02   0.480E-13 0.320E-13 -.614E-11   0.391E+01 -.986E+01 -.137E+02   -.244E+00 0.963E-01 -.466E+01
 
 
 POSITION                                       TOTAL-FORCE (eV/Angst)
 -----------------------------------------------------------------------------------
      0.00000      0.00000      5.28219        -0.022795      0.016083      0.000782
      2.93046      0.00000      5.28219         0.000975      0.006244      0.030657
      5.86091      0.00000      5.28219         0.018379      0.024857      0.028880
      1.46523      2.53785      5.28219         0.014189     -0.013673      0.018847
      4.39568      2.53785      5.28219        -0.006489     -0.001060      0.018012
      7.32614      2.53785      5.28219        -0.011376     -0.027344      0.028114
      2.93046      5.07570      5.28219         0.009693     -0.006976      0.022641
      5.86091      5.07570      5.28219         0.005050     -0.001845      0.023262
      8.79137      5.07570      5.28219        -0.012628      0.004816      0.022435
      1.46523      0.84595      7.67490         0.007692      0.011706     -0.003759
      4.39568      0.84595      7.67490        -0.002864     -0.039260     -0.053739
      7.32614      0.84595      7.67490         0.003195     -0.002896     -0.037224
      2.93046      3.38380      7.67490        -0.008518      0.009030     -0.093508
      5.86091      3.38380      7.67490         0.032160      0.028490     -0.041621
      8.79137      3.38380      7.67490        -0.018030     -0.011490     -0.020321
      4.39568      5.92165      7.67490        -0.010394     -0.011178     -0.003521
      7.32614      5.92165      7.67490        -0.008280     -0.004461     -0.022451
     10.25659      5.92165      7.67490         0.008680      0.018733      0.035805
      8.79137      1.69398     10.06180         0.027025      0.024566      0.050367
      2.94231      1.69874     10.03918        -0.007718     -0.032362     -0.026932
      5.84906      1.69874     10.03918         0.084545     -0.045232     -0.137130
     10.25255      4.23208     10.04993         0.000806     -0.090360      0.022292
      4.39568      4.21606     10.03918         0.026348      0.008099     -0.080038
      7.33018      4.23208     10.04993        -0.004574      0.002940      0.025917
     11.72002      6.76656     10.06180         0.081331      0.010683      0.196242
      5.86271      6.76656     10.06180         0.004890     -0.004115      0.019372
      8.79137      6.76293     10.04993        -0.092925      0.079223      0.081800
      0.00000      0.00000     12.42562        -0.583871     -0.296825     -0.078581
      2.96563      0.06260     12.41952         0.415126     -0.414060      0.011581
      5.82574      0.06260     12.41952         0.055524     -0.091958     -0.130005
      1.53702      2.53701     12.41952        -0.398998      0.336661      0.094927
      7.25434      2.53701     12.41952         0.004338      0.074043     -0.146564
      2.96708      5.01394     12.41952        -0.206271      0.567881     -0.039166
      5.82429      5.01394     12.41952         0.232969      0.015665     -0.151202
      8.79137      5.07570     12.42127        -0.058380      0.017233     -0.057266
      4.39568      2.53785     12.13550         0.431689     -0.170487      0.399005
      3.63330      3.15418     13.49372        -0.012304      0.002810      0.004477
      1.41737      0.71762     13.96401         0.004604      0.003663     -0.015494
      1.41143      0.55385     14.92286        -0.002793      0.002155      0.003105
 -----------------------------------------------------------------------------------
    total drift:                                0.013114      0.005032     -0.057328


--------------------------------------------------------------------------------------------------------



  FREE ENERGIE OF THE ION-ELECTRON SYSTEM (eV)
  ---------------------------------------------------
  free  energy   TOTEN  =      -111.04060567 eV

  energy  without entropy=     -111.04060567  energy(sigma->0) =     -111.04060567
 


--------------------------------------------------------------------------------------------------------


    POTLOK:  cpu time    0.0489: real time    0.0489


--------------------------------------------------------------------------------------------------------


 stress matrix after NEB project (eV)
     -5.01412     -0.06193     -0.39673
     -0.06193     -5.38081      0.08364
     -0.39673      0.08364      0.25842
  FORCES: max atom, RMS     0.016574    0.003494
  FORCE total and by dimension    0.021820    0.015494
  Stress total and by dimension    7.382256    5.380809
     LOOP+:  cpu time  267.5792: real time  267.5934
 -----------------------------------------------------------------------------
|                                                                             |
|           W    W    AA    RRRRR   N    N  II  N    N   GGGG   !!!           |
|           W    W   A  A   R    R  NN   N  II  NN   N  G    G  !!!           |
|           W    W  A    A  R    R  N N  N  II  N N  N  G       !!!           |
|           W WW W  AAAAAA  RRRRR   N  N N  II  N  N N  G  GGG   !            |
|           WW  WW  A    A  R   R   N   NN  II  N   NN  G    G                |
|           W    W  A    A  R    R  N    N  II  N    N   GGGG   !!!           |
|                                                                             |
|     Tetrahedron method does not include variations of the Fermi             |
|     occupations, so forces and stress will be inaccurate. We suggest        |
|     using a different smearing scheme ISMEAR = 1 or 2 for metals in         |
|     relaxations.                                                            |
|                                                                             |
 -----------------------------------------------------------------------------

    4ORBIT:  cpu time    0.0000: real time    0.0000



 total charge

# of ion       s       p       d       tot
------------------------------------------
    1        0.418   0.203   9.177   9.798
    2        0.417   0.203   9.177   9.797
    3        0.417   0.204   9.177   9.797
    4        0.416   0.203   9.177   9.797
    5        0.415   0.204   9.176   9.796
    6        0.416   0.204   9.176   9.797
    7        0.417   0.202   9.177   9.797
    8        0.417   0.202   9.178   9.797
    9        0.416   0.202   9.178   9.796
   10        0.405   0.268   9.165   9.838
   11        0.404   0.270   9.167   9.841
   12        0.415   0.266   9.162   9.842
   13        0.406   0.269   9.165   9.841
   14        0.402   0.271   9.167   9.839
   15        0.405   0.268   9.165   9.838
   16        0.406   0.268   9.164   9.838
   17        0.406   0.267   9.166   9.839
   18        0.401   0.272   9.163   9.835
   19        0.403   0.270   9.161   9.834
   20        0.416   0.297   9.151   9.865
   21        0.436   0.283   9.150   9.870
   22        0.402   0.273   9.166   9.840
   23        0.415   0.294   9.155   9.865
   24        0.397   0.272   9.169   9.838
   25        0.398   0.277   9.156   9.830
   26        0.403   0.267   9.164   9.834
   27        0.397   0.276   9.164   9.838
   28        0.376   0.242   9.184   9.802
   29        0.367   0.236   9.191   9.794
   30        0.407   0.207   9.179   9.792
   31        0.345   0.232   9.198   9.776
   32        0.405   0.203   9.185   9.793
   33        0.383   0.242   9.173   9.798
   34        0.388   0.195   9.202   9.786
   35        0.411   0.191   9.186   9.788
   36        0.444   0.442   7.377   8.262
   37        1.597   3.281   0.000   4.877
   38        1.556   3.494   0.000   5.050
   39        0.617   0.120   0.000   0.737
--------------------------------------------------
tot         18.363  15.840 328.387 362.590
 
 BZINTS: Fermi energy:    0.102229;  407.000000 electrons
         Band energy:-0.165760E+04;  BLOECHL correction:   -0.032781

 total amount of memory used by VASP MPI-rank0   290801. kBytes
=======================================================================

   base      :      30000. kBytes
   nonlr-proj:      14731. kBytes
   fftplans  :       4948. kBytes
   grid      :      21313. kBytes
   one-center:        606. kBytes
   wavefun   :     219203. kBytes
 
  
  
 General timing and accounting informations for this job:
 ========================================================
  
                  Total CPU time used (sec):      291.626
                            User time (sec):      281.238
                          System time (sec):       10.389
                         Elapsed time (sec):      292.353
  
                   Maximum memory used (kb):      594796.
                   Average memory used (kb):          N/A
  
                          Minor page faults:       127635
                          Major page faults:            0
                 Voluntary context switches:         8460
