PROCAR new format
# of k-points:   10         # of bands:  252         # of ions:   37

 k-point     1 :    0.00000000 0.00000000 0.00000000     weight = 0.01562500

band     1 # energy  -13.34597808 # occ.  2.00000000
 
ion      s      p      d    tot
    1  0.000  0.000  0.000  0.000
    2  0.000  0.000  0.000  0.000
    3  0.000  0.000  0.000  0.000
    4  0.000  0.000  0.000  0.000
    5  0.000  0.000  0.000  0.000
    6  0.000  0.000  0.000  0.000
    7  0.000  0.000  0.000  0.000
    8  0.000  0.000  0.000  0.000
    9  0.000  0.000  0.000  0.000
   10  0.000  0.000  0.000  0.000
   11  0.000  0.000  0.000  0.000
   12  0.000  0.000  0.000  0.000
   13  0.000  0.000  0.000  0.000
   14  0.000  0.000  0.000  0.000
   15  0.000  0.000  0.000  0.000
   16  0.000  0.000  0.000  0.000
   17  0.000  0.000  0.000  0.000
   18  0.000  0.000  0.000  0.000
   19  0.000  0.000  0.000  0.000
   20  0.000  0.000  0.000  0.000
   21  0.000  0.000  0.000  0.000
   22  0.000  0.000  0.000  0.000
   23  0.000  0.000  0.000  0.000
   24  0.000  0.000  0.000  0.000
   25  0.000  0.000  0.000  0.000
   26  0.000  0.000  0.000  0.000
   27  0.000  0.000  0.000  0.000
   28  0.000  0.000  0.000  0.000
   29  0.000  0.000  0.000  0.001
   30  0.000  0.000  0.000  0.001
   31  0.000  0.000  0.000  0.001
   32  0.000  0.000  0.000  0.001
   33  0.000  0.000  0.000  0.001
   34  0.000  0.000  0.000  0.001
   35  0.000  0.000  0.000  0.000
   36  0.078  0.083  0.122  0.283
   37  0.632  0.019  0.000  0.651
tot    0.712  0.103  0.124  0.939
 
band     2 # energy   -8.15647643 # occ.  2.00000000
 
ion      s      p      d    tot
    1  0.007  0.001  0.000  0.007
    2  0.007  0.001  0.000  0.007
    3  0.007  0.001  0.000  0.007
    4  0.007  0.001  0.000  0.007
    5  0.007  0.001  0.000  0.007
    6  0.007  0.001  0.000  0.007
    7  0.007  0.001  0.000  0.007
    8  0.007  0.001  0.000  0.007
    9  0.007  0.001  0.000  0.007
   10  0.027  0.000  0.000  0.027
   11  0.028  0.000  0.000  0.028
   12  0.027  0.000  0.000  0.027
   13  0.028  0.000  0.000  0.028
   14  0.028  0.000  0.000  0.028
   15  0.027  0.000  0.000  0.027
   16  0.027  0.000  0.000  0.027
   17  0.027  0.000  0.000  0.027
   18  0.027  0.000  0.000  0.027
   19  0.023  0.000  0.000  0.024
   20  0.026  0.000  0.000  0.027
   21  0.026  0.000  0.000  0.027
   22  0.025  0.000  0.000  0.025
   23  0.026  0.000  0.000  0.027
   24  0.025  0.000  0.000  0.025
   25  0.023  0.000  0.000  0.024
   26  0.023  0.000  0.000  0.024
   27  0.025  0.000  0.000  0.025
   28  0.004  0.000  0.000  0.005
   29  0.004  0.000  0.000  0.005
   30  0.004  0.000  0.000  0.005
   31  0.004  0.000  0.000  0.005
   32  0.004  0.000  0.000  0.005
   33  0.004  0.000  0.000  0.005
   34  0.004  0.000  0.000  0.005
   35  0.004  0.000  0.000  0.005
   36  0.003  0.001  0.000  0.004
   37  0.001  0.000  0.000  0.001
tot    0.565  0.013  0.004  0.581
 
band     3 # energy   -6.95324681 # occ.  2.00000000
 
ion      s      p      d    tot
    1  0.017  0.000  0.001  0.019
    2  0.017  0.000  0.001  0.019
    3  0.017  0.000  0.001  0.019
    4  0.017  0.000  0.001  0.019
    5  0.017  0.000  0.001  0.019
    6  0.017  0.000  0.001  0.019
    7  0.017  0.000  0.001  0.019
    8  0.017  0.000  0.001  0.019
    9  0.017  0.000  0.001  0.019
   10  0.010  0.002  0.003  0.014
   11  0.009  0.002  0.003  0.014
   12  0.010  0.002  0.003  0.014
   13  0.009  0.002  0.003  0.014
   14  0.009  0.002  0.003  0.014
   15  0.010  0.002  0.003  0.014
   16  0.010  0.002  0.003  0.014
   17  0.010  0.002  0.003  0.014
   18  0.010  0.002  0.003  0.014
   19  0.015  0.001  0.004  0.020
   20  0.017  0.001  0.005  0.022
   21  0.017  0.001  0.005  0.022
   22  0.016  0.001  0.004  0.021
   23  0.017  0.001  0.005  0.022
   24  0.016  0.001  0.004  0.021
   25  0.015  0.001  0.004  0.020
   26  0.015  0.001  0.004  0.020
   27  0.016  0.001  0.004  0.021
   28  0.013  0.001  0.000  0.013
   29  0.012  0.001  0.000  0.013
   30  0.012  0.001  0.000  0.013
   31  0.012  0.001  0.000  0.013
   32  0.012  0.001  0.000  0.013
   33  0.012  0.001  0.000  0.013
   34  0.012  0.001  0.000  0.013
   35  0.013  0.001  0.000  0.013
   36  0.005  0.002  0.001  0.008
   37  0.002  0.000  0.000  0.002
tot    0.489  0.034  0.077  0.600
 
band     4 # energy   -6.04343899 # occ.  2.00000000
 
ion      s      p      d    tot
    1  0.000  0.001  0.006  0.007
    2  0.002  0.000  0.006  0.009
    3  0.002  0.000  0.006  0.009
    4  0.002  0.000  0.006  0.009
    5  0.000  0.000  0.002  0.002
    6  0.002  0.000  0.006  0.009
    7  0.002  0.000  0.006  0.009
    8  0.002  0.000  0.006  0.009
    9  0.024  0.001  0.000  0.025
   10  0.008  0.000  0.023  0.032
   11  0.014  0.003  0.008  0.025
   12  0.008  0.000  0.023  0.032
   13  0.014  0.003  0.008  0.025
   14  0.014  0.003  0.008  0.025
   15  0.017  0.001  0.013  0.032
   16  0.008  0.000  0.023  0.032
   17  0.017  0.001  0.013  0.032
   18  0.017  0.001  0.013  0.032
   19  0.000  0.001  0.022  0.023
   20  0.026  0.002  0.018  0.046
   21  0.026  0.002  0.018  0.046
   22  0.015  0.003  0.004  0.022
   23  0.026  0.002  0.018  0.046
   24  0.015  0.003  0.004  0.022
   25  0.000  0.001  0.022  0.023
   26  0.000  0.001  0.022  0.023
   27  0.015  0.003  0.004  0.022
   28  0.004  0.000  0.000  0.005
   29  0.001  0.000  0.005  0.007
   30  0.001  0.000  0.005  0.007
   31  0.001  0.000  0.005  0.007
   32  0.001  0.000  0.005  0.007
   33  0.001  0.000  0.005  0.007
   34  0.001  0.000  0.005  0.007
   35  0.010  0.001  0.000  0.011
   36  0.005  0.003  0.003  0.011
   37  0.001  0.001  0.000  0.002
tot    0.310  0.041  0.345  0.696
 
band     5 # energy   -6.02218057 # occ.  2.00000000
 
ion      s      p      d    tot
    1  0.026  0.000  0.015  0.041
    2  0.018  0.000  0.019  0.037
    3  0.018  0.000  0.019  0.037
    4  0.018  0.000  0.019  0.037
    5  0.020  0.000  0.019  0.039
    6  0.018  0.000  0.019  0.037
    7  0.018  0.000  0.019  0.037
    8  0.018  0.000  0.019  0.037
    9  0.010  0.000  0.021  0.031
   10  0.003  0.000  0.030  0.033
   11  0.005  0.001  0.026  0.031
   12  0.003  0.000  0.030  0.033
   13  0.005  0.001  0.026  0.031
   14  0.005  0.001  0.026  0.031
   15  0.019  0.001  0.020  0.040
   16  0.003  0.000  0.030  0.033
   17  0.019  0.001  0.020  0.040
   18  0.019  0.001  0.020  0.040
   19  0.001  0.000  0.006  0.007
   20  0.004  0.000  0.006  0.011
   21  0.004  0.000  0.006  0.011
   22  0.001  0.001  0.006  0.007
   23  0.004  0.000  0.006  0.011
   24  0.001  0.001  0.006  0.007
   25  0.001  0.000  0.006  0.007
   26  0.001  0.000  0.006  0.007
   27  0.001  0.001  0.006  0.007
   28  0.000  0.000  0.000  0.000
   29  0.000  0.000  0.000  0.001
   30  0.000  0.000  0.000  0.001
   31  0.000  0.000  0.000  0.001
   32  0.000  0.000  0.000  0.001
   33  0.000  0.000  0.000  0.001
   34  0.000  0.000  0.000  0.001
   35  0.000  0.000  0.000  0.000
   36  0.001  0.001  0.000  0.002
   37  0.000  0.000  0.000  0.000
tot    0.267  0.012  0.452  0.730
 
band     6 # energy   -6.01432674 # occ.  2.00000000
 
ion      s      p      d    tot
    1  0.000  0.000  0.006  0.007
    2  0.005  0.001  0.004  0.010
    3  0.005  0.001  0.003  0.009
    4  0.006  0.001  0.004  0.010
    5  0.000  0.001  0.009  0.010
    6  0.000  0.000  0.003  0.003
    7  0.006  0.001  0.003  0.010
    8  0.000  0.000  0.003  0.003
    9  0.000  0.000  0.001  0.002
   10  0.000  0.000  0.032  0.032
   11  0.043  0.002  0.015  0.060
   12  0.018  0.001  0.011  0.030
   13  0.045  0.001  0.014  0.061
   14  0.000  0.002  0.033  0.035
   15  0.006  0.001  0.011  0.018
   16  0.017  0.001  0.012  0.030
   17  0.006  0.001  0.012  0.019
   18  0.000  0.004  0.002  0.006
   19  0.002  0.001  0.010  0.013
   20  0.000  0.003  0.028  0.032
   21  0.043  0.002  0.015  0.059
   22  0.022  0.002  0.011  0.034
   23  0.040  0.002  0.016  0.057
   24  0.000  0.000  0.034  0.034
   25  0.000  0.004  0.003  0.007
   26  0.002  0.001  0.011  0.014
   27  0.021  0.001  0.012  0.034
   28  0.000  0.000  0.001  0.001
   29  0.000  0.000  0.002  0.003
   30  0.006  0.001  0.003  0.010
   31  0.000  0.000  0.002  0.003
   32  0.004  0.001  0.004  0.009
   33  0.006  0.001  0.003  0.010
   34  0.004  0.001  0.004  0.008
   35  0.000  0.000  0.005  0.006
   36  0.000  0.002  0.002  0.004
   37  0.000  0.000  0.000  0.000
tot    0.307  0.043  0.343  0.694
 
band     7 # energy   -6.01431975 # occ.  2.00000000
 
ion      s      p      d    tot
    1  0.000  0.000  0.006  0.007
    2  0.002  0.001  0.003  0.005
    3  0.002  0.001  0.003  0.006
    4  0.002  0.000  0.003  0.005
    5  0.000  0.001  0.008  0.010
    6  0.007  0.001  0.003  0.012
    7  0.002  0.001  0.003  0.006
    8  0.007  0.001  0.003  0.012
    9  0.000  0.000  0.001  0.002
   10  0.023  0.002  0.005  0.030
   11  0.016  0.002  0.026  0.045
   12  0.005  0.001  0.026  0.032
   13  0.014  0.002  0.027  0.043
   14  0.059  0.001  0.009  0.069
   15  0.002  0.003  0.005  0.011
   16  0.006  0.001  0.025  0.032
   17  0.002  0.003  0.005  0.010
   18  0.008  0.000  0.015  0.023
   19  0.001  0.003  0.006  0.009
   20  0.055  0.001  0.011  0.067
   21  0.013  0.003  0.024  0.040
   22  0.007  0.000  0.027  0.034
   23  0.015  0.003  0.024  0.041
   24  0.028  0.002  0.003  0.034
   25  0.003  0.000  0.013  0.016
   26  0.001  0.003  0.005  0.009
   27  0.008  0.001  0.026  0.034
   28  0.000  0.000  0.001  0.001
   29  0.007  0.001  0.003  0.011
   30  0.001  0.000  0.003  0.004
   31  0.007  0.001  0.003  0.011
   32  0.003  0.001  0.002  0.005
   33  0.001  0.000  0.003  0.004
   34  0.003  0.001  0.002  0.006
   35  0.000  0.000  0.005  0.006
   36  0.000  0.002  0.002  0.004
   37  0.000  0.000  0.000  0.000
tot    0.307  0.043  0.343  0.694
 
band     8 # energy   -5.99197555 # occ.  2.00000000
 
ion      s      p      d    tot
    1  0.009  0.001  0.001  0.011
    2  0.000  0.001  0.006  0.007
    3  0.000  0.001  0.006  0.007
    4  0.000  0.001  0.006  0.007
    5  0.016  0.002  0.001  0.018
    6  0.000  0.001  0.006  0.007
    7  0.000  0.001  0.006  0.007
    8  0.000  0.001  0.006  0.007
    9  0.000  0.000  0.001  0.001
   10  0.027  0.003  0.002  0.031
   11  0.020  0.001  0.024  0.044
   12  0.026  0.003  0.002  0.031
   13  0.020  0.001  0.024  0.044
   14  0.020  0.001  0.023  0.044
   15  0.000  0.001  0.023  0.024
   16  0.026  0.003  0.002  0.031
   17  0.000  0.001  0.023  0.024
   18  0.000  0.001  0.023  0.024
   19  0.026  0.002  0.004  0.033
   20  0.004  0.002  0.019  0.025
   21  0.004  0.002  0.019  0.025
   22  0.010  0.000  0.026  0.036
   23  0.004  0.002  0.019  0.025
   24  0.010  0.000  0.026  0.036
   25  0.026  0.002  0.004  0.033
   26  0.026  0.002  0.004  0.033
   27  0.010  0.000  0.026  0.036
   28  0.010  0.001  0.001  0.012
   29  0.000  0.000  0.004  0.004
   30  0.000  0.000  0.004  0.004
   31  0.000  0.000  0.004  0.004
   32  0.000  0.000  0.004  0.004
   33  0.000  0.000  0.004  0.004
   34  0.000  0.000  0.004  0.004
   35  0.005  0.001  0.002  0.008
   36  0.000  0.000  0.000  0.000
   37  0.000  0.000  0.000  0.000
tot    0.299  0.040  0.356  0.695
 
band     9 # energy   -5.96783065 # occ.  2.00000000
 
ion      s      p      d    tot
    1  0.000  0.001  0.005  0.006
    2  0.006  0.001  0.004  0.011
    3  0.006  0.001  0.003  0.011
    4  0.006  0.001  0.004  0.012
    5  0.000  0.000  0.003  0.003
    6  0.000  0.000  0.003  0.004
    7  0.007  0.001  0.003  0.011
    8  0.000  0.000  0.003  0.004
    9  0.000  0.001  0.011  0.012
   10  0.040  0.000  0.015  0.055
   11  0.000  0.002  0.014  0.017
   12  0.009  0.003  0.011  0.024
   13  0.000  0.002  0.014  0.017
   14  0.001  0.001  0.011  0.013
   15  0.015  0.001  0.036  0.051
   16  0.011  0.003  0.012  0.025
   17  0.013  0.001  0.037  0.051
   18  0.056  0.002  0.004  0.062
   19  0.012  0.001  0.027  0.041
   20  0.005  0.001  0.009  0.015
   21  0.001  0.001  0.016  0.018
   22  0.006  0.003  0.011  0.020
   23  0.001  0.001  0.016  0.018
   24  0.025  0.000  0.014  0.039
   25  0.047  0.002  0.004  0.053
   26  0.011  0.001  0.028  0.040
   27  0.006  0.003  0.011  0.020
   28  0.000  0.001  0.006  0.007
   29  0.000  0.000  0.002  0.002
   30  0.003  0.001  0.002  0.006
   31  0.000  0.000  0.002  0.002
   32  0.003  0.001  0.003  0.007
   33  0.003  0.001  0.002  0.006
   34  0.003  0.001  0.003  0.006
   35  0.000  0.001  0.002  0.003
   36  0.000  0.000  0.001  0.001
   37  0.000  0.000  0.000  0.000
tot    0.299  0.042  0.353  0.694
 
band    10 # energy   -5.96780961 # occ.  2.00000000
 
ion      s      p      d    tot
    1  0.000  0.001  0.005  0.006
    2  0.002  0.001  0.003  0.006
    3  0.002  0.001  0.004  0.007
    4  0.002  0.001  0.003  0.006
    5  0.000  0.000  0.003  0.003
    6  0.008  0.001  0.004  0.014
    7  0.002  0.001  0.004  0.006
    8  0.008  0.001  0.004  0.014
    9  0.000  0.001  0.011  0.012
   10  0.000  0.004  0.010  0.015
   11  0.001  0.001  0.012  0.015
   12  0.030  0.001  0.014  0.046
   13  0.001  0.001  0.012  0.014
   14  0.000  0.003  0.015  0.018
   15  0.041  0.001  0.015  0.058
   16  0.029  0.001  0.014  0.045
   17  0.043  0.002  0.014  0.058
   18  0.000  0.000  0.047  0.047
   19  0.035  0.002  0.012  0.049
   20  0.000  0.001  0.018  0.019
   21  0.004  0.001  0.012  0.016
   22  0.019  0.001  0.013  0.033
   23  0.004  0.001  0.012  0.016
   24  0.000  0.004  0.010  0.014
   25  0.000  0.001  0.036  0.037
   26  0.036  0.002  0.011  0.049
   27  0.018  0.001  0.013  0.032
   28  0.000  0.001  0.006  0.007
   29  0.004  0.001  0.002  0.007
   30  0.001  0.000  0.002  0.004
   31  0.004  0.001  0.002  0.007
   32  0.001  0.000  0.001  0.003
   33  0.001  0.000  0.002  0.004
   34  0.001  0.000  0.001  0.003
   35  0.000  0.001  0.002  0.003
   36  0.000  0.000  0.001  0.001
   37  0.000  0.000  0.000  0.000
tot    0.299  0.042  0.353  0.694
 
band    11 # energy   -5.82446950 # occ.  2.00000000
 
ion      s      p      d    tot
    1  0.001  0.000  0.000  0.001
    2  0.001  0.000  0.001  0.001
    3  0.001  0.000  0.001  0.001
    4  0.001  0.000  0.001  0.001
    5  0.002  0.000  0.000  0.003
    6  0.001  0.000  0.001  0.001
    7  0.001  0.000  0.001  0.001
    8  0.001  0.000  0.001  0.001
    9  0.000  0.000  0.001  0.001
   10  0.000  0.000  0.003  0.004
   11  0.001  0.000  0.001  0.003
   12  0.000  0.000  0.003  0.004
   13  0.001  0.000  0.001  0.003
   14  0.001  0.000  0.001  0.003
   15  0.002  0.000  0.003  0.006
   16  0.000  0.000  0.003  0.004
   17  0.002  0.000  0.003  0.006
   18  0.002  0.000  0.003  0.006
   19  0.003  0.001  0.017  0.022
   20  0.003  0.000  0.028  0.031
   21  0.003  0.000  0.028  0.031
   22  0.008  0.002  0.023  0.033
   23  0.003  0.000  0.028  0.031
   24  0.008  0.002  0.023  0.033
   25  0.003  0.001  0.017  0.022
   26  0.003  0.001  0.017  0.022
   27  0.008  0.002  0.023  0.033
   28  0.030  0.000  0.021  0.051
   29  0.026  0.000  0.021  0.047
   30  0.026  0.000  0.021  0.047
   31  0.026  0.000  0.021  0.047
   32  0.026  0.000  0.021  0.047
   33  0.026  0.000  0.021  0.047
   34  0.026  0.000  0.021  0.047
   35  0.029  0.000  0.022  0.051
   36  0.004  0.000  0.016  0.020
   37  0.001  0.000  0.000  0.001
tot    0.279  0.014  0.424  0.717
 
band    12 # energy   -5.53701740 # occ.  2.00000000
 
ion      s      p      d    tot
    1  0.013  0.002  0.002  0.017
    2  0.000  0.001  0.008  0.009
    3  0.000  0.001  0.008  0.009
    4  0.000  0.001  0.008  0.009
    5  0.001  0.000  0.002  0.002
    6  0.000  0.001  0.008  0.009
    7  0.000  0.001  0.008  0.009
    8  0.000  0.001  0.008  0.009
    9  0.018  0.002  0.000  0.020
   10  0.010  0.001  0.015  0.027
   11  0.002  0.000  0.046  0.048
   12  0.011  0.001  0.015  0.027
   13  0.002  0.000  0.046  0.048
   14  0.002  0.000  0.046  0.048
   15  0.004  0.001  0.021  0.026
   16  0.011  0.001  0.015  0.027
   17  0.004  0.001  0.021  0.026
   18  0.004  0.001  0.021  0.026
   19  0.004  0.001  0.014  0.018
   20  0.001  0.000  0.051  0.053
   21  0.002  0.000  0.051  0.053
   22  0.011  0.001  0.018  0.030
   23  0.002  0.000  0.051  0.053
   24  0.011  0.001  0.018  0.030
   25  0.004  0.001  0.014  0.018
   26  0.004  0.001  0.014  0.018
   27  0.011  0.001  0.018  0.030
   28  0.009  0.001  0.000  0.011
   29  0.000  0.000  0.005  0.005
   30  0.000  0.000  0.005  0.005
   31  0.000  0.000  0.005  0.005
   32  0.000  0.000  0.005  0.005
   33  0.000  0.000  0.005  0.005
   34  0.000  0.000  0.005  0.005
   35  0.008  0.001  0.003  0.012
   36  0.000  0.000  0.002  0.002
   37  0.000  0.000  0.000  0.000
tot    0.147  0.027  0.583  0.757
 
band    13 # energy   -5.52612868 # occ.  2.00000000
 
ion      s      p      d    tot
    1  0.000  0.001  0.004  0.005
    2  0.001  0.001  0.005  0.006
    3  0.009  0.001  0.005  0.015
    4  0.001  0.001  0.005  0.006
    5  0.000  0.001  0.011  0.012
    6  0.005  0.001  0.004  0.010
    7  0.009  0.001  0.005  0.015
    8  0.005  0.001  0.004  0.010
    9  0.000  0.000  0.009  0.009
   10  0.000  0.001  0.050  0.051
   11  0.016  0.001  0.021  0.038
   12  0.007  0.002  0.019  0.028
   13  0.016  0.001  0.021  0.038
   14  0.000  0.000  0.052  0.052
   15  0.002  0.000  0.020  0.022
   16  0.007  0.002  0.019  0.027
   17  0.002  0.000  0.020  0.022
   18  0.000  0.001  0.011  0.012
   19  0.006  0.000  0.018  0.025
   20  0.000  0.000  0.070  0.070
   21  0.017  0.001  0.022  0.041
   22  0.003  0.001  0.019  0.023
   23  0.017  0.001  0.022  0.041
   24  0.000  0.001  0.034  0.035
   25  0.000  0.001  0.013  0.014
   26  0.006  0.000  0.018  0.025
   27  0.003  0.001  0.019  0.023
   28  0.000  0.000  0.007  0.008
   29  0.002  0.001  0.004  0.006
   30  0.010  0.001  0.003  0.015
   31  0.002  0.001  0.004  0.006
   32  0.003  0.001  0.004  0.008
   33  0.010  0.001  0.003  0.015
   34  0.003  0.001  0.004  0.008
   35  0.000  0.000  0.003  0.003
   36  0.000  0.002  0.002  0.005
   37  0.000  0.000  0.000  0.000
tot    0.160  0.032  0.555  0.747
 
band    14 # energy   -5.52611976 # occ.  2.00000000
 
ion      s      p      d    tot
    1  0.000  0.001  0.004  0.005
    2  0.009  0.001  0.004  0.014
    3  0.001  0.000  0.004  0.006
    4  0.009  0.001  0.004  0.015
    5  0.000  0.001  0.011  0.012
    6  0.005  0.001  0.005  0.011
    7  0.001  0.000  0.004  0.006
    8  0.005  0.001  0.005  0.011
    9  0.000  0.000  0.009  0.009
   10  0.009  0.002  0.009  0.020
   11  0.005  0.000  0.042  0.047
   12  0.002  0.001  0.040  0.043
   13  0.005  0.000  0.042  0.047
   14  0.021  0.001  0.011  0.034
   15  0.001  0.001  0.014  0.015
   16  0.002  0.001  0.040  0.043
   17  0.001  0.001  0.014  0.015
   18  0.002  0.000  0.023  0.026
   19  0.002  0.001  0.015  0.017
   20  0.023  0.002  0.006  0.031
   21  0.006  0.000  0.054  0.060
   22  0.001  0.001  0.029  0.031
   23  0.006  0.000  0.054  0.061
   24  0.004  0.001  0.014  0.018
   25  0.008  0.000  0.020  0.028
   26  0.002  0.001  0.015  0.017
   27  0.001  0.001  0.029  0.031
   28  0.000  0.000  0.007  0.008
   29  0.008  0.001  0.004  0.013
   30  0.000  0.000  0.004  0.005
   31  0.008  0.001  0.004  0.013
   32  0.007  0.001  0.004  0.011
   33  0.000  0.000  0.004  0.004
   34  0.007  0.001  0.004  0.011
   35  0.000  0.000  0.003  0.003
   36  0.000  0.002  0.002  0.005
   37  0.000  0.000  0.000  0.000
tot    0.160  0.032  0.555  0.747
 
band    15 # energy   -5.50415340 # occ.  2.00000000
 
ion      s      p      d    tot
    1  0.009  0.000  0.001  0.010
    2  0.000  0.001  0.008  0.009
    3  0.000  0.001  0.008  0.009
    4  0.000  0.001  0.008  0.009
    5  0.017  0.002  0.001  0.020
    6  0.000  0.001  0.008  0.009
    7  0.000  0.001  0.008  0.009
    8  0.000  0.001  0.008  0.009
    9  0.002  0.001  0.002  0.005
   10  0.000  0.000  0.040  0.041
   11  0.008  0.002  0.008  0.017
   12  0.000  0.000  0.040  0.041
   13  0.008  0.002  0.008  0.017
   14  0.008  0.002  0.008  0.017
   15  0.007  0.001  0.028  0.036
   16  0.000  0.000  0.040  0.041
   17  0.007  0.001  0.028  0.036
   18  0.007  0.001  0.028  0.036
   19  0.011  0.001  0.037  0.049
   20  0.008  0.002  0.010  0.020
   21  0.008  0.002  0.010  0.020
   22  0.000  0.000  0.038  0.038
   23  0.008  0.002  0.010  0.020
   24  0.000  0.000  0.038  0.039
   25  0.011  0.001  0.037  0.049
   26  0.011  0.001  0.037  0.049
   27  0.000  0.000  0.038  0.038
   28  0.001  0.001  0.007  0.008
   29  0.001  0.000  0.005  0.006
   30  0.001  0.000  0.005  0.006
   31  0.001  0.000  0.005  0.006
   32  0.001  0.000  0.005  0.006
   33  0.001  0.000  0.005  0.006
   34  0.001  0.000  0.005  0.006
   35  0.001  0.000  0.000  0.001
   36  0.011  0.003  0.000  0.015
   37  0.001  0.001  0.000  0.003
tot    0.149  0.032  0.577  0.758
 
band    16 # energy   -5.47506578 # occ.  2.00000000
 
ion      s      p      d    tot
    1  0.000  0.001  0.015  0.015
    2  0.010  0.001  0.005  0.016
    3  0.002  0.000  0.005  0.007
    4  0.010  0.001  0.005  0.016
    5  0.000  0.000  0.005  0.005
    6  0.003  0.001  0.005  0.010
    7  0.002  0.000  0.005  0.007
    8  0.003  0.001  0.005  0.010
    9  0.000  0.001  0.007  0.009
   10  0.000  0.001  0.029  0.030
   11  0.001  0.001  0.020  0.022
   12  0.007  0.000  0.023  0.030
   13  0.001  0.001  0.020  0.022
   14  0.000  0.001  0.019  0.021
   15  0.011  0.002  0.021  0.034
   16  0.007  0.000  0.023  0.030
   17  0.011  0.002  0.021  0.034
   18  0.000  0.000  0.065  0.065
   19  0.013  0.001  0.020  0.034
   20  0.000  0.002  0.020  0.021
   21  0.000  0.001  0.022  0.023
   22  0.018  0.001  0.021  0.040
   23  0.000  0.001  0.022  0.023
   24  0.000  0.000  0.033  0.033
   25  0.000  0.000  0.067  0.067
   26  0.013  0.001  0.020  0.034
   27  0.018  0.001  0.021  0.039
   28  0.000  0.001  0.004  0.005
   29  0.005  0.001  0.004  0.010
   30  0.000  0.000  0.004  0.005
   31  0.005  0.001  0.004  0.010
   32  0.003  0.001  0.002  0.006
   33  0.000  0.000  0.004  0.005
   34  0.003  0.001  0.002  0.006
   35  0.000  0.001  0.007  0.008
   36  0.000  0.000  0.000  0.001
   37  0.000  0.000  0.000  0.000
tot    0.148  0.028  0.577  0.753
 
band    17 # energy   -5.47505122 # occ.  2.00000000
 
ion      s      p      d    tot
    1  0.000  0.001  0.015  0.015
    2  0.000  0.000  0.006  0.006
    3  0.008  0.001  0.005  0.015
    4  0.000  0.000  0.006  0.006
    5  0.000  0.000  0.005  0.005
    6  0.007  0.001  0.005  0.012
    7  0.008  0.001  0.005  0.015
    8  0.007  0.001  0.005  0.012
    9  0.000  0.001  0.007  0.009
   10  0.009  0.000  0.020  0.030
   11  0.000  0.001  0.020  0.021
   12  0.002  0.001  0.027  0.030
   13  0.000  0.001  0.020  0.021
   14  0.001  0.001  0.020  0.023
   15  0.004  0.001  0.050  0.055
   16  0.002  0.001  0.027  0.030
   17  0.004  0.001  0.051  0.055
   18  0.015  0.002  0.006  0.023
   19  0.004  0.001  0.051  0.056
   20  0.000  0.000  0.023  0.023
   21  0.000  0.001  0.021  0.022
   22  0.006  0.001  0.029  0.035
   23  0.000  0.001  0.021  0.022
   24  0.024  0.001  0.017  0.042
   25  0.018  0.001  0.004  0.023
   26  0.004  0.001  0.051  0.056
   27  0.006  0.001  0.029  0.035
   28  0.000  0.001  0.004  0.005
   29  0.001  0.000  0.003  0.004
   30  0.006  0.001  0.003  0.009
   31  0.001  0.000  0.003  0.004
   32  0.002  0.001  0.005  0.008
   33  0.006  0.001  0.003  0.009
   34  0.002  0.001  0.005  0.008
   35  0.000  0.001  0.007  0.008
   36  0.000  0.000  0.000  0.001
   37  0.000  0.000  0.000  0.000
tot    0.148  0.028  0.577  0.753
 
band    18 # energy   -5.14196235 # occ.  2.00000000
 
ion      s      p      d    tot
    1  0.000  0.000  0.015  0.015
    2  0.000  0.001  0.011  0.011
    3  0.005  0.000  0.015  0.020
    4  0.000  0.001  0.011  0.011
    5  0.000  0.000  0.027  0.028
    6  0.007  0.001  0.009  0.017
    7  0.005  0.000  0.015  0.020
    8  0.007  0.001  0.009  0.017
    9  0.000  0.001  0.006  0.007
   10  0.000  0.000  0.018  0.018
   11  0.000  0.000  0.051  0.052
   12  0.000  0.000  0.010  0.010
   13  0.000  0.000  0.052  0.052
   14  0.000  0.000  0.047  0.047
   15  0.000  0.000  0.028  0.028
   16  0.000  0.000  0.010  0.011
   17  0.000  0.000  0.028  0.028
   18  0.000  0.000  0.045  0.045
   19  0.000  0.000  0.011  0.011
   20  0.001  0.000  0.054  0.055
   21  0.000  0.000  0.039  0.040
   22  0.000  0.000  0.034  0.035
   23  0.000  0.000  0.040  0.040
   24  0.000  0.000  0.033  0.034
   25  0.001  0.000  0.012  0.013
   26  0.000  0.000  0.011  0.011
   27  0.000  0.000  0.034  0.035
   28  0.000  0.000  0.011  0.012
   29  0.007  0.001  0.011  0.019
   30  0.000  0.001  0.008  0.009
   31  0.007  0.001  0.011  0.019
   32  0.008  0.001  0.005  0.015
   33  0.000  0.001  0.008  0.009
   34  0.009  0.001  0.006  0.015
   35  0.000  0.000  0.015  0.016
   36  0.000  0.003  0.001  0.003
   37  0.000  0.001  0.000  0.001
tot    0.062  0.016  0.750  0.828
 
band    19 # energy   -5.14195874 # occ.  2.00000000
 
ion      s      p      d    tot
    1  0.000  0.000  0.015  0.015
    2  0.008  0.000  0.012  0.021
    3  0.003  0.001  0.008  0.012
    4  0.008  0.000  0.012  0.021
    5  0.000  0.000  0.027  0.028
    6  0.001  0.000  0.014  0.015
    7  0.003  0.001  0.008  0.012
    8  0.001  0.000  0.014  0.016
    9  0.000  0.001  0.006  0.007
   10  0.000  0.000  0.008  0.008
   11  0.000  0.000  0.048  0.049
   12  0.000  0.000  0.015  0.016
   13  0.000  0.000  0.048  0.049
   14  0.000  0.000  0.053  0.053
   15  0.000  0.000  0.039  0.039
   16  0.000  0.000  0.015  0.016
   17  0.000  0.000  0.039  0.040
   18  0.000  0.000  0.022  0.022
   19  0.001  0.000  0.011  0.012
   20  0.000  0.000  0.035  0.035
   21  0.001  0.000  0.049  0.050
   22  0.000  0.000  0.034  0.034
   23  0.001  0.000  0.049  0.050
   24  0.000  0.000  0.035  0.035
   25  0.000  0.000  0.010  0.010
   26  0.001  0.000  0.012  0.012
   27  0.000  0.000  0.034  0.034
   28  0.000  0.000  0.011  0.012
   29  0.003  0.001  0.005  0.009
   30  0.010  0.001  0.008  0.019
   31  0.003  0.001  0.005  0.009
   32  0.002  0.001  0.011  0.013
   33  0.011  0.001  0.008  0.019
   34  0.002  0.001  0.011  0.013
   35  0.000  0.000  0.015  0.016
   36  0.000  0.003  0.001  0.003
   37  0.000  0.001  0.000  0.001
tot    0.062  0.016  0.750  0.828
 
band    20 # energy   -5.13077054 # occ.  2.00000000
 
ion      s      p      d    tot
    1  0.012  0.000  0.004  0.016
    2  0.000  0.001  0.010  0.010
    3  0.000  0.001  0.009  0.010
    4  0.000  0.001  0.010  0.010
    5  0.000  0.000  0.014  0.014
    6  0.000  0.001  0.009  0.010
    7  0.000  0.001  0.009  0.010
    8  0.000  0.001  0.009  0.010
    9  0.009  0.001  0.002  0.011
   10  0.000  0.000  0.026  0.026
   11  0.000  0.000  0.053  0.054
   12  0.000  0.000  0.026  0.026
   13  0.000  0.000  0.053  0.054
   14  0.000  0.000  0.053  0.054
   15  0.000  0.001  0.035  0.036
   16  0.000  0.000  0.026  0.026
   17  0.000  0.001  0.035  0.036
   18  0.000  0.001  0.035  0.036
   19  0.000  0.000  0.020  0.021
   20  0.001  0.000  0.045  0.047
   21  0.001  0.000  0.045  0.047
   22  0.001  0.000  0.031  0.032
   23  0.001  0.000  0.045  0.047
   24  0.001  0.000  0.031  0.032
   25  0.000  0.000  0.020  0.021
   26  0.000  0.000  0.020  0.021
   27  0.001  0.000  0.031  0.032
   28  0.007  0.001  0.000  0.007
   29  0.000  0.001  0.010  0.010
   30  0.000  0.001  0.010  0.010
   31  0.000  0.001  0.010  0.010
   32  0.000  0.001  0.010  0.010
   33  0.000  0.001  0.010  0.010
   34  0.000  0.001  0.010  0.010
   35  0.010  0.000  0.002  0.013
   36  0.000  0.000  0.008  0.008
   37  0.000  0.001  0.000  0.001
tot    0.044  0.015  0.777  0.836
 
band    21 # energy   -5.11575573 # occ.  2.00000000
 
ion      s      p      d    tot
    1  0.001  0.000  0.007  0.009
    2  0.000  0.001  0.019  0.020
    3  0.000  0.001  0.019  0.020
    4  0.000  0.001  0.019  0.020
    5  0.023  0.001  0.000  0.025
    6  0.000  0.001  0.019  0.020
    7  0.000  0.001  0.019  0.020
    8  0.000  0.001  0.019  0.020
    9  0.014  0.000  0.013  0.028
   10  0.000  0.000  0.044  0.044
   11  0.000  0.001  0.030  0.030
   12  0.000  0.000  0.044  0.044
   13  0.000  0.001  0.030  0.030
   14  0.000  0.001  0.030  0.030
   15  0.000  0.000  0.038  0.038
   16  0.000  0.000  0.044  0.044
   17  0.000  0.000  0.038  0.038
   18  0.000  0.000  0.038  0.038
   19  0.001  0.000  0.026  0.028
   20  0.000  0.000  0.028  0.028
   21  0.000  0.000  0.028  0.028
   22  0.001  0.000  0.019  0.020
   23  0.000  0.000  0.028  0.028
   24  0.001  0.000  0.019  0.020
   25  0.001  0.000  0.026  0.028
   26  0.001  0.000  0.026  0.028
   27  0.001  0.000  0.019  0.020
   28  0.006  0.000  0.005  0.011
   29  0.000  0.000  0.010  0.010
   30  0.000  0.000  0.010  0.010
   31  0.000  0.000  0.010  0.010
   32  0.000  0.000  0.010  0.010
   33  0.000  0.000  0.010  0.010
   34  0.000  0.000  0.010  0.010
   35  0.000  0.000  0.003  0.004
   36  0.004  0.001  0.001  0.006