 vasp.6.2.0 18Jan21 (build Jun 12 2021 23:27:24) complex                        
  
 executed on             LinuxIFC date 2022.05.26  20:08:29
 running on   28 total cores
 distrk:  each k-point on   28 cores,    1 groups
 distr:  one band on NCORE=   1 cores,   28 groups


--------------------------------------------------------------------------------------------------------


 INCAR:
   ISMEAR = -5
   SIGMA = 0.1
   ISPIN = 1
   EDIFF = 1.d-5
   EDIFFG = -0.01
   NSW = 0
   NELM = 150
   ENCUT = 500
   ISIF = 2
   IBRION = 2
   LREAL = Auto
   ALGO = Fast
   ICHARG = 11
   LORBIT = 10
   LCHARG = .F.
   LWAVE = .F.

 POTCAR:    PAW_PBE Cu 22Jun2005                  
 POTCAR:    PAW_PBE Re 17Jan2003                  
 POTCAR:    PAW_PBE N 08Apr2002                   
 -----------------------------------------------------------------------------
|                                                                             |
|           W    W    AA    RRRRR   N    N  II  N    N   GGGG   !!!           |
|           W    W   A  A   R    R  NN   N  II  NN   N  G    G  !!!           |
|           W    W  A    A  R    R  N N  N  II  N N  N  G       !!!           |
|           W WW W  AAAAAA  RRRRR   N  N N  II  N  N N  G  GGG   !            |
|           WW  WW  A    A  R   R   N   NN  II  N   NN  G    G                |
|           W    W  A    A  R    R  N    N  II  N    N   GGGG   !!!           |
|                                                                             |
|     For optimal performance we recommend to set                             |
|       NCORE = 2 up to number-of-cores-per-socket                            |
|     NCORE specifies how many cores store one orbital (NPAR=cpu/NCORE).      |
|     This setting can greatly improve the performance of VASP for DFT.       |
|     The default, NCORE=1 might be grossly inefficient on modern             |
|     multi-core architectures or massively parallel machines. Do your        |
|     own testing! More info at https://www.vasp.at/wiki/index.php/NCORE      |
|     Unfortunately you need to use the default for GW and RPA                |
|     calculations (for HF NCORE is supported but not extensively tested      |
|     yet).                                                                   |
|                                                                             |
 -----------------------------------------------------------------------------

 POTCAR:    PAW_PBE Cu 22Jun2005                  
   VRHFIN =Cu: d10 p1                                                                               
   LEXCH  = PE                                                                                      
   EATOM  =  1390.9808 eV,  102.2342 Ry                                                             
                                                                                                    
   TITEL  = PAW_PBE Cu 22Jun2005                                                                    
   LULTRA =        F    use ultrasoft PP ?                                                          
   IUNSCR =        1    unscreen: 0-lin 1-nonlin 2-no                                               
   RPACOR =    2.000    partial core radius                                                         
   POMASS =   63.546; ZVAL   =   11.000    mass and valenz                                          
   RCORE  =    2.300    outmost cutoff radius                                                       
   RWIGS  =    2.200; RWIGS  =    1.164    wigner-seitz radius (au A)                               
   ENMAX  =  295.446; ENMIN  =  221.585 eV                                                          
   ICORE  =        3    local potential                                                             
   LCOR   =        T    correct aug charges                                                         
   LPAW   =        T    paw PP                                                                      
   EAUG   =  586.980                                                                                
   DEXC   =    0.000                                                                                
   RMAX   =    2.344    core radius for proj-oper                                                   
   RAUG   =    1.300    factor for augmentation sphere                                              
   RDEP   =    2.302    radius for radial grids                                                     
   RDEPT  =    1.771    core radius for aug-charge                                                  
                                                                                                    
   Atomic configuration                                                                             
    9 entries                                                                                       
     n  l   j            E        occ.                                                              
     1  0  0.50     -8850.2468   2.0000                                                             
     2  0  0.50     -1062.3498   2.0000                                                             
     2  1  1.50      -916.8226   6.0000                                                             
     3  0  0.50      -114.6929   2.0000                                                             
     3  1  1.50       -72.1325   6.0000                                                             
     3  2  2.50        -5.0394  10.0000                                                             
     4  0  0.50        -4.6097   1.0000                                                             
     4  1  0.50        -4.0817   0.0000                                                             
     4  3  2.50        -1.3606   0.0000                                                             
   Description                                                                                      
     l       E           TYP  RCUT    TYP  RCUT                                                     
     2     -5.0393973     23  2.200                                                                 
     2     10.8846608     23  2.200                                                                 
     0     -4.6097109     23  2.200                                                                 
     0      8.2520465     23  2.200                                                                 
     1     -2.7211652     23  2.200                                                                 
     1     21.7055443     23  2.200                                                                 
     3      2.7211652     23  2.300                                                                 
  local pseudopotential read in
  partial core-charges read in
  partial kinetic energy density read in
  atomic valenz-charges read in
  non local Contribution for L=           2  read in
    real space projection operators read in
  non local Contribution for L=           2  read in
    real space projection operators read in
  non local Contribution for L=           0  read in
    real space projection operators read in
  non local Contribution for L=           0  read in
    real space projection operators read in
  non local Contribution for L=           1  read in
    real space projection operators read in
  non local Contribution for L=           1  read in
    real space projection operators read in
    PAW grid and wavefunctions read in
 
   number of l-projection  operators is LMAX  =           6
   number of lm-projection operators is LMMAX =          18
 
 POTCAR:    PAW_PBE Re 17Jan2003                  
   VRHFIN =Re: 5p6s5d                                                                               
   LEXCH  = PE                                                                                      
   EATOM  =   299.6589 eV,   22.0243 Ry                                                             
                                                                                                    
   TITEL  = PAW_PBE Re 17Jan2003                                                                    
   LULTRA =        F    use ultrasoft PP ?                                                          
   IUNSCR =        1    unscreen: 0-lin 1-nonlin 2-no                                               
   RPACOR =    2.250    partial core radius                                                         
   POMASS =  186.207; ZVAL   =    7.000    mass and valenz                                          
   RCORE  =    2.700    outmost cutoff radius                                                       
   RWIGS  =    2.710; RWIGS  =    1.434    wigner-seitz radius (au A)                               
   ENMAX  =  226.216; ENMIN  =  169.662 eV                                                          
   RCLOC  =    2.105    cutoff for local pot                                                        
   LCOR   =        T    correct aug charges                                                         
   LPAW   =        T    paw PP                                                                      
   EAUG   =  370.280                                                                                
   DEXC   =    0.000                                                                                
   RMAX   =    2.768    core radius for proj-oper                                                   
   RAUG   =    1.300    factor for augmentation sphere                                              
   RDEP   =    2.719    radius for radial grids                                                     
   RDEPT  =    2.204    core radius for aug-charge                                                  
                                                                                                    
   Atomic configuration                                                                             
   16 entries                                                                                       
     n  l   j            E        occ.                                                              
     1  0  0.50    -71633.0043   2.0000                                                             
     2  0  0.50    -12416.1215   2.0000                                                             
     2  1  1.50    -10832.4223   6.0000                                                             
     3  0  0.50     -2872.9330   2.0000                                                             
     3  1  1.50     -2406.1720   6.0000                                                             
     3  2  2.50     -1877.8916  10.0000                                                             
     4  0  0.50      -597.8463   2.0000                                                             
     4  1  1.50      -444.8000   6.0000                                                             
     4  2  2.50      -252.9938  10.0000                                                             
     4  3  3.50       -40.1243  14.0000                                                             
     5  0  0.50       -83.0609   2.0000                                                             
     5  1  1.50       -44.9781   6.0000                                                             
     5  2  2.50        -4.0055   6.0000                                                             
     6  0  0.50        -5.2962   1.0000                                                             
     6  1  1.50        -2.7212   0.0000                                                             
     5  3  2.50        -1.3606   0.0000                                                             
   Description                                                                                      
     l       E           TYP  RCUT    TYP  RCUT                                                     
     2     -4.0054887     23  2.500                                                                 
     2     -2.6236470     23  2.500                                                                 
     0     -5.2961782     23  2.600                                                                 
     0      4.1641227     23  2.600                                                                 
     1     -2.7211652     23  2.700                                                                 
     1     27.2116520     23  2.700                                                                 
  local pseudopotential read in
  partial core-charges read in
  partial kinetic energy density read in
  kinetic energy density of atom read in
  atomic valenz-charges read in
  non local Contribution for L=           2  read in
    real space projection operators read in
  non local Contribution for L=           2  read in
    real space projection operators read in
  non local Contribution for L=           0  read in
    real space projection operators read in
  non local Contribution for L=           0  read in
    real space projection operators read in
  non local Contribution for L=           1  read in
    real space projection operators read in
  non local Contribution for L=           1  read in
    real space projection operators read in
    PAW grid and wavefunctions read in
 
   number of l-projection  operators is LMAX  =           6
   number of lm-projection operators is LMMAX =          18
 
 POTCAR:    PAW_PBE N 08Apr2002                   
   VRHFIN =N: s2p3                                                                                  
   LEXCH  = PE                                                                                      
   EATOM  =   264.5486 eV,   19.4438 Ry                                                             
                                                                                                    
   TITEL  = PAW_PBE N 08Apr2002                                                                     
   LULTRA =        F    use ultrasoft PP ?                                                          
   IUNSCR =        1    unscreen: 0-lin 1-nonlin 2-no                                               
   RPACOR =    1.200    partial core radius                                                         
   POMASS =   14.001; ZVAL   =    5.000    mass and valenz                                          
   RCORE  =    1.500    outmost cutoff radius                                                       
   RWIGS  =    1.400; RWIGS  =    0.741    wigner-seitz radius (au A)                               
   ENMAX  =  400.000; ENMIN  =  300.000 eV                                                          
   ICORE  =        2    local potential                                                             
   LCOR   =        T    correct aug charges                                                         
   LPAW   =        T    paw PP                                                                      
   EAUG   =  627.112                                                                                
   DEXC   =    0.000                                                                                
   RMAX   =    1.529    core radius for proj-oper                                                   
   RAUG   =    1.300    factor for augmentation sphere                                              
   RDEP   =    1.514    radius for radial grids                                                     
   RDEPT  =    1.338    core radius for aug-charge                                                  
                                                                                                    
   Atomic configuration                                                                             
    4 entries                                                                                       
     n  l   j            E        occ.                                                              
     1  0  0.50      -384.7179   2.0000                                                             
     2  0  0.50       -18.5828   2.0000                                                             
     2  1  0.50        -7.0898   3.0000                                                             
     3  2  1.50        -6.8029   0.0000                                                             
   Description                                                                                      
     l       E           TYP  RCUT    TYP  RCUT                                                     
     0    -18.5828119     23  1.200                                                                 
     0    -13.5018863     23  1.200                                                                 
     1     -7.0897853     23  1.500                                                                 
     1      9.5240782     23  1.500                                                                 
     2     -6.8029130      7  1.500                                                                 
  local pseudopotential read in
  partial core-charges read in
  partial kinetic energy density read in
  atomic valenz-charges read in
  non local Contribution for L=           0  read in
    real space projection operators read in
  non local Contribution for L=           0  read in
    real space projection operators read in
  non local Contribution for L=           1  read in
    real space projection operators read in
  non local Contribution for L=           1  read in
    real space projection operators read in
    PAW grid and wavefunctions read in
 
   number of l-projection  operators is LMAX  =           4
   number of lm-projection operators is LMMAX =           8
 
 Optimization of the real space projectors (new method)

 maximal supplied QI-value         = 16.25
 optimisation between [QCUT,QGAM] = [ 11.38, 22.75] = [ 36.24,144.96] Ry 
 Optimized for a Real-space Cutoff    1.52 Angstroem

   l    n(q)    QCUT    max X(q) W(low)/X(q) W(high)/X(q)  e(spline) 
   2      9    11.376     4.610    0.21E-03    0.10E-03    0.26E-06
   2      9    11.376     8.522    0.33E-03    0.16E-03    0.37E-06
   0     10    11.376    51.609    0.62E-04    0.20E-04    0.13E-06
   0     10    11.376    27.747    0.54E-04    0.20E-04    0.13E-06
   1     10    11.376    20.408    0.13E-04    0.99E-04    0.19E-06
   1     10    11.376    13.425    0.12E-04    0.87E-04    0.17E-06
 Optimization of the real space projectors (new method)

 maximal supplied QI-value         = 13.98
 optimisation between [QCUT,QGAM] = [ 11.33, 22.79] = [ 35.93,145.49] Ry 
 Optimized for a Real-space Cutoff    1.56 Angstroem

   l    n(q)    QCUT    max X(q) W(low)/X(q) W(high)/X(q)  e(spline) 
   2     10    11.327   884.633    0.22E-03    0.51E-03    0.88E-06
   2     10    11.327   796.723    0.22E-03    0.51E-03    0.88E-06
   0     11    11.327    65.348    0.44E-04    0.11E-03    0.75E-06
   0     11    11.327    39.642    0.40E-04    0.10E-03    0.69E-06
   1     10    11.327    13.988    0.15E-03    0.10E-03    0.19E-06
   1     10    11.327     8.682    0.11E-03    0.76E-04    0.14E-06
 Optimization of the real space projectors (new method)

 maximal supplied QI-value         = 25.13
 optimisation between [QCUT,QGAM] = [ 11.31, 22.87] = [ 35.82,146.48] Ry 
 Optimized for a Real-space Cutoff    1.27 Angstroem

   l    n(q)    QCUT    max X(q) W(low)/X(q) W(high)/X(q)  e(spline) 
   0      9    11.310    79.467    0.75E-04    0.16E-03    0.36E-06
   0      9    11.310    66.151    0.74E-04    0.16E-03    0.36E-06
   1      8    11.310    17.416    0.35E-03    0.12E-03    0.95E-06
   1      8    11.310    12.382    0.37E-03    0.13E-03    0.98E-06
  PAW_PBE Cu 22Jun2005                  :
 energy of atom  1       EATOM=-1390.9808
 kinetic energy error for atom=    0.0043 (will be added to EATOM!!)
  PAW_PBE Re 17Jan2003                  :
 energy of atom  2       EATOM= -299.6589
 kinetic energy error for atom=    0.0023 (will be added to EATOM!!)
  PAW_PBE N 08Apr2002                   :
 energy of atom  3       EATOM= -264.5486
 kinetic energy error for atom=    0.0138 (will be added to EATOM!!)
 
 
 POSCAR: Cu-Re-N
  positions in direct lattice
  velocities in cartesian coordinates
 exchange correlation table for  LEXCH =        8
   RHO(1)=    0.500       N(1)  =     2000
   RHO(2)=  100.500       N(2)  =     4000

 VTST: version 3.2, (02/03/18)

 CHAIN: initializing optimizer
 
 OPT: Using VASP Conjugate-Gradient optimizer
 CHAIN: Read ICHAIN            0
 
 POSCAR: Cu-Re-N
  positions in direct lattice
  velocities in cartesian coordinates
 


--------------------------------------------------------------------------------------------------------


 ion  position               nearest neighbor table
   1  0.000  0.000  0.252-   7 2.57   3 2.57   4 2.57   2 2.57   6 2.57   8 2.57  12 2.57  10 2.57
                            16 2.57
   2  0.333  0.000  0.252-   8 2.57   9 2.57   5 2.57   1 2.57   3 2.57  11 2.57   4 2.57  10 2.57
                            17 2.57
   3  0.667  0.000  0.252-   1 2.57   7 2.57   6 2.57   9 2.57   2 2.57  12 2.57   5 2.57  18 2.57
                            11 2.57
   4  0.000  0.333  0.252-   5 2.57   6 2.57   1 2.57   7 2.57   2 2.57  13 2.57   9 2.57  10 2.57
                            15 2.57
   5  0.333  0.333  0.252-   4 2.57   2 2.57   7 2.57  13 2.57   8 2.57   6 2.57   3 2.57  11 2.57
                            14 2.57
   6  0.667  0.333  0.252-   4 2.57   9 2.57  15 2.57   3 2.57   1 2.57   8 2.57  14 2.57   5 2.57
                            12 2.57
   7  0.000  0.667  0.252-   1 2.57   3 2.57  16 2.57  18 2.57   4 2.57   5 2.57   8 2.57   9 2.57
                            13 2.57
   8  0.333  0.667  0.252-   9 2.57   2 2.57  17 2.57   6 2.57   1 2.57   7 2.57   5 2.57  14 2.57
                            16 2.57
   9  0.667  0.667  0.252-   8 2.57   6 2.57   2 2.57  17 2.57   3 2.57   7 2.57   4 2.57  15 2.57
                            18 2.57
  10  0.111  0.111  0.351-  20 2.53  11 2.57  12 2.57  13 2.57   1 2.57   2 2.57   4 2.57  15 2.57
                            16 2.57  17 2.57  26 2.57  19 2.57
  11  0.444  0.111  0.351-  20 2.55  21 2.55  10 2.57  13 2.57   2 2.57  17 2.57  14 2.57  12 2.57
                             5 2.57   3 2.57  18 2.57  27 2.58
  12  0.778  0.111  0.351-  21 2.53  15 2.57  10 2.57  14 2.57  18 2.57   3 2.57   1 2.57  16 2.57
                            11 2.57   6 2.57  19 2.57  25 2.57
  13  0.111  0.444  0.351-  23 2.55  20 2.55  16 2.57  18 2.57  10 2.57  11 2.57  14 2.57   5 2.57
                             4 2.57   7 2.57  15 2.57  22 2.58
  14  0.444  0.444  0.351-  21 2.55  23 2.55  15 2.57  17 2.57  12 2.57  16 2.57  13 2.57  11 2.57
                             6 2.57   8 2.57   5 2.57  24 2.58
  15  0.778  0.444  0.351-  19 2.57  14 2.57  17 2.57  12 2.57   6 2.57  18 2.57  10 2.57   9 2.57
                            13 2.57   4 2.57  24 2.57  22 2.57
  16  0.111  0.778  0.351-  23 2.53  18 2.57  13 2.57   7 2.57  14 2.57  17 2.57  12 2.57  10 2.57
                             8 2.57   1 2.57  25 2.57  26 2.57
  17  0.444  0.778  0.351-  26 2.57  14 2.57  15 2.57   8 2.57   9 2.57  11 2.57  16 2.57  18 2.57
                            10 2.57   2 2.57  27 2.57  24 2.57
  18  0.778  0.778  0.351-  25 2.57  16 2.57  13 2.57   7 2.57  15 2.57  12 2.57  17 2.57   9 2.57
                             3 2.57  11 2.57  22 2.57  27 2.57
  19  0.889  0.223  0.449-  21 2.55  20 2.55  22 2.56  24 2.56  28 2.56  15 2.57  12 2.57  10 2.57
                            25 2.57  26 2.57  32 2.59  31 2.59
  20  0.221  0.221  0.448-  36 2.53  10 2.53  11 2.55  13 2.55  26 2.55  19 2.55  27 2.57  22 2.57
                            23 2.59  21 2.59  29 2.61  31 2.61
  21  0.558  0.221  0.448-  36 2.53  12 2.53  14 2.55  11 2.55  19 2.55  25 2.55  24 2.57  27 2.57
                            20 2.59  23 2.59  32 2.61  30 2.61
  22  0.888  0.556  0.450-  24 2.55  27 2.55  35 2.55  19 2.56  25 2.56  18 2.57  15 2.57  23 2.57
                            20 2.57  13 2.58  31 2.59  33 2.59
  23  0.221  0.558  0.448-  36 2.53  16 2.53  13 2.55  14 2.55  25 2.55  26 2.55  22 2.57  24 2.57
                            20 2.59  21 2.59  33 2.61  34 2.61
  24  0.556  0.556  0.450-  22 2.55  27 2.55  35 2.55  19 2.56  26 2.56  15 2.57  17 2.57  21 2.57
                            23 2.57  14 2.58  32 2.59  34 2.59
  25  0.889  0.889  0.449-  21 2.55  23 2.55  22 2.56  27 2.56  28 2.56  18 2.57  16 2.57  12 2.57
                            19 2.57  26 2.57  33 2.59  30 2.59
  26  0.223  0.889  0.449-  20 2.55  23 2.55  27 2.56  24 2.56  28 2.56  17 2.57  10 2.57  16 2.57
                            25 2.57  19 2.57  29 2.59  34 2.59
  27  0.556  0.888  0.450-  24 2.55  22 2.55  35 2.55  26 2.56  25 2.56  17 2.57  18 2.57  20 2.57
                            21 2.57  11 2.58  29 2.59  30 2.59
  28  0.000  0.000  0.548-  33 2.56  30 2.56  31 2.56  29 2.56  32 2.56  34 2.56  25 2.56  19 2.56
                            26 2.56
  29  0.333  0.000  0.549-  31 2.56  28 2.56  36 2.57  34 2.57  35 2.57  30 2.57  26 2.59  27 2.59
                            20 2.61
  30  0.667  0.000  0.549-  32 2.56  28 2.56  36 2.57  33 2.57  35 2.57  29 2.57  25 2.59  27 2.59
                            21 2.61
  31  0.000  0.333  0.549-  29 2.56  28 2.56  36 2.57  32 2.57  35 2.57  33 2.57  19 2.59  22 2.59
                            20 2.61
  32  0.667  0.333  0.549-  30 2.56  28 2.56  36 2.57  31 2.57  35 2.57  34 2.57  19 2.59  24 2.59
                            21 2.61
  33  0.000  0.667  0.549-  34 2.56  28 2.56  36 2.57  30 2.57  35 2.57  31 2.57  25 2.59  22 2.59
                            23 2.61
  34  0.333  0.667  0.549-  33 2.56  28 2.56  36 2.57  29 2.57  35 2.57  32 2.57  26 2.59  24 2.59
                            23 2.61
  35  0.667  0.667  0.548-  24 2.55  27 2.55  22 2.55  34 2.57  32 2.57  29 2.57  30 2.57  33 2.57
                            31 2.57
  36  0.333  0.333  0.544-  37 1.72  23 2.53  20 2.53  21 2.53  31 2.57  29 2.57  33 2.57  34 2.57
                            32 2.57  30 2.57
  37  0.333  0.333  0.624-  36 1.72
 
  LATTYP: Found a hexagonal cell.
 ALAT       =     7.6967864036
 C/A-ratio  =     2.7653617908
  
  Lattice vectors:
  
 A1 = (  -3.8483927580,  -6.6656128093,   0.0000000000)
 A2 = (   7.6967864037,   0.0000000000,   0.0000000000)
 A3 = (   0.0000000000,   0.0000000000,  21.2843990326)


Analysis of symmetry for initial positions (statically):
=====================================================================
 Subroutine PRICEL returns:
 Original cell was already a primitive cell.
 

 Routine SETGRP: Setting up the symmetry group for a 
 hexagonal supercell.


 Subroutine GETGRP returns: Found  6 space group operations
 (whereof  6 operations were pure point group operations)
 out of a pool of 24 trial point group operations.


The static configuration has the point symmetry C_3v.


Analysis of symmetry for dynamics (positions and initial velocities):
=====================================================================
 Subroutine PRICEL returns:
 Original cell was already a primitive cell.
 

 Routine SETGRP: Setting up the symmetry group for a 
 hexagonal supercell.


 Subroutine GETGRP returns: Found  6 space group operations
 (whereof  6 operations were pure point group operations)
 out of a pool of 24 trial point group operations.


The dynamic configuration has the point symmetry C_3v.


Analysis of constrained symmetry for selective dynamics:
=====================================================================
 Subroutine PRICEL returns:
 Original cell was already a primitive cell.
 

 Routine SETGRP: Setting up the symmetry group for a 
 hexagonal supercell.


 Subroutine GETGRP returns: Found  6 space group operations
 (whereof  6 operations were pure point group operations)
 out of a pool of 24 trial point group operations.


The constrained configuration has the point symmetry C_3v.


 Subroutine INISYM returns: Found  6 space group operations
 (whereof  6 operations are pure point group operations),
 and found     1 'primitive' translations


----------------------------------------------------------------------------------------

                                     Primitive cell                                     

  volume of cell :    1091.9705

  direct lattice vectors                    reciprocal lattice vectors
     7.696786404  0.000000000  0.000000000     0.129924354 -0.075011849  0.000000000
     3.848392758  6.665612809  0.000000000     0.000000000  0.150023716  0.000000000
     0.000000000  0.000000000 21.284399033     0.000000000  0.000000000  0.046982769

  length of vectors
     7.696786404  7.696786404 21.284399033     0.150023716  0.150023716  0.046982769

  position of ions in fractional coordinates (direct lattice)
     0.000000000  0.000000000  0.252370745
     0.333333343  0.000000000  0.252370745
     0.666666687  0.000000000  0.252370745
     1.000000000  0.333333343  0.252370745
     0.333333313  0.333333343  0.252370745
     0.666666687  0.333333343  0.252370745
     1.000000000  0.666666687  0.252370745
     0.333333373  0.666666687  0.252370745
     0.666666627  0.666666687  0.252370745
     0.111111119  0.111111112  0.350790262
     0.444444418  0.111111112  0.350790262
     0.777777791  0.111111112  0.350790262
     0.111111119  0.444444448  0.350790262
     0.444444478  0.444444448  0.350790262
     0.777777731  0.444444448  0.350790262
     0.111111112  0.777777731  0.350790262
     0.444444478  0.777777731  0.350790262
     0.777777851  0.777777731  0.350790262
     0.888617599  0.222764817  0.449317414
     0.221182746  0.221182731  0.447845409
     0.557634569  0.221182731  0.447845409
     0.887823492  0.556088224  0.449587034
     0.221182716  0.557634509  0.447845409
     0.556088284  0.556088224  0.449587034
     0.888617599  0.888617599  0.449317414
     0.222764832  0.888617599  0.449317414
     0.556088224  0.887823492  0.449587034
     0.000000000  0.000000000  0.547534400
     0.332713020  0.000470932  0.549034765
     0.666816078  0.000470932  0.549034765
     0.000470932  0.332713020  0.549034765
     0.666816078  0.332713020  0.549034765
     0.000470932  0.666816078  0.549034765
     0.332713050  0.666816078  0.549034765
     0.666666627  0.666666687  0.547563136
     0.333333313  0.333333343  0.543698104
     0.333333313  0.333333343  0.624492420

  ion indices of the primitive-cell ions
   primitive index   ion index
                 1           1
                 2           2
                 3           3
                 4           4
                 5           5
                 6           6
                 7           7
                 8           8
                 9           9
                10          10
                11          11
                12          12
                13          13
                14          14
                15          15
                16          16
                17          17
                18          18
                19          19
                20          20
                21          21
                22          22
                23          23
                24          24
                25          25
                26          26
                27          27
                28          28
                29          29
                30          30
                31          31
                32          32
                33          33
                34          34
                35          35
                36          36
                37          37

----------------------------------------------------------------------------------------

 
 
 KPOINTS: Automatic mesh                          

Automatic generation of k-mesh.
 Grid dimensions read from file:
 generate k-points for:    8    8    1

 Generating k-lattice:

  Cartesian coordinates                     Fractional coordinates (reciprocal lattice)
     0.016240544 -0.009376481  0.000000000     0.125000000 -0.000000000  0.000000000
     0.000000000  0.018752964  0.000000000     0.000000000  0.125000000  0.000000000
     0.000000000  0.000000000  0.046982769     0.000000000  0.000000000  1.000000000

  Length of vectors
     0.018752964  0.018752964  0.046982769

  Shift w.r.t. Gamma in fractional coordinates (k-lattice)
     0.000000000  0.000000000  0.000000000

 TETIRR: Found     36 inequivalent tetrahedra from      384
 
 Subroutine IBZKPT returns following result:
 ===========================================
 
 Found     10 irreducible k-points:
 
 Following reciprocal coordinates:
            Coordinates               Weight
  0.000000  0.000000  0.000000      1.000000
  0.125000 -0.000000  0.000000      6.000000
  0.250000 -0.000000  0.000000      6.000000
  0.375000 -0.000000  0.000000      6.000000
  0.500000 -0.000000  0.000000      3.000000
  0.250000  0.125000  0.000000      6.000000
  0.375000  0.125000  0.000000     12.000000
  0.500000  0.125000  0.000000     12.000000
  0.500000  0.250000  0.000000      6.000000
 -0.375000  0.250000  0.000000      6.000000
 
 Following cartesian coordinates:
            Coordinates               Weight
  0.000000  0.000000  0.000000      1.000000
  0.016241 -0.009376  0.000000      6.000000
  0.032481 -0.018753  0.000000      6.000000
  0.048722 -0.028129  0.000000      6.000000
  0.064962 -0.037506  0.000000      3.000000
  0.032481  0.000000  0.000000      6.000000
  0.048722 -0.009376  0.000000     12.000000
  0.064962 -0.018753  0.000000     12.000000
  0.064962  0.000000  0.000000      6.000000
 -0.048722  0.065635  0.000000      6.000000
 


--------------------------------------------------------------------------------------------------------




 Dimension of arrays:
   k-points           NKPTS =     10   k-points in BZ     NKDIM =     10   number of bands    NBANDS=    252
   number of dos      NEDOS =    301   number of ions     NIONS =     37
   non local maximal  LDIM  =      6   non local SUM 2l+1 LMDIM =     18
   total plane-waves  NPLWV = 211680
   max r-space proj   IRMAX =   3157   max aug-charges    IRDMAX=  11405
   dimension x,y,z NGX =    42 NGY =   42 NGZ =  120
   dimension x,y,z NGXF=    84 NGYF=   84 NGZF=  240
   support grid    NGXF=    84 NGYF=   84 NGZF=  240
   ions per type =              35   1   1
   NGX,Y,Z   is equivalent  to a cutoff of   9.07,  9.07,  9.37 a.u.
   NGXF,Y,Z  is equivalent  to a cutoff of  18.14, 18.14, 18.75 a.u.

 SYSTEM =  unknown system                          
 POSCAR =  Cu-Re-N                                 

 Startparameter for this run:
   NWRITE =      2    write-flag & timer
   PREC   = normal    normal or accurate (medium, high low for compatibility)
   ISTART =      0    job   : 0-new  1-cont  2-samecut
   ICHARG =     11    charge: 1-file 2-atom 10-const
   ISPIN  =      1    spin polarized calculation?
   LNONCOLLINEAR =      F non collinear calculations
   LSORBIT =      F    spin-orbit coupling
   INIWAV =      1    electr: 0-lowe 1-rand  2-diag
   LASPH  =      F    aspherical Exc in radial PAW
   METAGGA=      F    non-selfconsistent MetaGGA calc.

 Electronic Relaxation 1
   ENCUT  =  500.0 eV  36.75 Ry    6.06 a.u.  14.03 14.03 38.81*2*pi/ulx,y,z
   ENINI  =  500.0     initial cutoff
   ENAUG  =  627.1 eV  augmentation charge cutoff
   NELM   =    150;   NELMIN=  2; NELMDL= -5     # of ELM steps 
   EDIFF  = 0.1E-04   stopping-criterion for ELM
   LREAL  =      T    real-space projection
   NLSPLINE    = F    spline interpolate recip. space projectors
   LCOMPAT=      F    compatible to vasp.4.4
   GGA_COMPAT  = T    GGA compatible to vasp.4.4-vasp.4.6
   LMAXPAW     = -100 max onsite density
   LMAXMIX     =    2 max onsite mixed and CHGCAR
   VOSKOWN=      0    Vosko Wilk Nusair interpolation
   ROPT   =   -0.00050  -0.00050  -0.00050
 Ionic relaxation
   EDIFFG = -.1E-01   stopping-criterion for IOM
   NSW    =      0    number of steps for IOM
   NBLOCK =      1;   KBLOCK =      1    inner block; outer block 
   IBRION =     -1    ionic relax: 0-MD 1-quasi-New 2-CG
   NFREE  =      1    steps in history (QN), initial steepest desc. (CG)
   ISIF   =      2    stress and relaxation
   IWAVPR =     10    prediction:  0-non 1-charg 2-wave 3-comb
   ISYM   =      2    0-nonsym 1-usesym 2-fastsym
   LCORR  =      T    Harris-Foulkes like correction to forces

   POTIM  = 0.5000    time-step for ionic-motion
   TEIN   =    0.0    initial temperature
   TEBEG  =    0.0;   TEEND  =   0.0 temperature during run
   SMASS  =  -3.00    Nose mass-parameter (am)
   estimated Nose-frequenzy (Omega)   =  0.10E-29 period in steps = 0.13E+47 mass=  -0.135E-26a.u.
   SCALEE = 1.0000    scale energy and forces
   NPACO  =    256;   APACO  = 16.0  distance and # of slots for P.C.
   PSTRESS=    0.0 pullay stress

  Mass of Ions in am
   POMASS =  63.55186.21 14.00
  Ionic Valenz
   ZVAL   =  11.00  7.00  5.00
  Atomic Wigner-Seitz radii
   RWIGS  =  -1.00 -1.00 -1.00
  virtual crystal weights 
   VCA    =   1.00  1.00  1.00
   NELECT =     397.0000    total number of electrons
   NUPDOWN=      -1.0000    fix difference up-down

 DOS related values:
   EMIN   =  10.00;   EMAX   =-10.00  energy-range for DOS
   EFERMI =   0.00
   ISMEAR =    -5;   SIGMA  =   0.10  broadening in eV -4-tet -1-fermi 0-gaus

 Electronic relaxation 2 (details)
   IALGO  =     68    algorithm
   LDIAG  =      T    sub-space diagonalisation (order eigenvalues)
   LSUBROT=      F    optimize rotation matrix (better conditioning)
   TURBO    =      0    0=normal 1=particle mesh
   IRESTART =      0    0=no restart 2=restart with 2 vectors
   NREBOOT  =      0    no. of reboots
   NMIN     =      0    reboot dimension
   EREF     =   0.00    reference energy to select bands
   IMIX   =      4    mixing-type and parameters
     AMIX     =   0.40;   BMIX     =  1.00
     AMIX_MAG =   1.60;   BMIX_MAG =  1.00
     AMIN     =   0.10
     WC   =   100.;   INIMIX=   1;  MIXPRE=   1;  MAXMIX= -45

 Intra band minimization:
   WEIMIN = 0.0000     energy-eigenvalue tresh-hold
   EBREAK =  0.99E-08  absolut break condition
   DEPER  =   0.30     relativ break condition  

   TIME   =   0.40     timestep for ELM

  volume/ion in A,a.u.               =      29.51       199.16
  Fermi-wavevector in a.u.,A,eV,Ry     =   1.168426  2.208006 18.574949  1.365220
  Thomas-Fermi vector in A             =   2.304913
 
 Write flags
   LWAVE        =      F    write WAVECAR
   LDOWNSAMPLE  =      F    k-point downsampling of WAVECAR
   LCHARG       =      F    write CHGCAR
   LVTOT        =      F    write LOCPOT, total local potential
   LVHAR        =      F    write LOCPOT, Hartree potential only
   LELF         =      F    write electronic localiz. function (ELF)
   LORBIT       =     10    0 simple, 1 ext, 2 COOP (PROOUT), +10 PAW based schemes


 Dipole corrections
   LMONO  =      F    monopole corrections only (constant potential shift)
   LDIPOL =      F    correct potential (dipole corrections)
   IDIPOL =      0    1-x, 2-y, 3-z, 4-all directions 
   EPSILON=  1.0000000 bulk dielectric constant

 Exchange correlation treatment:
   GGA     =    --    GGA type
   LEXCH   =     8    internal setting for exchange type
   VOSKOWN=      0    Vosko Wilk Nusair interpolation
   LHFCALC =     F    Hartree Fock is set to
   LHFONE  =     F    Hartree Fock one center treatment
   AEXX    =    0.0000 exact exchange contribution

 Linear response parameters
   LEPSILON=     F    determine dielectric tensor
   LRPA    =     F    only Hartree local field effects (RPA)
   LNABLA  =     F    use nabla operator in PAW spheres
   LVEL    =     F    velocity operator in full k-point grid
   LINTERFAST=   F  fast interpolation
   KINTER  =     0    interpolate to denser k-point grid
   CSHIFT  =0.1000    complex shift for real part using Kramers Kronig
   OMEGAMAX=  -1.0    maximum frequency
   DEG_THRESHOLD= 0.2000000E-02 threshold for treating states as degnerate
   RTIME   =   -0.100 relaxation time in fs
  (WPLASMAI=    0.000 imaginary part of plasma frequency in eV, 0.658/RTIME)
   DFIELD  = 0.0000000 0.0000000 0.0000000 field for delta impulse in time
 
 Orbital magnetization related:
   ORBITALMAG=     F  switch on orbital magnetization
   LCHIMAG   =     F  perturbation theory with respect to B field
   DQ        =  0.001000  dq finite difference perturbation B field
   LLRAUG    =     F  two centre corrections for induced B field



--------------------------------------------------------------------------------------------------------


 Static calculation
 charge density and potential remain constant during run
 non-spin polarized calculation
 RMM-DIIS sequential band-by-band and
  variant of blocked Davidson during initial phase
 perform sub-space diagonalisation
    before iterative eigenvector-optimisation
 no mixing
 using additional bands           53
 real space projection scheme for non local part
 use partial core corrections
 calculate Harris-corrections to forces 
   (improved forces if not selfconsistent)
 use gradient corrections 
 WARNING: stress and forces are not correct
  (second derivative of E(xc) not defined)
 use of overlap-Matrix (Vanderbilt PP)
 Fermi weights with tetrahedron method with Bloechl corrections


--------------------------------------------------------------------------------------------------------


  energy-cutoff  :      500.00
  volume of cell :     1091.97
      direct lattice vectors                 reciprocal lattice vectors
     7.696786404  0.000000000  0.000000000     0.129924354 -0.075011849  0.000000000
     3.848392758  6.665612809  0.000000000     0.000000000  0.150023716  0.000000000
     0.000000000  0.000000000 21.284399033     0.000000000  0.000000000  0.046982769

  length of vectors
     7.696786404  7.696786404 21.284399033     0.150023716  0.150023716  0.046982769


 
 k-points in units of 2pi/SCALE and weight: Automatic mesh                          
   0.00000000  0.00000000  0.00000000       0.016
   0.01624054 -0.00937648  0.00000000       0.094
   0.03248109 -0.01875296  0.00000000       0.094
   0.04872163 -0.02812944  0.00000000       0.094
   0.06496218 -0.03750592  0.00000000       0.047
   0.03248109  0.00000000  0.00000000       0.094
   0.04872163 -0.00937648  0.00000000       0.188
   0.06496218 -0.01875296  0.00000000       0.188
   0.06496218  0.00000000  0.00000000       0.094
  -0.04872163  0.06563537  0.00000000       0.094
 
 k-points in reciprocal lattice and weights: Automatic mesh                          
   0.00000000  0.00000000  0.00000000       0.016
   0.12500000 -0.00000000  0.00000000       0.094
   0.25000000 -0.00000000  0.00000000       0.094
   0.37500000 -0.00000000  0.00000000       0.094
   0.50000000 -0.00000000  0.00000000       0.047
   0.25000000  0.12500000  0.00000000       0.094
   0.37500000  0.12500000  0.00000000       0.188
   0.50000000  0.12500000  0.00000000       0.188
   0.50000000  0.25000000  0.00000000       0.094
  -0.37500000  0.25000000  0.00000000       0.094
 
 position of ions in fractional coordinates (direct lattice) 
   0.00000000  0.00000000  0.25237075
   0.33333334  0.00000000  0.25237075
   0.66666669  0.00000000  0.25237075
   0.00000000  0.33333334  0.25237075
   0.33333331  0.33333334  0.25237075
   0.66666669  0.33333334  0.25237075
   0.00000000  0.66666669  0.25237075
   0.33333337  0.66666669  0.25237075
   0.66666663  0.66666669  0.25237075
   0.11111112  0.11111111  0.35079026
   0.44444442  0.11111111  0.35079026
   0.77777779  0.11111111  0.35079026
   0.11111112  0.44444445  0.35079026
   0.44444448  0.44444445  0.35079026
   0.77777773  0.44444445  0.35079026
   0.11111111  0.77777773  0.35079026
   0.44444448  0.77777773  0.35079026
   0.77777785  0.77777773  0.35079026
   0.88861760  0.22276482  0.44931741
   0.22118275  0.22118273  0.44784541
   0.55763457  0.22118273  0.44784541
   0.88782349  0.55608822  0.44958703
   0.22118272  0.55763451  0.44784541
   0.55608828  0.55608822  0.44958703
   0.88861760  0.88861760  0.44931741
   0.22276483  0.88861760  0.44931741
   0.55608822  0.88782349  0.44958703
   0.00000000  0.00000000  0.54753440
   0.33271302  0.00047093  0.54903477
   0.66681608  0.00047093  0.54903477
   0.00047093  0.33271302  0.54903477
   0.66681608  0.33271302  0.54903477
   0.00047093  0.66681608  0.54903477
   0.33271305  0.66681608  0.54903477
   0.66666663  0.66666669  0.54756314
   0.33333331  0.33333334  0.54369810
   0.33333331  0.33333334  0.62449242
 
 position of ions in cartesian coordinates  (Angst):
   0.00000000  0.00000000  5.37155964
   2.56559554  0.00000000  5.37155964
   5.13119109  0.00000000  5.37155964
   1.28279762  2.22187100  5.37155964
   3.84839293  2.22187100  5.37155964
   6.41398872  2.22187100  5.37155964
   2.56559525  4.44374201  5.37155964
   5.13119102  4.44374201  5.37155964
   7.69678588  4.44374201  5.37155964
   1.28279775  0.74062365  7.46635991
   3.84839295  0.74062365  7.46635991
   6.41398873  0.74062365  7.46635991
   2.56559535  2.96249461  7.46635991
   5.13119101  2.96249461  7.46635991
   7.69678586  2.96249461  7.46635991
   3.84839268  5.18436521  7.46635991
   6.41398840  5.18436521  7.46635991
   8.97958418  5.18436521  7.46635991
   7.69678637  1.48486402  9.56345113
   2.55359437  1.47431844  9.53212038
   5.14319219  1.47431844  9.53212038
   8.97343368  3.70666879  9.56918984
   3.84839272  3.71697573  9.53212038
   6.42013864  3.70666879  9.56918984
  10.25924939  5.92318085  9.56345113
   5.13432287  5.92318085  9.56345113
   7.69678578  5.91788764  9.56918984
   0.00000000  0.00000000 11.65394065
   2.56263338  0.00313905 11.68587503
   5.13415325  0.00313905 11.68587503
   1.28403504  2.21773617 11.68587503
   6.41275130  2.21773617 11.68587503
   2.56979483  4.44473779 11.68587503
   5.12699145  4.44473779 11.68587503
   7.69678588  4.44374201 11.65455227
   3.84839293  2.22187100 11.57228739
   3.84839293  2.22187100 13.29194586
 


--------------------------------------------------------------------------------------------------------


 k-point   1 :   0.0000 0.0000 0.0000  plane waves:   27671
 k-point   2 :   0.1250-0.0000 0.0000  plane waves:   27649
 k-point   3 :   0.2500-0.0000 0.0000  plane waves:   27714
 k-point   4 :   0.3750-0.0000 0.0000  plane waves:   27740
 k-point   5 :   0.5000-0.0000 0.0000  plane waves:   27782
 k-point   6 :   0.2500 0.1250 0.0000  plane waves:   27698
 k-point   7 :   0.3750 0.1250 0.0000  plane waves:   27702
 k-point   8 :   0.5000 0.1250 0.0000  plane waves:   27747
 k-point   9 :   0.5000 0.2500 0.0000  plane waves:   27734
 k-point  10 :  -0.3750 0.2500 0.0000  plane waves:   27782

 maximum and minimum number of plane-waves per node :     27782    27649

 maximum number of plane-waves:     27782
 maximum index in each direction: 
   IXMAX=   14   IYMAX=   14   IZMAX=   38
   IXMIN=  -14   IYMIN=  -14   IZMIN=  -38


 serial   3D FFT for wavefunctions
 parallel 3D FFT for charge:
    minimum data exchange during FFTs selected (reduces bandwidth)


 total amount of memory used by VASP MPI-rank0   104801. kBytes
=======================================================================

   base      :      30000. kBytes
   nonlr-proj:      17915. kBytes
   fftplans  :       2916. kBytes
   grid      :      12390. kBytes
   one-center:        575. kBytes
   wavefun   :      41005. kBytes
 
     INWAV:  cpu time    0.0000: real time    0.0000
 initial charge density was supplied:
 number of electron     396.9999779 magnetization 
 keeping initial charge density in first step


--------------------------------------------------------------------------------------------------------


 Maximum index for non-local projection operator         3029
 Maximum index for augmentation-charges          542 (set IRDMAX)


--------------------------------------------------------------------------------------------------------


 First call to EWALD:  gamma=   0.172
 Maximum number of real-space cells 4x 4x 2
 Maximum number of reciprocal cells 2x 2x 5

    FEWALD:  cpu time    0.0015: real time    0.0016


--------------------------------------- Iteration      1(   1)  ---------------------------------------


    POTLOK:  cpu time    0.0265: real time    0.0267
    SETDIJ:  cpu time    0.0045: real time    0.0047
     EDDAV:  cpu time    5.7384: real time    5.7400
 BZINTS: Fermi energy:   14.323083;  397.000000 electrons
         Band energy: 0.263805E+04;  BLOECHL correction:   -0.017951
       DOS:  cpu time    0.0099: real time    0.0100
    --------------------------------------------
      LOOP:  cpu time    5.7793: real time    5.7813

 eigenvalue-minimisations  :  5040
 total energy-change (2. order) : 0.3630815E+04  (-0.1700778E+05)
 number of electron     396.9999779 magnetization 
 augmentation part      396.9999779 magnetization 

 Free energy of the ion-electron system (eV)
  ---------------------------------------------------
  alpha Z        PSCENC =       903.00646751
  Ewald energy   TEWEN  =    145787.43957753
  -Hartree energ DENC   =   -192766.27942830
  -exchange      EXHF   =         0.00000000
  -V(xc)+E(xc)   XCENC  =      1531.43963632
  PAW double counting   =     47220.14487826   -50931.35329948
  entropy T*S    EENTRO =         0.00000000
  eigenvalues    EBANDS =      2638.04647623
  atomic energy  EATOM  =     49248.37056062
  Solvation  Ediel_sol  =         0.00000000
  ---------------------------------------------------
  free energy    TOTEN  =      3630.81486868 eV

  energy without entropy =     3630.81486868  energy(sigma->0) =     3630.81486868


--------------------------------------------------------------------------------------------------------




--------------------------------------- Iteration      1(   2)  ---------------------------------------


     EDDAV:  cpu time    7.9381: real time    7.9411
 BZINTS: Fermi energy:    3.015609;  397.000000 electrons
         Band energy:-0.653384E+03;  BLOECHL correction:   -0.018865
       DOS:  cpu time    0.0106: real time    0.0106
    --------------------------------------------
      LOOP:  cpu time    7.9487: real time    7.9517

 eigenvalue-minimisations  :  7504
 total energy-change (2. order) :-0.3291430E+04  (-0.3158311E+04)
 number of electron     396.9999779 magnetization 
 augmentation part      396.9999779 magnetization 

 Free energy of the ion-electron system (eV)
  ---------------------------------------------------
  alpha Z        PSCENC =       903.00646751
  Ewald energy   TEWEN  =    145787.43957753
  -Hartree energ DENC   =   -192766.27942830
  -exchange      EXHF   =         0.00000000
  -V(xc)+E(xc)   XCENC  =      1531.43963632
  PAW double counting   =     47220.14487826   -50931.35329948
  entropy T*S    EENTRO =         0.00000000
  eigenvalues    EBANDS =      -653.38392132
  atomic energy  EATOM  =     49248.37056062
  Solvation  Ediel_sol  =         0.00000000
  ---------------------------------------------------
  free energy    TOTEN  =       339.38447113 eV

  energy without entropy =      339.38447113  energy(sigma->0) =      339.38447113


--------------------------------------------------------------------------------------------------------




--------------------------------------- Iteration      1(   3)  ---------------------------------------


     EDDAV:  cpu time    6.2865: real time    6.2868
 BZINTS: Fermi energy:    0.230477;  397.000000 electrons
         Band energy:-0.110107E+04;  BLOECHL correction:   -0.039878
       DOS:  cpu time    0.0101: real time    0.0101
    --------------------------------------------
      LOOP:  cpu time    6.2966: real time    6.2968

 eigenvalue-minimisations  :  5684
 total energy-change (2. order) :-0.4476904E+03  (-0.4173219E+03)
 number of electron     396.9999779 magnetization 
 augmentation part      396.9999779 magnetization 

 Free energy of the ion-electron system (eV)
  ---------------------------------------------------
  alpha Z        PSCENC =       903.00646751
  Ewald energy   TEWEN  =    145787.43957753
  -Hartree energ DENC   =   -192766.27942830
  -exchange      EXHF   =         0.00000000
  -V(xc)+E(xc)   XCENC  =      1531.43963632
  PAW double counting   =     47220.14487826   -50931.35329948
  entropy T*S    EENTRO =         0.00000000
  eigenvalues    EBANDS =     -1101.07436936
  atomic energy  EATOM  =     49248.37056062
  Solvation  Ediel_sol  =         0.00000000
  ---------------------------------------------------
  free energy    TOTEN  =      -108.30597691 eV

  energy without entropy =     -108.30597691  energy(sigma->0) =     -108.30597691


--------------------------------------------------------------------------------------------------------




--------------------------------------- Iteration      1(   4)  ---------------------------------------


     EDDAV:  cpu time    7.9517: real time    7.9520
 BZINTS: Fermi energy:    0.045292;  397.000000 electrons
         Band energy:-0.113264E+04;  BLOECHL correction:   -0.043142
       DOS:  cpu time    0.0104: real time    0.0104
    --------------------------------------------
      LOOP:  cpu time    7.9621: real time    7.9624

 eigenvalue-minimisations  :  7476
 total energy-change (2. order) :-0.3156802E+02  (-0.3059814E+02)
 number of electron     396.9999779 magnetization 
 augmentation part      396.9999779 magnetization 

 Free energy of the ion-electron system (eV)
  ---------------------------------------------------
  alpha Z        PSCENC =       903.00646751
  Ewald energy   TEWEN  =    145787.43957753
  -Hartree energ DENC   =   -192766.27942830
  -exchange      EXHF   =         0.00000000
  -V(xc)+E(xc)   XCENC  =      1531.43963632
  PAW double counting   =     47220.14487826   -50931.35329948
  entropy T*S    EENTRO =         0.00000000
  eigenvalues    EBANDS =     -1132.64238575
  atomic energy  EATOM  =     49248.37056062
  Solvation  Ediel_sol  =         0.00000000
  ---------------------------------------------------
  free energy    TOTEN  =      -139.87399329 eV

  energy without entropy =     -139.87399329  energy(sigma->0) =     -139.87399329


--------------------------------------------------------------------------------------------------------




--------------------------------------- Iteration      1(   5)  ---------------------------------------


     EDDAV:  cpu time    8.0173: real time    8.0176
 BZINTS: Fermi energy:    0.041879;  397.000000 electrons
         Band energy:-0.113365E+04;  BLOECHL correction:   -0.042775
       DOS:  cpu time    0.0104: real time    0.0104
    --------------------------------------------
      LOOP:  cpu time    8.0277: real time    8.0280

 eigenvalue-minimisations  :  7588
 total energy-change (2. order) :-0.1010820E+01  (-0.1009098E+01)
 number of electron     396.9999779 magnetization 
 augmentation part      396.9999779 magnetization 

 Free energy of the ion-electron system (eV)
  ---------------------------------------------------
  alpha Z        PSCENC =       903.00646751
  Ewald energy   TEWEN  =    145787.43957753
  -Hartree energ DENC   =   -192766.27942830
  -exchange      EXHF   =         0.00000000
  -V(xc)+E(xc)   XCENC  =      1531.43963632
  PAW double counting   =     47220.14487826   -50931.35329948
  entropy T*S    EENTRO =         0.00000000
  eigenvalues    EBANDS =     -1133.65320621
  atomic energy  EATOM  =     49248.37056062
  Solvation  Ediel_sol  =         0.00000000
  ---------------------------------------------------
  free energy    TOTEN  =      -140.88481376 eV

  energy without entropy =     -140.88481376  energy(sigma->0) =     -140.88481376


--------------------------------------------------------------------------------------------------------




--------------------------------------- Iteration      1(   6)  ---------------------------------------


    EDDIAG:  cpu time    1.0531: real time    1.0534
  RMM-DIIS:  cpu time    3.3714: real time    3.3715
    ORTHCH:  cpu time    0.2081: real time    0.2081
 BZINTS: Fermi energy:    0.041854;  397.000000 electrons
         Band energy:-0.113366E+04;  BLOECHL correction:   -0.042772
       DOS:  cpu time    0.0099: real time    0.0099
    --------------------------------------------
      LOOP:  cpu time    4.6425: real time    4.6429

 eigenvalue-minimisations  :  5740
 total energy-change (2. order) :-0.1108599E-01  (-0.1108724E-01)
 number of electron     396.9999779 magnetization 
 augmentation part      396.9999779 magnetization 

 Free energy of the ion-electron system (eV)
  ---------------------------------------------------
  alpha Z        PSCENC =       903.00646751
  Ewald energy   TEWEN  =    145787.43957753
  -Hartree energ DENC   =   -192766.27942830
  -exchange      EXHF   =         0.00000000
  -V(xc)+E(xc)   XCENC  =      1531.43963632
  PAW double counting   =     47220.14487826   -50931.35329948
  entropy T*S    EENTRO =         0.00000000
  eigenvalues    EBANDS =     -1133.66429220
  atomic energy  EATOM  =     49248.37056062
  Solvation  Ediel_sol  =         0.00000000
  ---------------------------------------------------
  free energy    TOTEN  =      -140.89589975 eV

  energy without entropy =     -140.89589975  energy(sigma->0) =     -140.89589975


--------------------------------------------------------------------------------------------------------




--------------------------------------- Iteration      1(   7)  ---------------------------------------


    EDDIAG:  cpu time    1.0520: real time    1.0521
  RMM-DIIS:  cpu time    4.5727: real time    4.5727
    ORTHCH:  cpu time    0.2078: real time    0.2079
 BZINTS: Fermi energy:    0.041847;  397.000000 electrons
         Band energy:-0.113367E+04;  BLOECHL correction:   -0.042771
       DOS:  cpu time    0.0093: real time    0.0093
    --------------------------------------------
      LOOP:  cpu time    5.8418: real time    5.8419

 eigenvalue-minimisations  :  7984
 total energy-change (2. order) :-0.3733252E-02  (-0.3691753E-02)
 number of electron     396.9999779 magnetization 
 augmentation part      396.9999779 magnetization 

 Free energy of the ion-electron system (eV)
  ---------------------------------------------------
  alpha Z        PSCENC =       903.00646751
  Ewald energy   TEWEN  =    145787.43957753
  -Hartree energ DENC   =   -192766.27942830
  -exchange      EXHF   =         0.00000000
  -V(xc)+E(xc)   XCENC  =      1531.43963632
  PAW double counting   =     47220.14487826   -50931.35329948
  entropy T*S    EENTRO =         0.00000000
  eigenvalues    EBANDS =     -1133.66802545
  atomic energy  EATOM  =     49248.37056062
  Solvation  Ediel_sol  =         0.00000000
  ---------------------------------------------------
  free energy    TOTEN  =      -140.89963300 eV

  energy without entropy =     -140.89963300  energy(sigma->0) =     -140.89963300


--------------------------------------------------------------------------------------------------------




--------------------------------------- Iteration      1(   8)  ---------------------------------------


    EDDIAG:  cpu time    1.0556: real time    1.0556
  RMM-DIIS:  cpu time    5.7262: real time    5.7262
    ORTHCH:  cpu time    0.2079: real time    0.2079
 BZINTS: Fermi energy:    0.041844;  397.000000 electrons
         Band energy:-0.113367E+04;  BLOECHL correction:   -0.042771
       DOS:  cpu time    0.0101: real time    0.0101
    --------------------------------------------
      LOOP:  cpu time    6.9998: real time    6.9999

 eigenvalue-minimisations  :  9898
 total energy-change (2. order) :-0.1243983E-02  (-0.1236404E-02)
 number of electron     396.9999779 magnetization 
 augmentation part      396.9999779 magnetization 

 Free energy of the ion-electron system (eV)
  ---------------------------------------------------
  alpha Z        PSCENC =       903.00646751
  Ewald energy   TEWEN  =    145787.43957753
  -Hartree energ DENC   =   -192766.27942830
  -exchange      EXHF   =         0.00000000
  -V(xc)+E(xc)   XCENC  =      1531.43963632
  PAW double counting   =     47220.14487826   -50931.35329948
  entropy T*S    EENTRO =         0.00000000
  eigenvalues    EBANDS =     -1133.66926944
  atomic energy  EATOM  =     49248.37056062
  Solvation  Ediel_sol  =         0.00000000
  ---------------------------------------------------
  free energy    TOTEN  =      -140.90087698 eV

  energy without entropy =     -140.90087698  energy(sigma->0) =     -140.90087698


--------------------------------------------------------------------------------------------------------




--------------------------------------- Iteration      1(   9)  ---------------------------------------


    EDDIAG:  cpu time    1.0558: real time    1.0559
  RMM-DIIS:  cpu time    3.6965: real time    3.6966
    ORTHCH:  cpu time    0.2084: real time    0.2084
 BZINTS: Fermi energy:    0.041844;  397.000000 electrons
         Band energy:-0.113367E+04;  BLOECHL correction:   -0.042771
       DOS:  cpu time    0.0103: real time    0.0103
    --------------------------------------------
      LOOP:  cpu time    4.9711: real time    4.9712

 eigenvalue-minimisations  :  6183
 total energy-change (2. order) :-0.5480694E-04  (-0.4862836E-04)
 number of electron     396.9999779 magnetization 
 augmentation part      396.9999779 magnetization 

 Free energy of the ion-electron system (eV)
  ---------------------------------------------------
  alpha Z        PSCENC =       903.00646751
  Ewald energy   TEWEN  =    145787.43957753
  -Hartree energ DENC   =   -192766.27942830
  -exchange      EXHF   =         0.00000000
  -V(xc)+E(xc)   XCENC  =      1531.43963632
  PAW double counting   =     47220.14487826   -50931.35329948
  entropy T*S    EENTRO =         0.00000000
  eigenvalues    EBANDS =     -1133.66932424
  atomic energy  EATOM  =     49248.37056062
  Solvation  Ediel_sol  =         0.00000000
  ---------------------------------------------------
  free energy    TOTEN  =      -140.90093179 eV

  energy without entropy =     -140.90093179  energy(sigma->0) =     -140.90093179


--------------------------------------------------------------------------------------------------------




--------------------------------------- Iteration      1(  10)  ---------------------------------------


    EDDIAG:  cpu time    1.0529: real time    1.0531
  RMM-DIIS:  cpu time    3.4586: real time    3.4586
    ORTHCH:  cpu time    0.2077: real time    0.2077
 BZINTS: Fermi energy:    0.041844;  397.000000 electrons
         Band energy:-0.113367E+04;  BLOECHL correction:   -0.042771
       DOS:  cpu time    0.0097: real time    0.0097
    --------------------------------------------
      LOOP:  cpu time    4.7289: real time    4.7291

 eigenvalue-minimisations  :  5538
 total energy-change (2. order) :-0.9406765E-05  (-0.8999106E-05)
 number of electron     396.9999779 magnetization 
 augmentation part      396.9999779 magnetization 

 Free energy of the ion-electron system (eV)
  ---------------------------------------------------
  alpha Z        PSCENC =       903.00646751
  Ewald energy   TEWEN  =    145787.43957753
  -Hartree energ DENC   =   -192766.27942830
  -exchange      EXHF   =         0.00000000
  -V(xc)+E(xc)   XCENC  =      1531.43963632
  PAW double counting   =     47220.14487826   -50931.35329948
  entropy T*S    EENTRO =         0.00000000
  eigenvalues    EBANDS =     -1133.66933365
  atomic energy  EATOM  =     49248.37056062
  Solvation  Ediel_sol  =         0.00000000
  ---------------------------------------------------
  free energy    TOTEN  =      -140.90094120 eV

  energy without entropy =     -140.90094120  energy(sigma->0) =     -140.90094120


--------------------------------------------------------------------------------------------------------




 average (electrostatic) potential at core
  the test charge radii are     0.9430  1.1873  0.7089
  (the norm of the test charge is              1.0000)
       1 -70.9144       2 -70.9215       3 -70.9214       4 -70.9215       5 -70.9181
       6 -70.9212       7 -70.9214       8 -70.9212       9 -70.9277      10 -71.1956
      11 -71.1783      12 -71.1953      13 -71.1783      14 -71.1781      15 -71.1804
      16 -71.1953      17 -71.1804      18 -71.1803      19 -71.1542      20 -71.4180
      21 -71.4179      22 -71.1694      23 -71.4179      24 -71.1696      25 -71.1538
      26 -71.1542      27 -71.1694      28 -70.9066      29 -71.0042      30 -71.0040
      31 -71.0042      32 -71.0040      33 -71.0041      34 -71.0040      35 -70.8851
      36 -47.2534      37 -69.2198
 
 
 
 E-fermi :   0.0418     XC(G=0):  -5.9560     alpha+bet : -5.3594

 Fermi energy:         0.0418435276

 k-point     1 :       0.0000    0.0000    0.0000
  band No.  band energies     occupation 
      1     -13.7000      2.00000
      2      -8.7751      2.00000
      3      -7.5060      2.00000
      4      -5.9672      2.00000
      5      -5.8496      2.00000
      6      -5.8494      2.00000
      7      -5.8143      2.00000
      8      -5.7528      2.00000
      9      -5.7527      2.00000
     10      -5.7382      2.00000
     11      -5.1335      2.00000
     12      -5.0854      2.00000
     13      -5.0853      2.00000
     14      -5.0457      2.00000
     15      -5.0380      2.00000
     16      -5.0379      2.00000
     17      -4.9778      2.00000
     18      -4.5112      2.00000
     19      -4.5112      2.00000
     20      -4.4212      2.00000
     21      -4.4212      2.00000
     22      -4.3546      2.00000
     23      -4.3249      2.00000
     24      -4.2665      2.00000
     25      -4.2664      2.00000
     26      -4.2503      2.00000
     27      -4.0456      2.00000
     28      -4.0456      2.00000
     29      -3.9998      2.00000
     30      -3.9977      2.00000
     31      -3.9977      2.00000
     32      -3.9121      2.00000
     33      -3.8896      2.00000
     34      -3.8895      2.00000
     35      -3.8428      2.00000
     36      -3.8381      2.00000
     37      -3.8381      2.00000
     38      -3.8217      2.00000
     39      -3.7953      2.00000
     40      -3.7952      2.00000
     41      -3.7822      2.00000
     42      -3.7385      2.00000
     43      -3.7384      2.00000
     44      -3.6755      2.00000
     45      -3.6755      2.00000
     46      -3.6647      2.00000
     47      -3.6575      2.00000
     48      -3.6574      2.00000
     49      -3.5616      2.00000
     50      -3.5255      2.00000
     51      -3.5057      2.00000
     52      -3.5057      2.00000
     53      -3.4958      2.00000
     54      -3.4617      2.00000
     55      -3.4328      2.00000
     56      -3.3894      2.00000
     57      -3.3894      2.00000
     58      -3.2105      2.00000
     59      -3.1543      2.00000
     60      -3.1543      2.00000
     61      -3.1539      2.00000
     62      -3.1422      2.00000
     63      -3.1040      2.00000
     64      -3.1039      2.00000
     65      -3.0728      2.00000
     66      -3.0566      2.00000
     67      -3.0566      2.00000
     68      -3.0450      2.00000
     69      -3.0450      2.00000
     70      -2.9969      2.00000
     71      -2.9969      2.00000
     72      -2.9830      2.00000
     73      -2.9741      2.00000
     74      -2.9741      2.00000
     75      -2.9511      2.00000
     76      -2.9185      2.00000
     77      -2.9185      2.00000
     78      -2.8622      2.00000
     79      -2.8621      2.00000
     80      -2.8584      2.00000
     81      -2.8181      2.00000
     82      -2.8180      2.00000
     83      -2.8034      2.00000
     84      -2.7936      2.00000
     85      -2.7936      2.00000
     86      -2.7473      2.00000
     87      -2.7453      2.00000
     88      -2.7452      2.00000
     89      -2.7016      2.00000
     90      -2.7016      2.00000
     91      -2.6877      2.00000
     92      -2.6801      2.00000
     93      -2.6800      2.00000
     94      -2.6649      2.00000
     95      -2.6491      2.00000
     96      -2.6491      2.00000
     97      -2.6255      2.00000
     98      -2.6255      2.00000
     99      -2.6150      2.00000
    100      -2.6077      2.00000
    101      -2.6077      2.00000
    102      -2.5818      2.00000
    103      -2.5818      2.00000
    104      -2.5544      2.00000
    105      -2.5527      2.00000
    106      -2.5527      2.00000
    107      -2.5208      2.00000
    108      -2.5208      2.00000
    109      -2.4224      2.00000
    110      -2.4224      2.00000
    111      -2.3449      2.00000
    112      -2.3415      2.00000
    113      -2.3126      2.00000
    114      -2.3125      2.00000
    115      -2.3032      2.00000
    116      -2.2856      2.00000
    117      -2.2855      2.00000
    118      -2.2830      2.00000
    119      -2.2830      2.00000
    120      -2.2787      2.00000
    121      -2.2634      2.00000
    122      -2.2626      2.00000
    123      -2.2100      2.00000
    124      -2.1936      2.00000
    125      -2.1935      2.00000
    126      -2.1175      2.00000
    127      -2.1175      2.00000
    128      -2.1065      2.00000
    129      -2.1065      2.00000
    130      -2.0878      2.00000
    131      -2.0878      2.00000
    132      -2.0542      2.00000
    133      -2.0501      2.00000
    134      -2.0501      2.00000
    135      -2.0374      2.00000
    136      -2.0330      2.00000
    137      -1.9993      2.00000
    138      -1.9992      2.00000
    139      -1.9746      2.00000
    140      -1.9723      2.00000
    141      -1.9723      2.00000
    142      -1.9417      2.00000
    143      -1.9417      2.00000
    144      -1.9015      2.00000
    145      -1.9015      2.00000
    146      -1.8698      2.00000
    147      -1.8698      2.00000
    148      -1.8637      2.00000
    149      -1.8551      2.00000
    150      -1.8297      2.00000
    151      -1.8296      2.00000
    152      -1.8141      2.00000
    153      -1.8112      2.00000
    154      -1.8112      2.00000
    155      -1.7811      2.00000
    156      -1.7769      2.00000
    157      -1.7765      2.00000
    158      -1.7765      2.00000
    159      -1.7408      2.00000
    160      -1.7238      2.00000
    161      -1.7179      2.00000
    162      -1.7178      2.00000
    163      -1.7163      2.00000
    164      -1.6960      2.00000
    165      -1.6960      2.00000
    166      -1.6913      2.00000
    167      -1.6820      2.00000
    168      -1.6819      2.00000
    169      -1.6746      2.00000
    170      -1.6552      2.00000
    171      -1.6545      2.00000
    172      -1.6545      2.00000
    173      -1.6384      2.00000
    174      -1.6384      2.00000
    175      -1.6273      2.00000
    176      -1.6273      2.00000
    177      -1.6244      2.00000
    178      -1.6146      2.00000
    179      -1.6124      2.00000
    180      -1.6124      2.00000
    181      -1.6104      2.00000
    182      -1.6086      2.00000
    183      -1.6033      2.00000
    184      -1.6033      2.00000
    185      -1.5836      2.00000
    186      -1.5836      2.00000
    187      -1.5188      2.00000
    188      -1.5188      2.00000
    189      -1.5183      2.00000
    190      -1.5018      2.00000
    191      -1.5018      2.00000
    192      -1.4977      2.00000
    193      -1.4871      2.00000
    194      -1.4871      2.00000
    195      -1.0201      2.00000
    196      -0.5540      2.00000
    197      -0.4157      2.00000
    198      -0.4156      2.00000
    199      -0.3068      2.00000
    200      -0.1924      2.00000
    201      -0.1924      2.00000
    202       0.0086      0.54382
    203       0.0209      0.17137
    204       0.0209      0.11532
    205       1.5755      0.00000
    206       1.9140      0.00000
    207       1.9140      0.00000
    208       2.0097      0.00000
    209       2.0108      0.00000
    210       2.0109      0.00000
    211       2.4263      0.00000
    212       2.4264      0.00000
    213       3.4123      0.00000
    214       3.4923      0.00000
    215       3.7340      0.00000
    216       3.7340      0.00000
    217       4.0248      0.00000
    218       4.0248      0.00000
    219       4.1742      0.00000
    220       4.5136      0.00000
    221       4.5137      0.00000
    222       4.5440      0.00000
    223       4.5541      0.00000
    224       4.6157      0.00000
    225       4.6157      0.00000
    226       4.8468      0.00000
    227       4.8469      0.00000
    228       4.9560      0.00000
    229       5.1581      0.00000
    230       5.2375      0.00000
    231       5.2376      0.00000
    232       5.3801      0.00000
    233       6.0213      0.00000
    234       6.2190      0.00000
    235       6.3836      0.00000
    236       6.3837      0.00000
    237       6.6471      0.00000
    238       6.6473      0.00000
    239       6.7449      0.00000
    240       6.9065      0.00000
    241       6.9073      0.00000
    242       6.9925      0.00000
    243       7.0951      0.00000
    244       7.1006      0.00000
    245       7.1025      0.00000
    246       7.4221      0.00000
    247       7.5348      0.00000
    248       7.5497      0.00000
    249       7.5560      0.00000
    250       7.6498      0.00000
    251       7.6703      0.00000
    252       7.8515      0.00000

 k-point     2 :       0.1250   -0.0000    0.0000
  band No.  band energies     occupation 
      1     -13.6999      2.00000
      2      -8.7200      2.00000
      3      -7.4524      2.00000
      4      -6.3575      2.00000
      5      -6.0405      2.00000
      6      -6.0358      2.00000
      7      -5.8982      2.00000
      8      -5.5206      2.00000
      9      -5.5138      2.00000
     10      -5.3862      2.00000
     11      -5.3198      2.00000
     12      -5.1747      2.00000
     13      -5.1741      2.00000
     14      -5.0718      2.00000
     15      -4.9286      2.00000
     16      -4.8952      2.00000
     17      -4.8270      2.00000
     18      -4.5214      2.00000
     19      -4.4974      2.00000
     20      -4.4511      2.00000
     21      -4.4135      2.00000
     22      -4.3367      2.00000
     23      -4.3154      2.00000
     24      -4.2776      2.00000
     25      -4.2580      2.00000
     26      -4.2365      2.00000
     27      -4.0740      2.00000
     28      -4.0471      2.00000
     29      -4.0020      2.00000
     30      -3.9845      2.00000
     31      -3.9740      2.00000
     32      -3.9539      2.00000
     33      -3.9393      2.00000
     34      -3.9135      2.00000
     35      -3.8974      2.00000
     36      -3.8925      2.00000
     37      -3.8625      2.00000
     38      -3.8542      2.00000
     39      -3.7939      2.00000
     40      -3.7838      2.00000
     41      -3.7541      2.00000
     42      -3.7278      2.00000
     43      -3.7051      2.00000
     44      -3.6851      2.00000
     45      -3.6701      2.00000
     46      -3.6418      2.00000
     47      -3.6198      2.00000
     48      -3.6125      2.00000
     49      -3.5728      2.00000
     50      -3.5579      2.00000
     51      -3.5051      2.00000
     52      -3.4945      2.00000
     53      -3.4828      2.00000
     54      -3.4296      2.00000
     55      -3.4140      2.00000
     56      -3.3794      2.00000
     57      -3.3660      2.00000
     58      -3.2563      2.00000
     59      -3.2333      2.00000
     60      -3.2080      2.00000
     61      -3.1638      2.00000
     62      -3.1543      2.00000
     63      -3.1173      2.00000
     64      -3.0923      2.00000
     65      -3.0854      2.00000
     66      -3.0720      2.00000
     67      -3.0661      2.00000
     68      -3.0506      2.00000
     69      -3.0483      2.00000
     70      -3.0076      2.00000
     71      -2.9866      2.00000
     72      -2.9847      2.00000
     73      -2.9683      2.00000
     74      -2.9651      2.00000
     75      -2.9321      2.00000
     76      -2.9173      2.00000
     77      -2.9024      2.00000
     78      -2.8814      2.00000
     79      -2.8548      2.00000
     80      -2.8446      2.00000
     81      -2.8300      2.00000
     82      -2.8267      2.00000
     83      -2.7966      2.00000
     84      -2.7862      2.00000
     85      -2.7860      2.00000
     86      -2.7619      2.00000
     87      -2.7533      2.00000
     88      -2.7463      2.00000
     89      -2.7254      2.00000
     90      -2.7121      2.00000
     91      -2.6996      2.00000
     92      -2.6892      2.00000
     93      -2.6792      2.00000
     94      -2.6623      2.00000
     95      -2.6541      2.00000
     96      -2.6442      2.00000
     97      -2.6344      2.00000
     98      -2.6231      2.00000
     99      -2.6114      2.00000
    100      -2.5851      2.00000
    101      -2.5725      2.00000
    102      -2.5705      2.00000
    103      -2.5675      2.00000
    104      -2.5650      2.00000
    105      -2.5603      2.00000
    106      -2.5502      2.00000
    107      -2.5219      2.00000
    108      -2.5106      2.00000
    109      -2.4837      2.00000
    110      -2.4628      2.00000
    111      -2.4626      2.00000
    112      -2.4407      2.00000
    113      -2.3926      2.00000
    114      -2.3919      2.00000
    115      -2.3515      2.00000
    116      -2.3132      2.00000
    117      -2.3108      2.00000
    118      -2.2992      2.00000
    119      -2.2930      2.00000
    120      -2.2808      2.00000
    121      -2.2709      2.00000
    122      -2.2687      2.00000
    123      -2.2529      2.00000
    124      -2.2436      2.00000
    125      -2.1881      2.00000
    126      -2.1453      2.00000
[...]
  0.000   0.000   0.000   0.000   0.000   0.000   0.000   0.000   0.000   0.000   0.000   0.000   0.000   0.000   0.000   0.000
  0.000   0.000   0.000   0.000   0.000   0.000   0.000   0.000   0.000   0.000   0.000   0.000   0.000   0.000   0.000   0.000
  0.000   0.000   0.000   0.000   0.000   0.000   0.000   0.000   0.000   0.000   0.000   0.000   0.000   0.000   0.000   0.000
  0.000   0.000   0.000   0.000   0.000   0.000   0.000   0.000   0.000   0.000   0.000   0.000   0.000   0.000   0.000   0.000
  0.000   0.000   0.000   0.000   0.000   0.000   0.000   0.000   0.000   0.000   0.000   0.000   0.000   0.000   0.000   0.000
  0.000   0.000   0.000   0.000   0.000   0.000   0.000   0.000   0.000   0.000   1.000   0.000   0.000   0.000   0.000   0.000
  0.000   0.000   0.000   0.000   0.000   0.000   0.000   0.000   0.000   0.000   0.000   0.000   0.000   0.000   0.000   0.000
  0.000   0.000   0.000   0.000   0.000   0.000   0.000   0.000   0.000   0.000   0.000   0.000   0.000   0.000   0.000   0.000
  0.000   0.000   0.000   0.000   0.000   0.000   0.000   0.000   0.000   0.000   0.000   0.000   0.000   0.000   0.000   0.000
  0.000   0.000   0.000   0.000   0.000   0.000   0.000   0.000   0.000   0.000   0.000   0.000   0.000   0.000   0.000   0.000
  0.000   0.000   0.000   0.000   0.000   0.000   0.000   0.000   0.000   0.000   0.000   0.000   0.000   0.000   0.000   0.000
  0.000   0.000   0.000   0.000   0.000   0.000   0.000   0.000   0.000   0.000   0.000   0.000   0.000   0.000   0.000   0.000
  0.000   0.000   0.000   0.000   0.000   0.000   0.000   0.000   0.000   0.000   0.000   0.000   0.000   0.000   0.000   0.000


------------------------ aborting loop because EDIFF is reached ----------------------------------------





 total charge

# of ion       s       p       d       tot
------------------------------------------
    1        0.451   0.282   9.190   9.923
    2        0.449   0.285   9.187   9.920
    3        0.449   0.285   9.187   9.920
    4        0.449   0.285   9.187   9.920
    5        0.449   0.285   9.186   9.921
    6        0.449   0.285   9.187   9.920
    7        0.449   0.285   9.187   9.920
    8        0.449   0.285   9.187   9.920
    9        0.447   0.285   9.188   9.919
   10        0.442   0.370   9.180   9.991
   11        0.440   0.371   9.182   9.993
   12        0.442   0.370   9.180   9.991
   13        0.440   0.371   9.182   9.993
   14        0.440   0.371   9.182   9.993
   15        0.438   0.368   9.179   9.985
   16        0.442   0.370   9.180   9.991
   17        0.438   0.368   9.179   9.985
   18        0.438   0.368   9.179   9.985
   19        0.442   0.363   9.182   9.987
   20        0.465   0.401   9.170  10.036
   21        0.465   0.401   9.170  10.036
   22        0.431   0.372   9.178   9.981
   23        0.465   0.401   9.170  10.036
   24        0.431   0.372   9.178   9.981
   25        0.442   0.363   9.182   9.987
   26        0.442   0.363   9.182   9.987
   27        0.431   0.372   9.178   9.981
   28        0.454   0.285   9.186   9.925
   29        0.452   0.313   9.180   9.945
   30        0.452   0.313   9.180   9.945
   31        0.452   0.313   9.180   9.945
   32        0.452   0.313   9.180   9.945
   33        0.452   0.313   9.180   9.945
   34        0.452   0.313   9.180   9.945
   35        0.447   0.290   9.185   9.922
   36        0.702   0.655   5.089   6.447
   37        1.344   2.216   0.000   3.560
--------------------------------------------------
tot         17.672  14.621 326.436 358.729
 
    CHARGE:  cpu time    0.2089: real time    0.2091
    FORLOC:  cpu time    0.0074: real time    0.0074
    FORNL :  cpu time    1.2054: real time    1.2056
    STRESS:  cpu time    3.5436: real time    3.5438
    FORCOR:  cpu time    0.0281: real time    0.0281
    FORHAR:  cpu time    0.0114: real time    0.0115
    OFIELD:  cpu time    0.0001: real time    0.0001

  FORCE on cell =-STRESS in cart. coord.  units (eV):
  Direction    XX          YY          ZZ          XY          YZ          ZX
  --------------------------------------------------------------------------------------
  Alpha Z   903.00647   903.00647   903.00647
  Ewald  171649.45119171649.45078************     0.00038     0.00012     0.00017
  Hartree184590.60478184590.60476************     0.00003     0.00006     0.00006
  E(xc)   -2300.30377 -2300.30327 -2305.57650    -0.00043    -0.00003    -0.00006
  Local  ************************369447.20997     0.01859    -0.00059    -0.00095
  n-local  -788.35011  -774.32720  -792.47356     7.91763    -0.07478     0.22559
  augment  3317.29921  3317.31938  3334.97416    -0.01747     0.00029     0.00052
  Kinetic  3324.18993  3326.96450  3332.03187     3.23806     1.75049    -1.40636
  Fock        0.00000     0.00000     0.00000     0.00000     0.00000     0.00000
  -------------------------------------------------------------------------------------
  Total      -1.54002    -1.54002     1.63709     0.00000    -0.00000    -0.00000
  in kB      -2.25958    -2.25958     2.40199     0.00000    -0.00000    -0.00000
  external pressure =       -0.71 kB  Pullay stress =        0.00 kB


 VOLUME and BASIS-vectors are now :
 -----------------------------------------------------------------------------
  energy-cutoff  :      500.00
  volume of cell :     1091.97
      direct lattice vectors                 reciprocal lattice vectors
     7.696786404  0.000000000  0.000000000     0.129924354 -0.075011849  0.000000000
     3.848392758  6.665612809  0.000000000     0.000000000  0.150023716  0.000000000
     0.000000000  0.000000000 21.284399033     0.000000000  0.000000000  0.046982769

  length of vectors
     7.696786404  7.696786404 21.284399033     0.150023716  0.150023716  0.046982769


 FORCES acting on ions
    electron-ion (+dipol)            ewald-force                    non-local-force                 convergence-correction
 -----------------------------------------------------------------------------------------------
   -.416E-04 0.149E-06 0.347E+04   0.580E-04 -.433E-05 -.347E+04   -.159E-18 0.195E-17 -.225E+01   -.400E-03 -.198E-03 -.126E+00
   -.178E+00 0.768E-01 0.347E+04   0.210E+00 -.662E-01 -.347E+04   -.233E-01 0.802E-01 -.196E+01   -.389E-02 -.812E-01 -.120E+00
   0.178E+00 0.768E-01 0.347E+04   -.210E+00 -.662E-01 -.347E+04   0.233E-01 0.802E-01 -.196E+01   0.479E-02 -.788E-01 -.119E+00
   -.223E-01 -.192E+00 0.347E+04   0.476E-01 0.215E+00 -.347E+04   0.578E-01 -.603E-01 -.196E+01   -.722E-01 0.372E-01 -.120E+00
   -.644E-04 -.498E-05 0.347E+04   0.116E-03 -.101E-04 -.347E+04   -.222E-17 -.197E-17 -.187E+01   0.121E-01 0.741E-02 -.118E+00
   0.223E-01 -.192E+00 0.347E+04   -.477E-01 0.215E+00 -.347E+04   -.578E-01 -.603E-01 -.196E+01   0.706E-01 0.383E-01 -.119E+00
   0.155E+00 0.116E+00 0.347E+04   -.162E+00 -.149E+00 -.347E+04   0.811E-01 -.199E-01 -.196E+01   -.658E-01 0.435E-01 -.119E+00
   -.155E+00 0.116E+00 0.347E+04   0.162E+00 -.149E+00 -.347E+04   -.811E-01 -.199E-01 -.196E+01   0.691E-01 0.420E-01 -.119E+00
   -.144E-03 -.329E-04 0.347E+04   0.263E-03 0.205E-04 -.347E+04   0.271E-17 0.958E-18 -.214E+01   -.131E-01 -.674E-02 -.118E+00
   0.168E+01 0.971E+00 0.116E+04   -.138E+01 -.795E+00 -.116E+04   -.334E+00 -.193E+00 -.742E+00   -.227E-01 -.131E-01 0.305E+00
   -.912E-04 0.335E+00 0.116E+04   0.190E-03 -.382E+00 -.116E+04   -.119E-07 0.179E+00 -.541E+00   0.123E-01 -.173E+00 0.294E+00
   -.168E+01 0.971E+00 0.116E+04   0.138E+01 -.795E+00 -.116E+04   0.334E+00 -.193E+00 -.742E+00   0.208E-01 -.125E-01 0.305E+00
   0.290E+00 -.168E+00 0.116E+04   -.331E+00 0.191E+00 -.116E+04   0.155E+00 -.893E-01 -.541E+00   -.144E+00 0.981E-01 0.294E+00
   -.290E+00 -.168E+00 0.116E+04   0.330E+00 0.191E+00 -.116E+04   -.155E+00 -.893E-01 -.541E+00   0.167E+00 0.960E-01 0.291E+00
   -.143E-03 -.936E+00 0.116E+04   0.298E-03 0.761E+00 -.116E+04   -.577E-08 0.867E-01 -.781E+00   -.323E-02 0.803E-01 0.306E+00
   -.916E-04 -.194E+01 0.116E+04   0.186E-03 0.159E+01 -.116E+04   -.257E-07 0.385E+00 -.742E+00   -.131E-02 0.231E-01 0.305E+00
   -.810E+00 0.468E+00 0.116E+04   0.659E+00 -.380E+00 -.116E+04   0.751E-01 -.433E-01 -.781E+00   0.686E-01 -.429E-01 0.306E+00
   0.810E+00 0.468E+00 0.116E+04   -.659E+00 -.380E+00 -.116E+04   -.751E-01 -.433E-01 -.781E+00   -.666E-01 -.401E-01 0.309E+00
   -.581E-04 -.314E+01 -.116E+04   0.699E-04 0.314E+01 0.116E+04   0.424E-08 -.637E-01 0.960E+00   -.110E-01 0.278E-01 0.420E+00
   -.335E+02 -.193E+02 -.117E+04   0.336E+02 0.194E+02 0.117E+04   -.363E+00 -.210E+00 0.371E+00   -.668E-01 -.387E-01 0.485E+00
   0.335E+02 -.193E+02 -.117E+04   -.336E+02 0.194E+02 0.117E+04   0.363E+00 -.210E+00 0.371E+00   0.478E-01 -.422E-01 0.484E+00
   -.207E+02 0.119E+02 -.117E+04   0.202E+02 -.117E+02 0.117E+04   0.593E+00 -.342E+00 0.108E+01   -.624E-01 0.513E-01 0.342E+00
   -.886E-04 0.387E+02 -.117E+04   0.146E-03 -.388E+02 0.117E+04   -.279E-07 0.419E+00 0.371E+00   -.138E-01 0.613E-01 0.484E+00
   0.207E+02 0.119E+02 -.117E+04   -.202E+02 -.117E+02 0.117E+04   -.593E+00 -.342E+00 0.108E+01   0.863E-01 0.489E-01 0.342E+00
   0.272E+01 0.157E+01 -.116E+04   -.272E+01 -.157E+01 0.116E+04   0.552E-01 0.319E-01 0.960E+00   -.423E-01 -.244E-01 0.419E+00
   -.272E+01 0.157E+01 -.116E+04   0.272E+01 -.157E+01 0.116E+04   -.552E-01 0.319E-01 0.960E+00   0.190E-01 -.232E-01 0.420E+00
   -.113E-03 -.239E+02 -.117E+04   0.240E-03 0.233E+02 0.117E+04   -.456E-07 0.685E+00 0.108E+01   0.132E-01 -.797E-01 0.342E+00
   -.479E-04 0.103E-04 -.342E+04   0.386E-04 -.326E-04 0.342E+04   0.162E-16 -.885E-17 0.193E+01   -.512E-03 -.245E-03 0.296E+00
   -.173E+02 -.260E+02 -.342E+04   0.173E+02 0.256E+02 0.342E+04   -.203E+00 0.100E+00 0.267E+01   0.106E-01 0.128E-01 0.196E+00
   0.173E+02 -.260E+02 -.342E+04   -.173E+02 0.256E+02 0.342E+04   0.203E+00 0.100E+00 0.267E+01   -.945E-02 0.137E-01 0.194E+00
   -.311E+02 -.194E+01 -.342E+04   0.308E+02 0.217E+01 0.342E+04   -.148E-01 -.226E+00 0.267E+01   0.164E-01 0.269E-02 0.196E+00
   0.311E+02 -.194E+01 -.342E+04   -.308E+02 0.217E+01 0.342E+04   0.148E-01 -.226E+00 0.267E+01   -.164E-01 0.293E-02 0.196E+00
   -.139E+02 0.279E+02 -.342E+04   0.135E+02 -.277E+02 0.342E+04   0.188E+00 0.126E+00 0.267E+01   0.715E-02 -.151E-01 0.194E+00
   0.139E+02 0.279E+02 -.342E+04   -.135E+02 -.277E+02 0.342E+04   -.188E+00 0.126E+00 0.267E+01   -.496E-02 -.157E-01 0.196E+00
   -.154E-03 -.298E-04 -.343E+04   0.252E-03 0.378E-05 0.342E+04   -.107E-17 0.102E-17 0.240E+01   -.121E-01 -.619E-02 0.288E+00
   -.285E-04 -.136E-04 -.198E+04   0.892E-04 0.167E-04 0.198E+04   -.112E-16 -.319E-17 0.145E+01   0.784E-03 0.469E-03 0.130E+00
   0.107E-03 -.494E-04 -.182E+04   0.168E-04 0.739E-05 0.184E+04   -.104E-17 0.293E-19 -.222E+02   0.139E-02 0.842E-03 -.185E+00
 -----------------------------------------------------------------------------------------------
   -.157E-03 -.500E-04 0.103E+02   0.210E-12 0.129E-12 0.148E-10   0.125E-15 -.214E-17 -.174E+02   -.472E-02 -.578E-02 0.708E+01
 
 
 POSITION                                       TOTAL-FORCE (eV/Angst)
 -----------------------------------------------------------------------------------
      0.00000      0.00000      5.37156         0.000000      0.000000      0.010357
      2.56560      0.00000      5.37156         0.005340      0.010669      0.064816
      5.13119      0.00000      5.37156        -0.005340      0.010669      0.064816
      1.28280      2.22187      5.37156         0.011909     -0.000710      0.064816
      3.84839      2.22187      5.37156        -0.000000      0.000000      0.058687
      6.41399      2.22187      5.37156        -0.011909     -0.000710      0.064816
      2.56560      4.44374      5.37156         0.006570     -0.009959      0.064816
      5.13119      4.44374      5.37156        -0.006570     -0.009959      0.064816
      7.69679      4.44374      5.37156         0.000000      0.000000      0.040565
      1.28280      0.74062      7.46636        -0.050367     -0.029079     -0.069884
      3.84839      0.74062      7.46636         0.000000     -0.047311     -0.055878
      6.41399      0.74062      7.46636         0.050367     -0.029079     -0.069884
      2.56560      2.96249      7.46636        -0.040972      0.023655     -0.055878
      5.13119      2.96249      7.46636         0.040972      0.023655     -0.055878
      7.69679      2.96249      7.46636         0.000000     -0.008201      0.028000
      3.84839      5.18437      7.46636        -0.000000      0.058159     -0.069884
      6.41399      5.18437      7.46636        -0.007102      0.004100      0.028000
      8.97958      5.18437      7.46636         0.007102      0.004100      0.028000
      7.69679      1.48486      9.56345         0.000000     -0.027035      0.040701
      2.55359      1.47432      9.53212        -0.320456     -0.185015     -0.433019
      5.14319      1.47432      9.53212         0.320456     -0.185015     -0.433019
      8.97343      3.70667      9.56919         0.077958     -0.045009      0.028682
      3.84839      3.71698      9.53212        -0.000000      0.370031     -0.433019
      6.42014      3.70667      9.56919        -0.077958     -0.045009      0.028682
     10.25925      5.92318      9.56345         0.023413      0.013517      0.040701
      5.13432      5.92318      9.56345        -0.023413      0.013517      0.040701
      7.69679      5.91789      9.56919        -0.000000      0.090018      0.028682
      0.00000      0.00000     11.65394         0.000000      0.000000     -0.080599
      2.56263      0.00314     11.68588        -0.181672     -0.320906     -0.217527
      5.13415      0.00314     11.68588         0.181672     -0.320906     -0.217527
      1.28404      2.21774     11.68588        -0.368749      0.003120     -0.217527
      6.41275      2.21774     11.68588         0.368749      0.003120     -0.217527
      2.56979      4.44474     11.68588        -0.187077      0.317786     -0.217527
      5.12699      4.44474     11.68588         0.187077      0.317786     -0.217527
      7.69679      4.44374     11.65455         0.000000      0.000000     -0.023482
      3.84839      2.22187     11.57229         0.000000      0.000000      2.296801
      3.84839      2.22187     13.29195         0.000000      0.000000     -0.001860
 -----------------------------------------------------------------------------------
    total drift:                               -0.004878     -0.005832     -0.029863


--------------------------------------------------------------------------------------------------------



  FREE ENERGIE OF THE ION-ELECTRON SYSTEM (eV)
  ---------------------------------------------------
  free  energy   TOTEN  =      -140.90094120 eV

  energy  without entropy=     -140.90094120  energy(sigma->0) =     -140.90094120
 


--------------------------------------------------------------------------------------------------------


    POTLOK:  cpu time    0.0294: real time    0.0294


--------------------------------------------------------------------------------------------------------


 stress matrix after NEB project (eV)
     -1.54002      0.00000     -0.00000
      0.00000     -1.54002      0.00000
     -0.00000     -0.00000      1.63709
  FORCES: max atom, RMS     0.001860    0.000306
  FORCE total and by dimension    0.001860    0.001860
  Stress total and by dimension    2.724592    1.637088
     LOOP+:  cpu time   68.2818: real time   68.2942
 -----------------------------------------------------------------------------
|                                                                             |
|           W    W    AA    RRRRR   N    N  II  N    N   GGGG   !!!           |
|           W    W   A  A   R    R  NN   N  II  NN   N  G    G  !!!           |
|           W    W  A    A  R    R  N N  N  II  N N  N  G       !!!           |
|           W WW W  AAAAAA  RRRRR   N  N N  II  N  N N  G  GGG   !            |
|           WW  WW  A    A  R   R   N   NN  II  N   NN  G    G                |
|           W    W  A    A  R    R  N    N  II  N    N   GGGG   !!!           |
|                                                                             |
|     Tetrahedron method does not include variations of the Fermi             |
|     occupations, so forces and stress will be inaccurate. We suggest        |
|     using a different smearing scheme ISMEAR = 1 or 2 for metals in         |
|     relaxations.                                                            |
|                                                                             |
 -----------------------------------------------------------------------------

    4ORBIT:  cpu time    0.0000: real time    0.0000



 total charge

# of ion       s       p       d       tot
------------------------------------------
    1        0.451   0.282   9.190   9.923
    2        0.449   0.285   9.187   9.920
    3        0.449   0.285   9.187   9.920
    4        0.449   0.285   9.187   9.920
    5        0.449   0.285   9.186   9.921
    6        0.449   0.285   9.187   9.920
    7        0.449   0.285   9.187   9.920
    8        0.449   0.285   9.187   9.920
    9        0.447   0.285   9.188   9.919
   10        0.442   0.370   9.180   9.991
   11        0.440   0.371   9.182   9.993
   12        0.442   0.370   9.180   9.991
   13        0.440   0.371   9.182   9.993
   14        0.440   0.371   9.182   9.993
   15        0.438   0.368   9.179   9.985
   16        0.442   0.370   9.180   9.991
   17        0.438   0.368   9.179   9.985
   18        0.438   0.368   9.179   9.985
   19        0.442   0.363   9.182   9.987
   20        0.465   0.401   9.170  10.036
   21        0.465   0.401   9.170  10.036
   22        0.431   0.372   9.178   9.981
   23        0.465   0.401   9.170  10.036
   24        0.431   0.372   9.178   9.981
   25        0.442   0.363   9.182   9.987
   26        0.442   0.363   9.182   9.987
   27        0.431   0.372   9.178   9.981
   28        0.454   0.285   9.186   9.925
   29        0.452   0.313   9.180   9.945
   30        0.452   0.313   9.180   9.945
   31        0.452   0.313   9.180   9.945
   32        0.452   0.313   9.180   9.945
   33        0.452   0.313   9.180   9.945
   34        0.452   0.313   9.180   9.945
   35        0.447   0.290   9.185   9.922
   36        0.702   0.655   5.089   6.447
   37        1.344   2.216   0.000   3.560
--------------------------------------------------
tot         17.672  14.621 326.436 358.729
 
 BZINTS: Fermi energy:    0.041844;  397.000000 electrons
         Band energy:-0.113367E+04;  BLOECHL correction:   -0.042771

 total amount of memory used by VASP MPI-rank0   104801. kBytes
=======================================================================

   base      :      30000. kBytes
   nonlr-proj:      17915. kBytes
   fftplans  :       2916. kBytes
   grid      :      12390. kBytes
   one-center:        575. kBytes
   wavefun   :      41005. kBytes
 
  
  
 General timing and accounting informations for this job:
 ========================================================
  
                  Total CPU time used (sec):       74.226
                            User time (sec):       71.346
                          System time (sec):        2.880
                         Elapsed time (sec):       74.704
  
                   Maximum memory used (kb):      344284.
                   Average memory used (kb):          N/A
  
                          Minor page faults:        75441
                          Major page faults:            0
                 Voluntary context switches:         5460
