PROCAR new format
# of k-points:   10         # of bands:  252         # of ions:   37

 k-point     1 :    0.00000000 0.00000000 0.00000000     weight = 0.01562500

band     1 # energy  -13.69999976 # occ.  2.00000000
 
ion      s      p      d    tot
    1  0.000  0.000  0.000  0.000
    2  0.000  0.000  0.000  0.000
    3  0.000  0.000  0.000  0.000
    4  0.000  0.000  0.000  0.000
    5  0.000  0.000  0.000  0.000
    6  0.000  0.000  0.000  0.000
    7  0.000  0.000  0.000  0.000
    8  0.000  0.000  0.000  0.000
    9  0.000  0.000  0.000  0.000
   10  0.000  0.000  0.000  0.000
   11  0.000  0.000  0.000  0.000
   12  0.000  0.000  0.000  0.000
   13  0.000  0.000  0.000  0.000
   14  0.000  0.000  0.000  0.000
   15  0.000  0.000  0.000  0.000
   16  0.000  0.000  0.000  0.000
   17  0.000  0.000  0.000  0.000
   18  0.000  0.000  0.000  0.000
   19  0.000  0.000  0.000  0.000
   20  0.001  0.000  0.000  0.001
   21  0.001  0.000  0.000  0.001
   22  0.000  0.000  0.000  0.000
   23  0.001  0.000  0.000  0.001
   24  0.000  0.000  0.000  0.000
   25  0.000  0.000  0.000  0.000
   26  0.000  0.000  0.000  0.000
   27  0.000  0.000  0.000  0.000
   28  0.000  0.000  0.000  0.000
   29  0.000  0.000  0.000  0.000
   30  0.000  0.000  0.000  0.000
   31  0.000  0.000  0.000  0.000
   32  0.000  0.000  0.000  0.000
   33  0.000  0.000  0.000  0.000
   34  0.000  0.000  0.000  0.000
   35  0.000  0.000  0.000  0.000
   36  0.080  0.057  0.149  0.285
   37  0.608  0.023  0.000  0.631
tot    0.691  0.082  0.150  0.923
 
band     2 # energy   -8.77509048 # occ.  2.00000000
 
ion      s      p      d    tot
    1  0.006  0.001  0.000  0.007
    2  0.006  0.001  0.000  0.007
    3  0.006  0.001  0.000  0.007
    4  0.006  0.001  0.000  0.007
    5  0.006  0.001  0.000  0.007
    6  0.006  0.001  0.000  0.007
    7  0.006  0.001  0.000  0.007
    8  0.006  0.001  0.000  0.007
    9  0.006  0.001  0.000  0.007
   10  0.024  0.000  0.000  0.024
   11  0.024  0.000  0.000  0.025
   12  0.024  0.000  0.000  0.024
   13  0.024  0.000  0.000  0.025
   14  0.024  0.000  0.000  0.025
   15  0.023  0.000  0.000  0.023
   16  0.024  0.000  0.000  0.024
   17  0.023  0.000  0.000  0.023
   18  0.023  0.000  0.000  0.023
   19  0.024  0.000  0.000  0.024
   20  0.027  0.000  0.000  0.027
   21  0.027  0.000  0.000  0.027
   22  0.024  0.000  0.000  0.024
   23  0.027  0.000  0.000  0.027
   24  0.024  0.000  0.000  0.024
   25  0.024  0.000  0.000  0.024
   26  0.024  0.000  0.000  0.024
   27  0.024  0.000  0.000  0.024
   28  0.007  0.001  0.000  0.007
   29  0.007  0.001  0.000  0.008
   30  0.007  0.001  0.000  0.008
   31  0.007  0.001  0.000  0.008
   32  0.007  0.001  0.000  0.008
   33  0.007  0.001  0.000  0.008
   34  0.007  0.001  0.000  0.008
   35  0.007  0.001  0.000  0.007
   36  0.011  0.003  0.001  0.015
   37  0.003  0.000  0.000  0.003
tot    0.565  0.019  0.002  0.585
 
band     3 # energy   -7.50596431 # occ.  2.00000000
 
ion      s      p      d    tot
    1  0.018  0.001  0.000  0.019
    2  0.018  0.001  0.000  0.019
    3  0.018  0.001  0.000  0.019
    4  0.018  0.001  0.000  0.019
    5  0.017  0.001  0.000  0.019
    6  0.018  0.001  0.000  0.019
    7  0.018  0.001  0.000  0.019
    8  0.018  0.001  0.000  0.019
    9  0.018  0.001  0.000  0.019
   10  0.011  0.002  0.001  0.013
   11  0.011  0.002  0.001  0.013
   12  0.011  0.002  0.001  0.013
   13  0.011  0.002  0.001  0.013
   14  0.011  0.002  0.001  0.013
   15  0.011  0.002  0.001  0.013
   16  0.011  0.002  0.001  0.013
   17  0.011  0.002  0.001  0.013
   18  0.011  0.002  0.001  0.013
   19  0.008  0.002  0.000  0.011
   20  0.009  0.003  0.000  0.012
   21  0.009  0.003  0.000  0.012
   22  0.009  0.002  0.000  0.011
   23  0.009  0.003  0.000  0.012
   24  0.009  0.002  0.000  0.011
   25  0.008  0.002  0.000  0.011
   26  0.008  0.002  0.000  0.011
   27  0.009  0.002  0.000  0.011
   28  0.017  0.001  0.001  0.018
   29  0.019  0.001  0.001  0.020
   30  0.019  0.001  0.001  0.020
   31  0.019  0.001  0.001  0.020
   32  0.019  0.001  0.001  0.020
   33  0.019  0.001  0.001  0.020
   34  0.019  0.001  0.001  0.020
   35  0.017  0.001  0.001  0.018
   36  0.027  0.003  0.008  0.037
   37  0.003  0.000  0.000  0.004
tot    0.510  0.056  0.026  0.592
 
band     4 # energy   -5.96721633 # occ.  2.00000000
 
ion      s      p      d    tot
    1  0.013  0.000  0.004  0.017
    2  0.013  0.000  0.004  0.017
    3  0.013  0.000  0.004  0.017
    4  0.013  0.000  0.004  0.017
    5  0.006  0.000  0.005  0.011
    6  0.013  0.000  0.004  0.017
    7  0.013  0.000  0.004  0.017
    8  0.013  0.000  0.004  0.017
    9  0.021  0.000  0.003  0.024
   10  0.002  0.003  0.002  0.007
   11  0.008  0.005  0.001  0.013
   12  0.002  0.003  0.002  0.007
   13  0.008  0.005  0.001  0.013
   14  0.008  0.005  0.001  0.013
   15  0.000  0.002  0.002  0.005
   16  0.002  0.003  0.002  0.007
   17  0.000  0.002  0.002  0.005
   18  0.000  0.002  0.002  0.005
   19  0.002  0.002  0.005  0.009
   20  0.021  0.004  0.008  0.033
   21  0.021  0.004  0.008  0.033
   22  0.001  0.003  0.004  0.008
   23  0.021  0.004  0.008  0.033
   24  0.001  0.003  0.004  0.008
   25  0.002  0.002  0.005  0.009
   26  0.002  0.002  0.005  0.010
   27  0.001  0.003  0.004  0.008
   28  0.017  0.000  0.005  0.022
   29  0.017  0.000  0.008  0.025
   30  0.017  0.000  0.008  0.025
   31  0.017  0.000  0.008  0.025
   32  0.017  0.000  0.008  0.025
   33  0.017  0.000  0.008  0.025
   34  0.017  0.000  0.008  0.025
   35  0.022  0.000  0.005  0.027
   36  0.005  0.002  0.055  0.062
   37  0.000  0.006  0.000  0.007
tot    0.367  0.070  0.212  0.649
 
band     5 # energy   -5.84955348 # occ.  2.00000000
 
ion      s      p      d    tot
    1  0.000  0.002  0.004  0.006
    2  0.007  0.002  0.002  0.011
    3  0.001  0.001  0.001  0.003
    4  0.007  0.002  0.002  0.011
    5  0.000  0.002  0.003  0.005
    6  0.004  0.001  0.002  0.007
    7  0.001  0.001  0.001  0.003
    8  0.004  0.001  0.002  0.007
    9  0.000  0.000  0.002  0.002
   10  0.048  0.005  0.003  0.056
   11  0.008  0.009  0.005  0.022
   12  0.012  0.002  0.011  0.024
   13  0.008  0.009  0.005  0.021
   14  0.032  0.001  0.006  0.038
   15  0.000  0.005  0.005  0.011
   16  0.012  0.002  0.010  0.024
   17  0.000  0.005  0.005  0.011
   18  0.002  0.002  0.003  0.006
   19  0.004  0.010  0.003  0.017
   20  0.075  0.003  0.009  0.087
   21  0.019  0.004  0.016  0.039
   22  0.003  0.003  0.009  0.016
   23  0.019  0.004  0.016  0.039
   24  0.013  0.004  0.002  0.020
   25  0.017  0.000  0.006  0.024
   26  0.004  0.010  0.003  0.017
   27  0.003  0.003  0.009  0.016
   28  0.000  0.002  0.003  0.005
   29  0.010  0.003  0.005  0.018
   30  0.002  0.001  0.003  0.006
   31  0.010  0.003  0.004  0.018
   32  0.003  0.002  0.004  0.008
   33  0.002  0.001  0.003  0.006
   34  0.003  0.002  0.004  0.008
   35  0.000  0.000  0.003  0.003
   36  0.000  0.005  0.033  0.039
   37  0.000  0.002  0.000  0.002
tot    0.334  0.112  0.209  0.654
 
band     6 # energy   -5.84938821 # occ.  2.00000000
 
ion      s      p      d    tot
    1  0.000  0.002  0.004  0.006
    2  0.000  0.001  0.002  0.003
    3  0.007  0.002  0.002  0.011
    4  0.000  0.001  0.002  0.003
    5  0.000  0.002  0.003  0.005
    6  0.004  0.001  0.002  0.007
    7  0.007  0.002  0.002  0.011
    8  0.004  0.001  0.002  0.007
    9  0.000  0.000  0.002  0.002
   10  0.000  0.000  0.013  0.013
   11  0.024  0.003  0.006  0.033
   12  0.036  0.004  0.006  0.045
   13  0.024  0.003  0.006  0.033
   14  0.000  0.011  0.005  0.016
   15  0.001  0.003  0.004  0.008
   16  0.036  0.004  0.006  0.045
   17  0.001  0.003  0.004  0.008
   18  0.000  0.006  0.006  0.012
   19  0.013  0.003  0.005  0.022
   20  0.000  0.004  0.019  0.023
   21  0.057  0.003  0.011  0.071
   22  0.010  0.004  0.005  0.018
   23  0.056  0.003  0.012  0.071
   24  0.000  0.003  0.012  0.015
   25  0.000  0.013  0.001  0.015
   26  0.013  0.003  0.005  0.022
   27  0.010  0.004  0.005  0.018
   28  0.000  0.002  0.003  0.005
   29  0.000  0.001  0.003  0.004
   30  0.008  0.003  0.005  0.016
   31  0.000  0.001  0.003  0.004
   32  0.008  0.002  0.003  0.013
   33  0.008  0.003  0.005  0.015
   34  0.007  0.002  0.003  0.013
   35  0.000  0.000  0.003  0.003
   36  0.000  0.005  0.033  0.039
   37  0.000  0.002  0.000  0.002
tot    0.334  0.112  0.209  0.654
 
band     7 # energy   -5.81428525 # occ.  2.00000000
 
ion      s      p      d    tot
    1  0.000  0.000  0.001  0.001
    2  0.002  0.001  0.004  0.007
    3  0.002  0.001  0.004  0.007
    4  0.002  0.001  0.004  0.007
    5  0.028  0.002  0.000  0.030
    6  0.002  0.001  0.004  0.007
    7  0.002  0.001  0.004  0.007
    8  0.002  0.001  0.004  0.007
    9  0.001  0.001  0.003  0.005
   10  0.004  0.004  0.006  0.014
   11  0.016  0.007  0.004  0.026
   12  0.004  0.004  0.006  0.014
   13  0.016  0.007  0.004  0.026
   14  0.016  0.007  0.004  0.026
   15  0.018  0.002  0.007  0.027
   16  0.004  0.004  0.006  0.014
   17  0.018  0.002  0.007  0.027
   18  0.018  0.002  0.007  0.027
   19  0.017  0.001  0.010  0.028
   20  0.021  0.008  0.005  0.034
   21  0.021  0.008  0.005  0.034
   22  0.009  0.006  0.004  0.020
   23  0.021  0.008  0.005  0.034
   24  0.009  0.006  0.004  0.020
   25  0.017  0.001  0.010  0.028
   26  0.017  0.001  0.010  0.028
   27  0.009  0.006  0.004  0.020
   28  0.001  0.001  0.002  0.005
   29  0.002  0.002  0.006  0.010
   30  0.002  0.002  0.006  0.010
   31  0.002  0.002  0.006  0.010
   32  0.002  0.002  0.006  0.010
   33  0.002  0.002  0.006  0.010
   34  0.002  0.002  0.006  0.010
   35  0.001  0.001  0.001  0.003
   36  0.050  0.008  0.000  0.058
   37  0.006  0.004  0.000  0.009
tot    0.366  0.119  0.176  0.662
 
band     8 # energy   -5.75282354 # occ.  2.00000000
 
ion      s      p      d    tot
    1  0.000  0.001  0.002  0.004
    2  0.009  0.002  0.002  0.013
    3  0.001  0.001  0.002  0.003
    4  0.009  0.002  0.002  0.013
    5  0.000  0.000  0.004  0.004
    6  0.004  0.002  0.002  0.008
    7  0.001  0.001  0.002  0.004
    8  0.004  0.002  0.002  0.008
    9  0.000  0.003  0.005  0.008
   10  0.000  0.012  0.002  0.014
   11  0.018  0.003  0.005  0.026
   12  0.005  0.003  0.005  0.013
   13  0.018  0.003  0.005  0.026
   14  0.000  0.001  0.013  0.015
   15  0.042  0.004  0.006  0.052
   16  0.005  0.003  0.005  0.013
   17  0.042  0.004  0.006  0.052
   18  0.000  0.006  0.011  0.017
   19  0.034  0.003  0.006  0.043
   20  0.000  0.012  0.003  0.015
   21  0.000  0.004  0.005  0.009
   22  0.038  0.004  0.006  0.047
   23  0.000  0.004  0.005  0.009
   24  0.000  0.010  0.006  0.016
   25  0.000  0.000  0.017  0.017
   26  0.034  0.004  0.006  0.043
   27  0.038  0.004  0.006  0.047
   28  0.000  0.002  0.005  0.007
   29  0.013  0.003  0.003  0.019
   30  0.002  0.002  0.004  0.007
   31  0.013  0.003  0.003  0.019
   32  0.005  0.001  0.003  0.009
   33  0.002  0.002  0.004  0.007
   34  0.005  0.001  0.003  0.009
   35  0.000  0.004  0.005  0.009
   36  0.000  0.001  0.010  0.011
   37  0.000  0.000  0.000  0.000
tot    0.342  0.115  0.180  0.637
 
band     9 # energy   -5.75267888 # occ.  2.00000000
 
ion      s      p      d    tot
    1  0.000  0.001  0.002  0.004
    2  0.001  0.001  0.002  0.003
    3  0.009  0.002  0.002  0.013
    4  0.001  0.001  0.002  0.003
    5  0.000  0.000  0.004  0.004
    6  0.005  0.002  0.002  0.008
    7  0.009  0.002  0.002  0.013
    8  0.005  0.002  0.002  0.008
    9  0.000  0.003  0.005  0.008
   10  0.007  0.000  0.006  0.013
   11  0.006  0.002  0.011  0.018
   12  0.002  0.009  0.003  0.014
   13  0.006  0.002  0.011  0.018
   14  0.024  0.004  0.002  0.030
   15  0.014  0.005  0.009  0.028
   16  0.002  0.009  0.003  0.014
   17  0.014  0.005  0.009  0.028
   18  0.056  0.003  0.005  0.064
   19  0.011  0.001  0.013  0.026
   20  0.000  0.001  0.006  0.007
   21  0.000  0.009  0.004  0.013
   22  0.013  0.008  0.006  0.027
   23  0.000  0.009  0.004  0.013
   24  0.050  0.002  0.005  0.057
   25  0.045  0.005  0.002  0.052
   26  0.011  0.001  0.013  0.026
   27  0.013  0.008  0.006  0.027
   28  0.000  0.002  0.005  0.007
   29  0.000  0.001  0.003  0.004
   30  0.011  0.002  0.003  0.016
   31  0.000  0.001  0.003  0.004
   32  0.008  0.002  0.003  0.014
   33  0.011  0.002  0.003  0.016
   34  0.008  0.002  0.003  0.014
   35  0.000  0.004  0.005  0.009
   36  0.000  0.001  0.010  0.011
   37  0.000  0.000  0.000  0.000
tot    0.342  0.115  0.180  0.637
 
band    10 # energy   -5.73816120 # occ.  2.00000000
 
ion      s      p      d    tot
    1  0.023  0.003  0.001  0.026
    2  0.000  0.002  0.004  0.006
    3  0.000  0.002  0.004  0.006
    4  0.000  0.002  0.004  0.006
    5  0.000  0.000  0.001  0.001
    6  0.000  0.002  0.004  0.006
    7  0.000  0.002  0.004  0.006
    8  0.000  0.002  0.004  0.006
    9  0.009  0.002  0.001  0.011
   10  0.028  0.005  0.007  0.039
   11  0.004  0.001  0.011  0.016
   12  0.028  0.005  0.007  0.039
   13  0.004  0.001  0.011  0.016
   14  0.004  0.001  0.011  0.016
   15  0.015  0.008  0.003  0.026
   16  0.028  0.005  0.007  0.039
   17  0.015  0.008  0.003  0.026
   18  0.015  0.008  0.003  0.026
   19  0.018  0.009  0.002  0.030
   20  0.000  0.002  0.012  0.014
   21  0.000  0.002  0.012  0.014
   22  0.027  0.003  0.008  0.038
   23  0.000  0.002  0.012  0.014
   24  0.027  0.003  0.008  0.038
   25  0.019  0.009  0.002  0.030
   26  0.018  0.009  0.002  0.030
   27  0.027  0.003  0.008  0.038
   28  0.019  0.002  0.000  0.022
   29  0.000  0.002  0.004  0.006
   30  0.000  0.002  0.004  0.006
   31  0.000  0.002  0.004  0.006
   32  0.000  0.002  0.004  0.006
   33  0.000  0.002  0.004  0.006
   34  0.000  0.002  0.004  0.006
   35  0.011  0.002  0.002  0.016
   36  0.000  0.000  0.000  0.000
   37  0.000  0.000  0.000  0.000
tot    0.343  0.113  0.183  0.639
 
band    11 # energy   -5.13353721 # occ.  2.00000000
 
ion      s      p      d    tot
    1  0.012  0.000  0.008  0.020
    2  0.006  0.001  0.011  0.018
    3  0.006  0.001  0.011  0.018
    4  0.006  0.001  0.011  0.018
    5  0.002  0.003  0.010  0.015
    6  0.006  0.001  0.011  0.018
    7  0.006  0.001  0.011  0.018
    8  0.006  0.001  0.011  0.018
    9  0.024  0.000  0.005  0.029
   10  0.005  0.000  0.023  0.029
   11  0.022  0.002  0.015  0.039
   12  0.005  0.000  0.023  0.029
   13  0.022  0.002  0.015  0.039
   14  0.022  0.002  0.015  0.039
   15  0.000  0.001  0.018  0.019
   16  0.005  0.000  0.023  0.029
   17  0.000  0.001  0.018  0.019
   18  0.000  0.001  0.018  0.019
   19  0.001  0.000  0.010  0.011
   20  0.008  0.004  0.035  0.047
   21  0.008  0.004  0.035  0.047
   22  0.002  0.000  0.012  0.014
   23  0.008  0.004  0.035  0.047
   24  0.002  0.000  0.012  0.014
   25  0.001  0.000  0.010  0.011
   26  0.001  0.000  0.010  0.011
   27  0.002  0.000  0.012  0.014
   28  0.003  0.000  0.002  0.005
   29  0.002  0.000  0.004  0.006
   30  0.002  0.000  0.004  0.006
   31  0.002  0.000  0.004  0.006
   32  0.002  0.000  0.004  0.006
   33  0.002  0.000  0.004  0.006
   34  0.002  0.000  0.004  0.006
   35  0.004  0.000  0.002  0.006
   36  0.005  0.005  0.041  0.051
   37  0.005  0.016  0.000  0.021
tot    0.210  0.056  0.497  0.762
 
band    12 # energy   -5.08538277 # occ.  2.00000000
 
ion      s      p      d    tot
    1  0.000  0.000  0.009  0.009
    2  0.016  0.003  0.004  0.024
    3  0.009  0.002  0.004  0.015
    4  0.016  0.003  0.004  0.024
    5  0.000  0.003  0.008  0.010
    6  0.001  0.001  0.004  0.007
    7  0.009  0.002  0.004  0.015
    8  0.001  0.001  0.004  0.007
    9  0.000  0.005  0.008  0.013
   10  0.000  0.004  0.012  0.016
   11  0.016  0.003  0.008  0.026
   12  0.000  0.001  0.008  0.009
   13  0.015  0.003  0.008  0.026
   14  0.000  0.000  0.018  0.019
   15  0.014  0.002  0.008  0.024
   16  0.000  0.001  0.008  0.009
   17  0.014  0.002  0.008  0.024
   18  0.000  0.003  0.016  0.019
   19  0.003  0.002  0.009  0.014
   20  0.000  0.003  0.048  0.052
   21  0.002  0.001  0.019  0.022
   22  0.009  0.005  0.010  0.024
   23  0.002  0.001  0.018  0.022
   24  0.000  0.000  0.021  0.021
   25  0.000  0.000  0.007  0.007
   26  0.003  0.002  0.008  0.014
   27  0.009  0.005  0.010  0.024
   28  0.000  0.001  0.008  0.009
   29  0.022  0.004  0.008  0.034
   30  0.004  0.003  0.012  0.019
   31  0.022  0.003  0.008  0.034
   32  0.007  0.001  0.008  0.016
   33  0.004  0.003  0.012  0.019
   34  0.007  0.001  0.008  0.016
   35  0.000  0.005  0.005  0.010
   36  0.000  0.002  0.057  0.059
   37  0.000  0.004  0.000  0.004
tot    0.206  0.089  0.420  0.716
 
band    13 # energy   -5.08531308 # occ.  2.00000000
 
ion      s      p      d    tot
    1  0.000  0.000  0.009  0.009
    2  0.001  0.001  0.004  0.006
    3  0.009  0.002  0.004  0.015
    4  0.001  0.001  0.004  0.007
    5  0.000  0.003  0.008  0.010
    6  0.016  0.003  0.004  0.024
    7  0.009  0.002  0.004  0.016
    8  0.016  0.003  0.004  0.024
    9  0.000  0.005  0.008  0.013
   10  0.000  0.000  0.007  0.007
   11  0.005  0.001  0.015  0.021
   12  0.000  0.003  0.011  0.014
   13  0.005  0.001  0.015  0.021
   14  0.021  0.004  0.005  0.029
   15  0.005  0.003  0.014  0.021
   16  0.000  0.003  0.011  0.014
   17  0.005  0.003  0.013  0.021
   18  0.019  0.002  0.005  0.026
   19  0.001  0.001  0.007  0.009
   20  0.003  0.001  0.009  0.012
   21  0.001  0.003  0.038  0.041
   22  0.003  0.002  0.017  0.022
   23  0.001  0.003  0.039  0.042
   24  0.012  0.006  0.006  0.025
   25  0.004  0.003  0.009  0.016
   26  0.001  0.001  0.007  0.009
   27  0.003  0.002  0.017  0.022
   28  0.000  0.001  0.008  0.009
   29  0.000  0.001  0.011  0.012
   30  0.018  0.002  0.007  0.027
   31  0.000  0.001  0.011  0.012
   32  0.015  0.004  0.011  0.030
   33  0.018  0.002  0.007  0.027
   34  0.015  0.004  0.011  0.030
   35  0.000  0.005  0.005  0.010
   36  0.000  0.002  0.057  0.060
   37  0.000  0.004  0.000  0.004
tot    0.206  0.089  0.420  0.716
 
band    14 # energy   -5.04565636 # occ.  2.00000000
 
ion      s      p      d    tot
    1  0.006  0.002  0.004  0.012
    2  0.002  0.002  0.009  0.013
    3  0.002  0.002  0.009  0.013
    4  0.002  0.002  0.009  0.013
    5  0.043  0.002  0.001  0.046
    6  0.002  0.002  0.009  0.013
    7  0.002  0.002  0.009  0.013
    8  0.002  0.002  0.009  0.013
    9  0.000  0.001  0.004  0.005
   10  0.008  0.002  0.016  0.026
   11  0.003  0.003  0.014  0.020
   12  0.008  0.002  0.016  0.026
   13  0.003  0.003  0.014  0.020
   14  0.003  0.003  0.014  0.020
   15  0.009  0.000  0.016  0.025
   16  0.008  0.002  0.016  0.026
   17  0.009  0.000  0.016  0.025
   18  0.009  0.000  0.016  0.025
   19  0.011  0.002  0.009  0.023
   20  0.001  0.003  0.028  0.031
   21  0.001  0.003  0.028  0.031
   22  0.001  0.000  0.015  0.017
   23  0.001  0.003  0.028  0.031
   24  0.001  0.000  0.015  0.017
   25  0.011  0.002  0.009  0.023
   26  0.011  0.002  0.009  0.023
   27  0.001  0.000  0.015  0.017
   28  0.010  0.002  0.002  0.015
   29  0.001  0.003  0.012  0.016
   30  0.001  0.003  0.012  0.016
   31  0.001  0.003  0.012  0.016
   32  0.001  0.003  0.012  0.016
   33  0.001  0.003  0.012  0.016
   34  0.001  0.003  0.012  0.016
   35  0.001  0.001  0.001  0.003
   36  0.053  0.004  0.005  0.062
   37  0.003  0.002  0.000  0.005
tot    0.232  0.077  0.442  0.751
 
band    15 # energy   -5.03802251 # occ.  2.00000000
 
ion      s      p      d    tot
    1  0.000  0.006  0.009  0.016
    2  0.022  0.004  0.006  0.032
    3  0.010  0.003  0.005  0.019
    4  0.022  0.004  0.006  0.032
    5  0.000  0.004  0.012  0.015
    6  0.002  0.002  0.006  0.010
    7  0.010  0.003  0.005  0.018
    8  0.002  0.002  0.006  0.010
    9  0.000  0.000  0.012  0.012
   10  0.030  0.005  0.006  0.042
   11  0.002  0.004  0.017  0.023
   12  0.008  0.002  0.020  0.030
   13  0.002  0.004  0.017  0.023
   14  0.009  0.001  0.007  0.016
   15  0.002  0.002  0.014  0.018
   16  0.008  0.002  0.020  0.030
   17  0.002  0.002  0.014  0.018
   18  0.007  0.002  0.008  0.017
   19  0.002  0.002  0.019  0.023
   20  0.014  0.007  0.007  0.028
   21  0.003  0.002  0.015  0.020
   22  0.000  0.001  0.012  0.013
   23  0.003  0.002  0.015  0.020
   24  0.000  0.000  0.007  0.008
   25  0.008  0.003  0.003  0.014
   26  0.002  0.002  0.019  0.023
   27  0.000  0.001  0.012  0.013
   28  0.000  0.004  0.006  0.010
   29  0.016  0.004  0.007  0.027
   30  0.010  0.002  0.005  0.017
   31  0.016  0.004  0.007  0.027
   32  0.001  0.001  0.008  0.010
   33  0.010  0.002  0.005  0.017
   34  0.001  0.001  0.008  0.010
   35  0.000  0.000  0.009  0.009
   36  0.000  0.004  0.034  0.038
   37  0.000  0.002  0.000  0.002
tot    0.223  0.096  0.390  0.710
 
band    16 # energy   -5.03792666 # occ.  2.00000000
 
ion      s      p      d    tot
    1  0.000  0.006  0.009  0.016
    2  0.001  0.002  0.005  0.008
    3  0.013  0.003  0.006  0.022
    4  0.001  0.002  0.005  0.008
    5  0.000  0.004  0.012  0.015
    6  0.021  0.004  0.006  0.031
    7  0.013  0.003  0.006  0.022
    8  0.021  0.004  0.006  0.031
    9  0.000  0.000  0.012  0.012
   10  0.000  0.001  0.025  0.026
   11  0.006  0.002  0.010  0.019
   12  0.023  0.004  0.011  0.038
   13  0.006  0.002  0.010  0.019
   14  0.000  0.005  0.021  0.026
   15  0.005  0.002  0.010  0.017
   16  0.023  0.004  0.011  0.038
   17  0.005  0.002  0.010  0.017
   18  0.000  0.002  0.016  0.018
   19  0.006  0.003  0.009  0.017
   20  0.000  0.000  0.018  0.018
   21  0.010  0.005  0.010  0.025
   22  0.000  0.001  0.009  0.010
   23  0.010  0.005  0.010  0.025
   24  0.000  0.002  0.013  0.015
   25  0.000  0.001  0.024  0.025
   26  0.006  0.003  0.009  0.017
   27  0.000  0.001  0.009  0.009
   28  0.000  0.004  0.006  0.010
   29  0.002  0.001  0.006  0.008
   30  0.008  0.003  0.008  0.019
   31  0.002  0.001  0.006  0.008
   32  0.017  0.003  0.006  0.026
   33  0.008  0.003  0.008  0.019
   34  0.017  0.003  0.006  0.026
   35  0.000  0.000  0.009  0.009
   36  0.000  0.004  0.034  0.038
   37  0.000  0.002  0.000  0.002
tot    0.223  0.096  0.390  0.710
 
band    17 # energy   -4.97775261 # occ.  2.00000000
 
ion      s      p      d    tot
    1  0.028  0.002  0.000  0.030
    2  0.000  0.003  0.010  0.013
    3  0.000  0.003  0.010  0.013
    4  0.000  0.003  0.010  0.013
    5  0.003  0.000  0.001  0.003
    6  0.000  0.003  0.010  0.013
    7  0.000  0.003  0.010  0.013
    8  0.000  0.003  0.010  0.013
    9  0.032  0.004  0.001  0.038
   10  0.006  0.003  0.010  0.019
   11  0.000  0.000  0.018  0.019
   12  0.006  0.003  0.010  0.019
   13  0.000  0.000  0.018  0.019
   14  0.000  0.000  0.018  0.019
   15  0.010  0.004  0.016  0.030
   16  0.006  0.003  0.010  0.019
   17  0.010  0.004  0.016  0.030
   18  0.010  0.004  0.016  0.030
   19  0.003  0.003  0.018  0.023
   20  0.000  0.000  0.015  0.016
   21  0.000  0.000  0.015  0.016
   22  0.014  0.004  0.011  0.029
   23  0.000  0.000  0.015  0.016
   24  0.014  0.004  0.011  0.029
   25  0.003  0.003  0.018  0.023
   26  0.003  0.003  0.018  0.023
   27  0.014  0.004  0.011  0.029
   28  0.030  0.002  0.000  0.033
   29  0.000  0.003  0.010  0.013
   30  0.000  0.003  0.010  0.013
   31  0.000  0.003  0.010  0.013
   32  0.000  0.003  0.010  0.013
   33  0.000  0.003  0.010  0.013
   34  0.000  0.003  0.010  0.013
   35  0.030  0.004  0.002  0.036
   36  0.001  0.000  0.000  0.001
   37  0.000  0.000  0.000  0.000
tot    0.225  0.089  0.394  0.708
 
band    18 # energy   -4.51119097 # occ.  2.00000000
 
ion      s      p      d    tot
    1  0.000  0.001  0.014  0.015
    2  0.001  0.001  0.004  0.005
    3  0.008  0.001  0.004  0.013
    4  0.000  0.001  0.004  0.005
    5  0.000  0.000  0.008  0.008
    6  0.009  0.001  0.004  0.015
    7  0.006  0.001  0.004  0.011
    8  0.007  0.001  0.004  0.012
    9  0.000  0.002  0.003  0.005
   10  0.000  0.000  0.003  0.003
   11  0.000  0.001  0.005  0.006
   12  0.000  0.000  0.025  0.025
   13  0.000  0.000  0.003  0.003
   14  0.000  0.003  0.011  0.013
   15  0.000  0.002  0.013  0.015
   16  0.000  0.000  0.018  0.018
   17  0.000  0.001  0.016  0.017
   18  0.000  0.004  0.004  0.009
   19  0.001  0.002  0.011  0.013
   20  0.000  0.001  0.029  0.030
   21  0.000  0.000  0.046  0.046
   22  0.001  0.000  0.011  0.012
   23  0.000  0.000  0.041  0.041
   24  0.007  0.000  0.011  0.018
   25  0.001  0.002  0.002  0.005
   26  0.000  0.002  0.015  0.016
   27  0.003  0.000  0.011  0.014
   28  0.000  0.002  0.005  0.007
   29  0.017  0.002  0.017  0.036
   30  0.003  0.001  0.011  0.014
   31  0.018  0.002  0.015  0.034
   32  0.002  0.000  0.016  0.019
   33  0.007  0.001  0.011  0.019
   34  0.006  0.001  0.018  0.025
   35  0.000  0.000  0.020  0.020
   36  0.000  0.007  0.133  0.139
   37  0.000  0.066  0.000  0.066
tot    0.098  0.109  0.567  0.774
 
band    19 # energy   -4.51118575 # occ.  2.00000000
 
ion      s      p      d    tot
    1  0.000  0.001  0.014  0.015
    2  0.010  0.001  0.004  0.015
    3  0.002  0.001  0.004  0.007
    4  0.010  0.001  0.004  0.015
    5  0.000  0.000  0.008  0.008
    6  0.001  0.001  0.004  0.006
    7  0.005  0.001  0.004  0.010
    8  0.003  0.001  0.004  0.008
    9  0.000  0.002  0.003  0.005
   10  0.000  0.000  0.028  0.028
   11  0.000  0.002  0.007  0.009
   12  0.000  0.000  0.006  0.006
   13  0.000  0.002  0.009  0.012
   14  0.000  0.000  0.002  0.002
   15  0.000  0.003  0.009  0.012
   16  0.000  0.000  0.012  0.013
   17  0.000  0.004  0.006  0.010
   18  0.000  0.000  0.018  0.018
   19  0.001  0.002  0.007  0.010
   20  0.000  0.000  0.048  0.048
   21  0.000  0.001  0.031  0.032
   22  0.006  0.000  0.011  0.017
   23  0.000  0.001  0.036  0.037
   24  0.000  0.000  0.011  0.011
   25  0.000  0.002  0.016  0.018
   26  0.001  0.002  0.004  0.007
   27  0.004  0.000  0.011  0.016
   28  0.000  0.002  0.005  0.007
   29  0.000  0.000  0.012  0.013
   30  0.015  0.002  0.018  0.035
   31  0.000  0.000  0.014  0.015
   32  0.016  0.002  0.013  0.030
   33  0.011  0.001  0.018  0.030
   34  0.011  0.001  0.011  0.024
   35  0.000  0.000  0.020  0.020
   36  0.000  0.007  0.133  0.139
   37  0.000  0.066  0.000  0.066
tot    0.098  0.109  0.567  0.774
 
band    20 # energy   -4.42118843 # occ.  2.00000000
 
ion      s      p      d    tot
    1  0.000  0.000  0.012  0.012
    2  0.005  0.001  0.004  0.009
    3  0.006  0.001  0.003  0.010
    4  0.005  0.001  0.004  0.009
    5  0.000  0.001  0.002  0.003
    6  0.000  0.000  0.003  0.004
    7  0.006  0.001  0.003  0.010
    8  0.000  0.000  0.003  0.004
    9  0.000  0.001  0.006  0.007
   10  0.000  0.000  0.025  0.025
   11  0.000  0.002  0.008  0.010
   12  0.000  0.000  0.013  0.014
   13  0.000  0.002  0.008  0.010
   14  0.000  0.000  0.004  0.004
   15  0.000  0.001  0.007  0.009
   16  0.000  0.000  0.013  0.013
   17  0.000  0.001  0.007  0.009
   18  0.000  0.000  0.018  0.018
   19  0.005  0.001  0.011  0.016
   20  0.000  0.000  0.022  0.023
   21  0.000  0.001  0.041  0.042
   22  0.000  0.002  0.009  0.011
   23  0.000  0.001  0.041  0.042
   24  0.000  0.001  0.000  0.001
   25  0.000  0.001  0.029  0.029
   26  0.005  0.001  0.011  0.017
   27  0.000  0.002  0.009  0.011
   28  0.000  0.000  0.031  0.031
   29  0.013  0.002  0.021  0.036
   30  0.012  0.002  0.024  0.038
   31  0.013  0.002  0.021  0.036
   32  0.000  0.000  0.020  0.020
   33  0.012  0.001  0.024  0.038
   34  0.000  0.000  0.020  0.020
   35  0.000  0.002  0.005  0.007
   36  0.000  0.007  0.133  0.140
   37  0.000  0.058  0.000  0.058
tot    0.083  0.096  0.616  0.795
 
band    21 # energy   -4.42117310 # occ.  2.00000000
 
ion      s      p      d    tot
    1  0.000  0.000  0.012  0.012
    2  0.002  0.000  0.003  0.006
    3  0.001  0.000  0.004  0.005
    4  0.002  0.000  0.003  0.006
    5  0.000  0.001  0.002  0.003
    6  0.007  0.001  0.004  0.011
    7  0.001  0.000  0.004  0.005
    8  0.007  0.001  0.004  0.011
    9  0.000  0.001  0.006  0.007
   10  0.000  0.000  0.009  0.010
   11  0.000  0.001  0.005  0.006
   12  0.000  0.000  0.021  0.021
   13  0.000  0.001  0.005  0.006
   14  0.000  0.003  0.010  0.012
   15  0.000  0.000  0.014  0.015
   16  0.000  0.000  0.021  0.021
   17  0.000  0.001  0.014  0.015
   18  0.000  0.002  0.003  0.006
   19  0.002  0.001  0.023  0.025
   20  0.000  0.001  0.047  0.049
   21  0.000  0.000  0.029  0.029
   22  0.000  0.001  0.003  0.005
   23  0.000  0.000  0.028  0.029
   24  0.000  0.003  0.012  0.015
   25  0.007  0.001  0.005  0.012
   26  0.002  0.001  0.022  0.025
   27  0.000  0.001  0.003  0.004
   28  0.000  0.000  0.031  0.031
   29  0.003  0.000  0.023  0.027
   30  0.005  0.001  0.019  0.025
   31  0.004  0.000  0.023  0.027
   32  0.017  0.002  0.024  0.043
   33  0.005  0.001  0.019  0.025
   34  0.017  0.002  0.023  0.043
   35  0.000  0.002  0.005  0.007
   36  0.000  0.007  0.133  0.140