PROCAR new format
# of k-points:   10         # of bands:  252         # of ions:   38

 k-point     1 :    0.00000000 0.00000000 0.00000000     weight = 0.01562500

band     1 # energy  -22.47463245 # occ.  2.00000000
 
ion      s      p      d    tot
    1  0.000  0.000  0.000  0.000
    2  0.000  0.000  0.000  0.000
    3  0.000  0.000  0.000  0.000
    4  0.000  0.000  0.000  0.000
    5  0.000  0.000  0.000  0.000
    6  0.000  0.000  0.000  0.000
    7  0.000  0.000  0.000  0.000
    8  0.000  0.000  0.000  0.000
    9  0.000  0.000  0.000  0.000
   10  0.000  0.000  0.000  0.000
   11  0.000  0.000  0.000  0.000
   12  0.000  0.000  0.000  0.000
   13  0.000  0.000  0.000  0.000
   14  0.000  0.000  0.000  0.000
   15  0.000  0.000  0.000  0.000
   16  0.000  0.000  0.000  0.000
   17  0.000  0.000  0.000  0.000
   18  0.000  0.000  0.000  0.000
   19  0.000  0.000  0.000  0.000
   20  0.000  0.000  0.000  0.000
   21  0.000  0.000  0.000  0.000
   22  0.000  0.000  0.000  0.000
   23  0.000  0.000  0.000  0.000
   24  0.000  0.000  0.000  0.000
   25  0.000  0.000  0.000  0.000
   26  0.000  0.000  0.000  0.000
   27  0.000  0.000  0.000  0.000
   28  0.000  0.000  0.000  0.000
   29  0.000  0.000  0.000  0.000
   30  0.000  0.000  0.000  0.000
   31  0.000  0.000  0.000  0.000
   32  0.000  0.000  0.000  0.000
   33  0.000  0.000  0.000  0.000
   34  0.000  0.000  0.000  0.000
   35  0.000  0.000  0.000  0.000
   36  0.000  0.000  0.000  0.001
   37  0.161  0.115  0.000  0.276
   38  0.634  0.096  0.000  0.730
tot    0.795  0.211  0.000  1.007
 
band     2 # energy   -8.96529225 # occ.  2.00000000
 
ion      s      p      d    tot
    1  0.000  0.000  0.000  0.000
    2  0.000  0.000  0.000  0.000
    3  0.000  0.000  0.000  0.000
    4  0.000  0.000  0.000  0.000
    5  0.000  0.000  0.000  0.000
    6  0.000  0.000  0.000  0.000
    7  0.000  0.000  0.000  0.000
    8  0.000  0.000  0.000  0.000
    9  0.000  0.000  0.000  0.000
   10  0.000  0.000  0.000  0.001
   11  0.000  0.000  0.000  0.000
   12  0.000  0.000  0.000  0.001
   13  0.000  0.000  0.000  0.000
   14  0.000  0.000  0.000  0.000
   15  0.000  0.000  0.000  0.000
   16  0.000  0.000  0.000  0.001
   17  0.000  0.000  0.000  0.000
   18  0.000  0.000  0.000  0.000
   19  0.001  0.000  0.000  0.001
   20  0.005  0.001  0.002  0.007
   21  0.005  0.001  0.002  0.007
   22  0.001  0.000  0.000  0.001
   23  0.005  0.001  0.002  0.007
   24  0.001  0.000  0.000  0.001
   25  0.001  0.000  0.000  0.001
   26  0.001  0.000  0.000  0.001
   27  0.001  0.000  0.000  0.001
   28  0.000  0.000  0.000  0.000
   29  0.002  0.000  0.001  0.003
   30  0.002  0.000  0.001  0.003
   31  0.002  0.000  0.001  0.003
   32  0.002  0.000  0.001  0.003
   33  0.002  0.000  0.001  0.003
   34  0.002  0.000  0.001  0.003
   35  0.000  0.000  0.000  0.000
   36  0.113  0.035  0.145  0.293
   37  0.268  0.044  0.000  0.312
   38  0.091  0.078  0.000  0.169
tot    0.508  0.160  0.155  0.823
 
band     3 # energy   -8.03441899 # occ.  2.00000000
 
ion      s      p      d    tot
    1  0.007  0.001  0.000  0.007
    2  0.007  0.001  0.000  0.007
    3  0.007  0.001  0.000  0.007
    4  0.007  0.001  0.000  0.007
    5  0.007  0.001  0.000  0.007
    6  0.007  0.001  0.000  0.007
    7  0.007  0.001  0.000  0.007
    8  0.007  0.001  0.000  0.007
    9  0.007  0.001  0.000  0.007
   10  0.027  0.000  0.000  0.027
   11  0.027  0.000  0.000  0.027
   12  0.027  0.000  0.000  0.027
   13  0.027  0.000  0.000  0.027
   14  0.027  0.000  0.000  0.027
   15  0.027  0.000  0.000  0.027
   16  0.027  0.000  0.000  0.027
   17  0.027  0.000  0.000  0.027
   18  0.027  0.000  0.000  0.027
   19  0.022  0.000  0.000  0.023
   20  0.022  0.000  0.000  0.023
   21  0.022  0.000  0.000  0.023
   22  0.023  0.000  0.000  0.024
   23  0.022  0.000  0.000  0.023
   24  0.023  0.000  0.000  0.024
   25  0.022  0.000  0.000  0.023
   26  0.022  0.000  0.000  0.023
   27  0.023  0.000  0.000  0.024
   28  0.004  0.000  0.000  0.005
   29  0.004  0.000  0.000  0.004
   30  0.004  0.000  0.000  0.004
   31  0.004  0.000  0.000  0.004
   32  0.004  0.000  0.000  0.004
   33  0.004  0.000  0.000  0.004
   34  0.004  0.000  0.000  0.004
   35  0.004  0.000  0.000  0.005
   36  0.000  0.005  0.005  0.011
   37  0.015  0.000  0.000  0.015
   38  0.007  0.012  0.000  0.019
tot    0.557  0.028  0.009  0.594
 
band     4 # energy   -6.89706409 # occ.  2.00000000
 
ion      s      p      d    tot
    1  0.016  0.000  0.001  0.017
    2  0.015  0.000  0.001  0.017
    3  0.015  0.000  0.001  0.017
    4  0.015  0.000  0.001  0.017
    5  0.015  0.000  0.001  0.016
    6  0.015  0.000  0.001  0.017
    7  0.015  0.000  0.001  0.017
    8  0.015  0.000  0.001  0.017
    9  0.016  0.000  0.001  0.017
   10  0.010  0.001  0.002  0.014
   11  0.009  0.001  0.002  0.013
   12  0.010  0.001  0.002  0.014
   13  0.009  0.001  0.002  0.013
   14  0.009  0.001  0.002  0.013
   15  0.010  0.001  0.002  0.014
   16  0.010  0.001  0.002  0.014
   17  0.010  0.001  0.002  0.014
   18  0.010  0.001  0.002  0.014
   19  0.012  0.001  0.003  0.016
   20  0.014  0.001  0.003  0.018
   21  0.014  0.001  0.003  0.018
   22  0.012  0.001  0.003  0.016
   23  0.014  0.001  0.003  0.018
   24  0.012  0.001  0.003  0.016
   25  0.012  0.001  0.003  0.016
   26  0.012  0.001  0.003  0.016
   27  0.012  0.001  0.003  0.016
   28  0.012  0.000  0.000  0.013
   29  0.013  0.000  0.001  0.014
   30  0.013  0.000  0.001  0.014
   31  0.013  0.000  0.001  0.014
   32  0.013  0.000  0.001  0.014
   33  0.013  0.000  0.001  0.014
   34  0.013  0.000  0.001  0.014
   35  0.012  0.000  0.000  0.013
   36  0.017  0.001  0.000  0.019
   37  0.007  0.007  0.000  0.014
   38  0.012  0.043  0.000  0.055
tot    0.479  0.081  0.061  0.621
 
band     5 # energy   -6.32122323 # occ.  2.00000000
 
ion      s      p      d    tot
    1  0.004  0.000  0.000  0.004
    2  0.001  0.000  0.001  0.002
    3  0.001  0.000  0.001  0.002
    4  0.001  0.000  0.001  0.002
    5  0.002  0.000  0.000  0.002
    6  0.001  0.000  0.001  0.002
    7  0.001  0.000  0.001  0.002
    8  0.001  0.000  0.001  0.002
    9  0.000  0.000  0.001  0.001
   10  0.001  0.000  0.003  0.004
   11  0.001  0.000  0.001  0.002
   12  0.001  0.000  0.003  0.004
   13  0.001  0.000  0.001  0.002
   14  0.001  0.000  0.001  0.002
   15  0.002  0.001  0.001  0.003
   16  0.001  0.000  0.003  0.004
   17  0.002  0.001  0.001  0.003
   18  0.002  0.001  0.001  0.003
   19  0.005  0.000  0.005  0.009
   20  0.002  0.001  0.016  0.019
   21  0.002  0.001  0.016  0.019
   22  0.011  0.000  0.001  0.012
   23  0.002  0.001  0.016  0.019
   24  0.011  0.000  0.001  0.012
   25  0.005  0.000  0.005  0.009
   26  0.005  0.000  0.005  0.009
   27  0.011  0.000  0.001  0.012
   28  0.003  0.000  0.000  0.003
   29  0.000  0.000  0.001  0.002
   30  0.000  0.000  0.001  0.002
   31  0.000  0.000  0.001  0.002
   32  0.000  0.000  0.001  0.002
   33  0.000  0.000  0.001  0.002
   34  0.000  0.000  0.001  0.002
   35  0.004  0.000  0.000  0.005
   36  0.051  0.004  0.088  0.143
   37  0.001  0.139  0.000  0.141
   38  0.056  0.321  0.000  0.377
tot    0.195  0.477  0.179  0.851
 
band     6 # energy   -5.93318704 # occ.  2.00000000
 
ion      s      p      d    tot
    1  0.015  0.000  0.023  0.037
    2  0.020  0.000  0.019  0.038
    3  0.020  0.000  0.019  0.039
    4  0.020  0.000  0.019  0.038
    5  0.015  0.000  0.018  0.032
    6  0.020  0.000  0.018  0.039
    7  0.020  0.000  0.019  0.039
    8  0.020  0.000  0.018  0.039
    9  0.033  0.000  0.015  0.048
   10  0.011  0.001  0.019  0.031
   11  0.013  0.001  0.017  0.032
   12  0.011  0.001  0.020  0.031
   13  0.013  0.001  0.017  0.032
   14  0.013  0.001  0.017  0.031
   15  0.001  0.001  0.023  0.024
   16  0.011  0.001  0.020  0.031
   17  0.001  0.001  0.023  0.024
   18  0.001  0.001  0.023  0.024
   19  0.000  0.001  0.003  0.003
   20  0.004  0.001  0.002  0.007
   21  0.003  0.001  0.002  0.007
   22  0.001  0.001  0.001  0.003
   23  0.003  0.001  0.002  0.007
   24  0.001  0.001  0.001  0.003
   25  0.000  0.001  0.003  0.003
   26  0.000  0.001  0.003  0.003
   27  0.001  0.001  0.001  0.003
   28  0.006  0.000  0.001  0.007
   29  0.004  0.000  0.002  0.006
   30  0.004  0.000  0.002  0.006
   31  0.004  0.000  0.002  0.006
   32  0.004  0.000  0.002  0.006
   33  0.004  0.000  0.002  0.006
   34  0.004  0.000  0.002  0.006
   35  0.007  0.000  0.001  0.008
   36  0.001  0.001  0.001  0.003
   37  0.000  0.001  0.000  0.001
   38  0.000  0.002  0.000  0.002
tot    0.308  0.020  0.377  0.704
 
band     7 # energy   -5.92647575 # occ.  2.00000000
 
ion      s      p      d    tot
    1  0.000  0.001  0.009  0.010
    2  0.004  0.001  0.003  0.008
    3  0.000  0.000  0.003  0.003
    4  0.004  0.001  0.003  0.008
    5  0.000  0.001  0.005  0.006
    6  0.006  0.001  0.003  0.010
    7  0.000  0.000  0.003  0.003
    8  0.005  0.001  0.003  0.010
    9  0.000  0.000  0.002  0.002
   10  0.046  0.002  0.005  0.053
   11  0.010  0.003  0.016  0.029
   12  0.012  0.001  0.030  0.042
   13  0.010  0.003  0.016  0.029
   14  0.042  0.001  0.013  0.055
   15  0.000  0.002  0.009  0.012
   16  0.012  0.001  0.030  0.042
   17  0.000  0.002  0.009  0.012
   18  0.000  0.001  0.011  0.011
   19  0.005  0.003  0.008  0.015
   20  0.062  0.002  0.008  0.072
   21  0.016  0.001  0.030  0.047
   22  0.002  0.001  0.017  0.020
   23  0.015  0.001  0.030  0.046
   24  0.009  0.001  0.006  0.016
   25  0.018  0.000  0.014  0.032
   26  0.005  0.003  0.008  0.015
   27  0.002  0.001  0.017  0.020
   28  0.000  0.000  0.002  0.002
   29  0.005  0.001  0.004  0.010
   30  0.003  0.001  0.003  0.006
   31  0.005  0.001  0.004  0.010
   32  0.000  0.000  0.003  0.003
   33  0.002  0.001  0.003  0.006
   34  0.000  0.000  0.003  0.003
   35  0.000  0.000  0.003  0.003
   36  0.000  0.002  0.015  0.017
   37  0.000  0.003  0.000  0.003
   38  0.000  0.004  0.000  0.004
tot    0.301  0.048  0.347  0.696
 
band     8 # energy   -5.92641163 # occ.  2.00000000
 
ion      s      p      d    tot
    1  0.000  0.001  0.009  0.010
    2  0.002  0.001  0.003  0.006
    3  0.007  0.001  0.003  0.011
    4  0.002  0.001  0.003  0.006
    5  0.000  0.001  0.005  0.006
    6  0.001  0.000  0.003  0.004
    7  0.007  0.001  0.003  0.011
    8  0.001  0.000  0.003  0.004
    9  0.000  0.000  0.002  0.002
   10  0.000  0.000  0.038  0.038
   11  0.031  0.001  0.014  0.047
   12  0.035  0.002  0.013  0.050
   13  0.031  0.001  0.014  0.046
   14  0.000  0.004  0.017  0.021
   15  0.000  0.001  0.010  0.011
   16  0.035  0.002  0.013  0.050
   17  0.000  0.001  0.010  0.011
   18  0.000  0.003  0.009  0.012
   19  0.014  0.001  0.012  0.026
   20  0.000  0.001  0.037  0.038
   21  0.046  0.001  0.015  0.063
   22  0.006  0.001  0.010  0.018
   23  0.046  0.001  0.015  0.063
   24  0.000  0.001  0.021  0.022
   25  0.000  0.004  0.005  0.010
   26  0.014  0.001  0.012  0.026
   27  0.006  0.001  0.010  0.018
   28  0.000  0.000  0.002  0.002
   29  0.000  0.000  0.003  0.003
   30  0.003  0.001  0.003  0.007
   31  0.000  0.000  0.003  0.003
   32  0.005  0.001  0.003  0.009
   33  0.003  0.001  0.003  0.007
   34  0.005  0.001  0.003  0.009
   35  0.000  0.000  0.003  0.003
   36  0.000  0.002  0.015  0.017
   37  0.000  0.003  0.000  0.003
   38  0.000  0.004  0.000  0.004
tot    0.301  0.048  0.347  0.696
 
band     9 # energy   -5.88273622 # occ.  2.00000000
 
ion      s      p      d    tot
    1  0.013  0.001  0.000  0.015
    2  0.000  0.001  0.005  0.006
    3  0.000  0.001  0.006  0.006
    4  0.000  0.001  0.005  0.006
    5  0.008  0.001  0.003  0.012
    6  0.000  0.001  0.005  0.006
    7  0.000  0.001  0.006  0.006
    8  0.000  0.001  0.005  0.006
    9  0.000  0.000  0.000  0.000
   10  0.022  0.003  0.007  0.032
   11  0.018  0.000  0.021  0.039
   12  0.020  0.003  0.007  0.030
   13  0.018  0.000  0.021  0.039
   14  0.016  0.000  0.020  0.036
   15  0.002  0.002  0.017  0.021
   16  0.020  0.003  0.007  0.030
   17  0.002  0.002  0.017  0.021
   18  0.004  0.002  0.018  0.023
   19  0.033  0.003  0.002  0.038
   20  0.000  0.002  0.024  0.025
   21  0.000  0.002  0.021  0.023
   22  0.008  0.000  0.027  0.035
   23  0.000  0.002  0.021  0.023
   24  0.006  0.000  0.028  0.033
   25  0.029  0.003  0.002  0.034
   26  0.033  0.003  0.002  0.038
   27  0.008  0.000  0.027  0.035
   28  0.002  0.001  0.004  0.008
   29  0.002  0.000  0.006  0.008
   30  0.002  0.000  0.005  0.008
   31  0.002  0.000  0.006  0.008
   32  0.002  0.000  0.006  0.008
   33  0.002  0.000  0.005  0.008
   34  0.002  0.000  0.006  0.008
   35  0.015  0.001  0.000  0.016
   36  0.005  0.001  0.002  0.007
   37  0.000  0.002  0.000  0.002
   38  0.000  0.004  0.000  0.004
tot    0.295  0.043  0.363  0.701
 
band    10 # energy   -5.88147893 # occ.  2.00000000
 
ion      s      p      d    tot
    1  0.000  0.001  0.002  0.003
    2  0.005  0.001  0.003  0.009
    3  0.000  0.000  0.003  0.004
    4  0.005  0.001  0.003  0.009
    5  0.000  0.000  0.006  0.006
    6  0.007  0.001  0.004  0.012
    7  0.000  0.000  0.003  0.004
    8  0.007  0.001  0.004  0.012
    9  0.000  0.001  0.010  0.011
   10  0.000  0.005  0.002  0.006
   11  0.013  0.001  0.012  0.026
   12  0.010  0.001  0.013  0.024
   13  0.013  0.001  0.012  0.026
   14  0.000  0.001  0.031  0.032
   15  0.047  0.001  0.015  0.063
   16  0.011  0.001  0.013  0.025
   17  0.047  0.001  0.015  0.063
   18  0.000  0.002  0.037  0.038
   19  0.025  0.002  0.011  0.037
   20  0.000  0.003  0.006  0.009
   21  0.001  0.001  0.012  0.014
   22  0.034  0.002  0.014  0.049
   23  0.001  0.001  0.012  0.014
   24  0.000  0.003  0.023  0.026
   25  0.000  0.000  0.035  0.035
   26  0.024  0.002  0.011  0.037
   27  0.034  0.001  0.013  0.049
   28  0.000  0.000  0.006  0.006
   29  0.005  0.001  0.003  0.008
   30  0.004  0.001  0.003  0.007
   31  0.005  0.001  0.002  0.008
   32  0.000  0.000  0.002  0.002
   33  0.004  0.001  0.003  0.007
   34  0.000  0.000  0.002  0.002
   35  0.000  0.001  0.005  0.006
   36  0.000  0.000  0.001  0.001
   37  0.000  0.001  0.000  0.001
   38  0.000  0.003  0.000  0.003
tot    0.299  0.045  0.349  0.694
 
band    11 # energy   -5.88143153 # occ.  2.00000000
 
ion      s      p      d    tot
    1  0.000  0.001  0.002  0.003
    2  0.003  0.001  0.004  0.007
    3  0.008  0.001  0.003  0.013
    4  0.003  0.001  0.004  0.007
    5  0.000  0.000  0.006  0.006
    6  0.001  0.001  0.003  0.005
    7  0.008  0.001  0.003  0.013
    8  0.001  0.001  0.003  0.005
    9  0.000  0.001  0.010  0.011
   10  0.012  0.000  0.016  0.029
   11  0.003  0.001  0.024  0.029
   12  0.004  0.003  0.006  0.013
   13  0.004  0.001  0.024  0.029
   14  0.019  0.002  0.006  0.027
   15  0.016  0.002  0.030  0.047
   16  0.004  0.003  0.006  0.013
   17  0.017  0.002  0.029  0.048
   18  0.061  0.001  0.007  0.070
   19  0.006  0.001  0.027  0.034
   20  0.001  0.000  0.013  0.014
   21  0.000  0.002  0.009  0.011
   22  0.011  0.003  0.020  0.033
   23  0.000  0.002  0.009  0.011
   24  0.047  0.001  0.010  0.058
   25  0.036  0.002  0.003  0.041
   26  0.007  0.001  0.027  0.034
   27  0.010  0.003  0.020  0.033
   28  0.000  0.000  0.006  0.006
   29  0.001  0.000  0.002  0.003
   30  0.002  0.001  0.002  0.005
   31  0.001  0.000  0.002  0.003
   32  0.006  0.001  0.003  0.010
   33  0.002  0.001  0.002  0.005
   34  0.006  0.001  0.003  0.010
   35  0.000  0.001  0.005  0.006
   36  0.000  0.000  0.001  0.001
   37  0.000  0.001  0.000  0.001
   38  0.000  0.003  0.000  0.003
tot    0.299  0.045  0.349  0.694
 
band    12 # energy   -5.86468922 # occ.  2.00000000
 
ion      s      p      d    tot
    1  0.001  0.000  0.001  0.002
    2  0.001  0.000  0.005  0.006
    3  0.001  0.000  0.005  0.006
    4  0.001  0.000  0.005  0.006
    5  0.012  0.001  0.001  0.013
    6  0.001  0.000  0.005  0.006
    7  0.001  0.000  0.005  0.006
    8  0.001  0.000  0.005  0.006
    9  0.002  0.001  0.006  0.008
   10  0.003  0.001  0.017  0.021
   11  0.006  0.002  0.014  0.021
   12  0.003  0.001  0.017  0.021
   13  0.006  0.002  0.014  0.021
   14  0.006  0.002  0.014  0.021
   15  0.017  0.000  0.015  0.032
   16  0.003  0.001  0.017  0.021
   17  0.017  0.000  0.015  0.032
   18  0.017  0.000  0.015  0.032
   19  0.000  0.000  0.029  0.029
   20  0.025  0.001  0.012  0.039
   21  0.026  0.001  0.012  0.039
   22  0.001  0.001  0.023  0.025
   23  0.026  0.001  0.012  0.039
   24  0.001  0.001  0.023  0.025
   25  0.000  0.000  0.029  0.029
   26  0.000  0.000  0.029  0.029
   27  0.001  0.001  0.023  0.025
   28  0.018  0.000  0.004  0.021
   29  0.008  0.000  0.009  0.017
   30  0.008  0.000  0.009  0.017
   31  0.008  0.000  0.009  0.017
   32  0.008  0.000  0.009  0.017
   33  0.008  0.000  0.009  0.017
   34  0.008  0.000  0.009  0.017
   35  0.007  0.000  0.009  0.017
   36  0.004  0.005  0.001  0.009
   37  0.000  0.007  0.000  0.007
   38  0.002  0.015  0.000  0.017
tot    0.254  0.044  0.435  0.733
 
band    13 # energy   -5.80700776 # occ.  2.00000000
 
ion      s      p      d    tot
    1  0.007  0.000  0.000  0.007
    2  0.001  0.000  0.004  0.005
    3  0.001  0.000  0.004  0.005
    4  0.001  0.000  0.004  0.005
    5  0.004  0.000  0.001  0.005
    6  0.001  0.000  0.004  0.005
    7  0.001  0.000  0.004  0.005
    8  0.001  0.000  0.004  0.005
    9  0.006  0.001  0.002  0.009
   10  0.004  0.000  0.020  0.024
   11  0.004  0.002  0.007  0.012
   12  0.004  0.000  0.020  0.024
   13  0.004  0.002  0.007  0.012
   14  0.004  0.002  0.007  0.012
   15  0.021  0.002  0.006  0.029
   16  0.004  0.000  0.020  0.024
   17  0.021  0.002  0.006  0.029
   18  0.021  0.002  0.006  0.029
   19  0.001  0.001  0.012  0.014
   20  0.001  0.000  0.022  0.023
   21  0.001  0.000  0.022  0.023
   22  0.016  0.003  0.007  0.026
   23  0.001  0.000  0.022  0.023
   24  0.016  0.003  0.007  0.026
   25  0.001  0.001  0.012  0.014
   26  0.001  0.001  0.012  0.014
   27  0.016  0.003  0.007  0.026
   28  0.013  0.000  0.012  0.025
   29  0.013  0.000  0.010  0.023
   30  0.013  0.000  0.010  0.023
   31  0.013  0.000  0.010  0.023
   32  0.013  0.000  0.010  0.023
   33  0.013  0.000  0.010  0.023
   34  0.013  0.000  0.010  0.023
   35  0.006  0.000  0.011  0.017
   36  0.002  0.004  0.059  0.065
   37  0.002  0.022  0.000  0.024
   38  0.003  0.026  0.000  0.029
tot    0.263  0.080  0.392  0.735
 
band    14 # energy   -5.56649106 # occ.  2.00000000
 
ion      s      p      d    tot
    1  0.000  0.000  0.000  0.001
    2  0.001  0.000  0.000  0.001
    3  0.000  0.000  0.000  0.001
    4  0.001  0.000  0.000  0.001
    5  0.000  0.000  0.000  0.001
    6  0.000  0.000  0.000  0.001
    7  0.000  0.000  0.000  0.001
    8  0.000  0.000  0.000  0.001
    9  0.000  0.000  0.001  0.001
   10  0.002  0.000  0.001  0.003
   11  0.000  0.000  0.001  0.001
   12  0.001  0.000  0.003  0.004
   13  0.000  0.000  0.001  0.001
   14  0.001  0.000  0.001  0.002
   15  0.000  0.000  0.002  0.002
   16  0.001  0.000  0.003  0.004
   17  0.000  0.000  0.002  0.002
   18  0.001  0.000  0.001  0.001
   19  0.000  0.000  0.001  0.001
   20  0.000  0.000  0.002  0.003
   21  0.000  0.000  0.003  0.003
   22  0.000  0.000  0.001  0.001
   23  0.000  0.000  0.003  0.003
   24  0.000  0.000  0.001  0.001
   25  0.001  0.000  0.000  0.002
   26  0.000  0.000  0.001  0.001
   27  0.000  0.000  0.001  0.001
   28  0.000  0.000  0.001  0.001
   29  0.003  0.000  0.004  0.007
   30  0.000  0.000  0.001  0.002
   31  0.003  0.000  0.004  0.007
   32  0.001  0.001  0.004  0.005
   33  0.000  0.000  0.001  0.002
   34  0.001  0.001  0.004  0.005
   35  0.000  0.000  0.001  0.001
   36  0.000  0.004  0.067  0.071
   37  0.000  0.175  0.000  0.175
   38  0.000  0.362  0.000  0.362
tot    0.019  0.546  0.118  0.682
 
band    15 # energy   -5.56639556 # occ.  2.00000000
 
ion      s      p      d    tot
    1  0.000  0.000  0.000  0.001
    2  0.000  0.000  0.000  0.000
    3  0.001  0.000  0.000  0.001
    4  0.000  0.000  0.000  0.000
    5  0.000  0.000  0.000  0.001
    6  0.001  0.000  0.000  0.001
    7  0.001  0.000  0.000  0.001
    8  0.001  0.000  0.000  0.001
    9  0.000  0.000  0.001  0.001
   10  0.000  0.000  0.004  0.004
   11  0.001  0.000  0.001  0.002
   12  0.002  0.000  0.002  0.003
   13  0.001  0.000  0.001  0.002
   14  0.000  0.000  0.001  0.001
   15  0.000  0.000  0.001  0.002
   16  0.002  0.000  0.002  0.003
   17  0.000  0.000  0.001  0.002
   18  0.000  0.000  0.003  0.003
   19  0.001  0.000  0.000  0.001
   20  0.000  0.000  0.003  0.003
   21  0.000  0.000  0.003  0.003
   22  0.000  0.000  0.001  0.001
   23  0.000  0.000  0.003  0.003
   24  0.000  0.000  0.001  0.001
   25  0.000  0.000  0.001  0.001
   26  0.001  0.000  0.000  0.001
   27  0.000  0.000  0.001  0.001
   28  0.000  0.000  0.001  0.001
   29  0.000  0.000  0.002  0.002
   30  0.002  0.001  0.005  0.008
   31  0.000  0.000  0.002  0.002
   32  0.002  0.000  0.003  0.004
   33  0.002  0.001  0.005  0.008
   34  0.002  0.000  0.003  0.004
   35  0.000  0.000  0.001  0.001
   36  0.000  0.004  0.067  0.071
   37  0.000  0.175  0.000  0.175
   38  0.000  0.362  0.000  0.362
tot    0.019  0.546  0.118  0.682
 
band    16 # energy   -5.42401219 # occ.  2.00000000
 
ion      s      p      d    tot
    1  0.018  0.002  0.002  0.022
    2  0.000  0.001  0.008  0.009
    3  0.000  0.001  0.008  0.009
    4  0.000  0.001  0.008  0.009
    5  0.000  0.000  0.002  0.003
    6  0.000  0.001  0.008  0.009
    7  0.000  0.001  0.008  0.009
    8  0.000  0.001  0.008  0.009
    9  0.012  0.001  0.000  0.013
   10  0.009  0.002  0.011  0.021
   11  0.005  0.000  0.036  0.041
   12  0.009  0.002  0.011  0.021
   13  0.005  0.000  0.036  0.041
   14  0.005  0.000  0.036  0.041
   15  0.001  0.001  0.033  0.034
   16  0.009  0.002  0.011  0.021
   17  0.001  0.001  0.033  0.034
   18  0.001  0.001  0.033  0.034
   19  0.007  0.001  0.008  0.016
   20  0.000  0.000  0.044  0.045
   21  0.000  0.000  0.044  0.044
   22  0.011  0.001  0.027  0.040
   23  0.000  0.000  0.044  0.044
   24  0.011  0.001  0.027  0.039
   25  0.007  0.001  0.008  0.016
   26  0.007  0.001  0.008  0.016
   27  0.011  0.001  0.027  0.040
   28  0.015  0.002  0.000  0.017
   29  0.000  0.001  0.006  0.007
   30  0.000  0.001  0.006  0.007
   31  0.000  0.001  0.006  0.007
   32  0.000  0.001  0.006  0.007
   33  0.000  0.001  0.006  0.007
   34  0.000  0.001  0.006  0.007
   35  0.004  0.001  0.003  0.008
   36  0.002  0.000  0.003  0.005
   37  0.000  0.000  0.000  0.000
   38  0.000  0.000  0.000  0.000
tot    0.152  0.030  0.571  0.752
 
band    17 # energy   -5.42273313 # occ.  2.00000000
 
ion      s      p      d    tot
    1  0.000  0.001  0.004  0.004
    2  0.000  0.001  0.005  0.006
    3  0.008  0.001  0.004  0.014
    4  0.000  0.001  0.005  0.006
    5  0.000  0.001  0.010  0.012
    6  0.005  0.001  0.004  0.009
    7  0.008  0.001  0.004  0.014
    8  0.005  0.001  0.004  0.009
    9  0.000  0.000  0.008  0.008
   10  0.000  0.001  0.051  0.051
   11  0.015  0.001  0.020  0.036
   12  0.007  0.002  0.019  0.027
   13  0.015  0.001  0.021  0.037
   14  0.000  0.000  0.050  0.050
   15  0.002  0.000  0.020  0.022
   16  0.007  0.002  0.019  0.027
   17  0.002  0.000  0.020  0.022
   18  0.000  0.001  0.010  0.012
   19  0.006  0.000  0.019  0.026
   20  0.000  0.000  0.068  0.068
   21  0.017  0.001  0.021  0.039
   22  0.003  0.001  0.018  0.022
   23  0.017  0.001  0.021  0.039
   24  0.000  0.001  0.033  0.034
   25  0.000  0.001  0.013  0.014
   26  0.006  0.000  0.019  0.026
   27  0.003  0.001  0.018  0.022
   28  0.000  0.000  0.008  0.009
   29  0.002  0.001  0.004  0.006
   30  0.010  0.001  0.003  0.014
   31  0.002  0.001  0.004  0.006
   32  0.003  0.001  0.004  0.008
   33  0.010  0.001  0.003  0.014
   34  0.003  0.001  0.004  0.008
   35  0.000  0.000  0.003  0.004
   36  0.000  0.004  0.003  0.007
   37  0.000  0.003  0.000  0.003
   38  0.000  0.009  0.000  0.009
tot    0.156  0.045  0.544  0.745
 
band    18 # energy   -5.42271834 # occ.  2.00000000
 
ion      s      p      d    tot
    1  0.000  0.001  0.004  0.004
    2  0.009  0.001  0.004  0.014
    3  0.001  0.000  0.004  0.005
    4  0.009  0.001  0.004  0.014
    5  0.000  0.001  0.010  0.012
    6  0.004  0.001  0.005  0.010
    7  0.001  0.000  0.004  0.005
    8  0.004  0.001  0.005  0.010
    9  0.000  0.000  0.008  0.008
   10  0.009  0.002  0.008  0.019
   11  0.005  0.000  0.040  0.045
   12  0.002  0.001  0.040  0.043
   13  0.005  0.000  0.040  0.045
   14  0.020  0.001  0.011  0.032
   15  0.001  0.001  0.013  0.015
   16  0.002  0.001  0.040  0.043
   17  0.001  0.001  0.013  0.015
   18  0.002  0.000  0.023  0.025
   19  0.002  0.001  0.015  0.018
   20  0.023  0.002  0.006  0.030
   21  0.006  0.000  0.052  0.058
   22  0.001  0.001  0.028  0.030
   23  0.006  0.000  0.052  0.058
   24  0.004  0.001  0.013  0.018
   25  0.008  0.000  0.021  0.030
   26  0.002  0.001  0.015  0.018
   27  0.001  0.001  0.028  0.030
   28  0.000  0.000  0.008  0.009
   29  0.008  0.001  0.003  0.013
   30  0.000  0.000  0.004  0.005
   31  0.008  0.001  0.003  0.013
   32  0.007  0.001  0.003  0.011
   33  0.000  0.000  0.004  0.005
   34  0.007  0.001  0.003  0.011
   35  0.000  0.000  0.003  0.004
   36  0.000  0.004  0.003  0.007
   37  0.000  0.003  0.000  0.003
   38  0.000  0.009  0.000  0.009
tot    0.156  0.045  0.544  0.745
 
band    19 # energy   -5.39183352 # occ.  2.00000000
 
ion      s      p      d    tot
    1  0.000  0.001  0.014  0.015
    2  0.010  0.001  0.004  0.015
    3  0.001  0.000  0.005  0.007
    4  0.010  0.001  0.004  0.015
    5  0.000  0.000  0.005  0.005
    6  0.004  0.001  0.005  0.010
    7  0.001  0.000  0.005  0.007
    8  0.004  0.001  0.005  0.010
    9  0.000  0.001  0.007  0.008
   10  0.000  0.001  0.029  0.030
   11  0.001  0.001  0.019  0.021
   12  0.008  0.000  0.022  0.030
   13  0.001  0.001  0.019  0.021
   14  0.000  0.001  0.021  0.022
   15  0.012  0.002  0.021  0.035
   16  0.008  0.000  0.022  0.030
   17  0.012  0.002  0.020  0.034
   18  0.000  0.000  0.064  0.064
   19  0.013  0.001  0.019  0.034
   20  0.000  0.002  0.016  0.018
   21  0.000  0.001  0.021  0.022
   22  0.017  0.001  0.021  0.038
   23  0.000  0.001  0.021  0.022
   24  0.000  0.000  0.035  0.035
   25  0.000  0.000  0.064  0.064
   26  0.013  0.001  0.019  0.033
   27  0.017  0.001  0.021  0.038
   28  0.000  0.001  0.005  0.005
   29  0.006  0.001  0.004  0.011
   30  0.000  0.000  0.004  0.005
   31  0.006  0.001  0.004  0.011
   32  0.004  0.001  0.002  0.008
   33  0.000  0.000  0.004  0.005
   34  0.004  0.001  0.002  0.008
   35  0.000  0.001  0.008  0.009
   36  0.000  0.000  0.002  0.002
   37  0.000  0.000  0.000  0.000
   38  0.000  0.001  0.000  0.001
tot    0.152  0.031  0.566  0.749
 
band    20 # energy   -5.39182847 # occ.  2.00000000
 
ion      s      p      d    tot
    1  0.000  0.001  0.014  0.015
    2  0.000  0.000  0.005  0.006
    3  0.009  0.001  0.005  0.015
    4  0.000  0.000  0.005  0.006
    5  0.000  0.000  0.005  0.005
    6  0.006  0.001  0.004  0.011
    7  0.009  0.001  0.005  0.015
    8  0.006  0.001  0.004  0.011
    9  0.000  0.001  0.007  0.008
   10  0.010  0.000  0.020  0.031
   11  0.000  0.001  0.020  0.022
   12  0.003  0.001  0.027  0.030
   13  0.000  0.001  0.020  0.022
   14  0.001  0.001  0.019  0.021
   15  0.004  0.001  0.049  0.054
   16  0.003  0.001  0.027  0.030
   17  0.004  0.001  0.049  0.054
   18  0.016  0.002  0.006  0.025
   19  0.004  0.001  0.049  0.054
   20  0.000  0.000  0.023  0.023
   21  0.000  0.001  0.018  0.019
   22  0.005  0.001  0.030  0.036
   23  0.000  0.001  0.018  0.019
   24  0.022  0.001  0.016  0.039
   25  0.017  0.001  0.004  0.023
   26  0.004  0.001  0.049  0.054
   27  0.006  0.001  0.030  0.036
   28  0.000  0.001  0.005  0.005
   29  0.001  0.000  0.003  0.004
   30  0.007  0.001  0.003  0.011
   31  0.001  0.000  0.003  0.005
   32  0.003  0.001  0.005  0.008
   33  0.007  0.001  0.003  0.011
   34  0.003  0.001  0.005  0.008
   35  0.000  0.001  0.008  0.009
   36  0.000  0.000  0.002  0.002
   37  0.000  0.000  0.000  0.000
   38  0.000  0.001  0.000  0.001
tot    0.152  0.031  0.566  0.749
 
band    21 # energy   -5.35201918 # occ.  2.00000000
 
ion      s      p      d    tot
    1  0.005  0.000  0.001  0.006
    2  0.000  0.001  0.008  0.009
    3  0.000  0.001  0.008  0.009
    4  0.000  0.001  0.008  0.009
    5  0.018  0.002  0.000  0.020
    6  0.000  0.001  0.008  0.009
    7  0.000  0.001  0.008  0.009
    8  0.000  0.001  0.008  0.009
    9  0.004  0.001  0.002  0.007
   10  0.001  0.000  0.041  0.042
   11  0.003  0.001  0.021  0.026
   12  0.001  0.000  0.041  0.042
   13  0.003  0.001  0.021  0.026
   14  0.003  0.001  0.021  0.026
   15  0.005  0.001  0.017  0.024
   16  0.001  0.000  0.041  0.042