PROCAR new format
# of k-points:   10         # of bands:  252         # of ions:   39

 k-point     1 :    0.00000000 0.00000000 0.00000000     weight = 0.01562500

band     1 # energy  -24.14430330 # occ.  2.00000000
 
ion      s      p      d    tot
    1  0.000  0.000  0.000  0.000
    2  0.000  0.000  0.000  0.000
    3  0.000  0.000  0.000  0.000
    4  0.000  0.000  0.000  0.000
    5  0.000  0.000  0.000  0.000
    6  0.000  0.000  0.000  0.000
    7  0.000  0.000  0.000  0.000
    8  0.000  0.000  0.000  0.000
    9  0.000  0.000  0.000  0.000
   10  0.000  0.000  0.000  0.000
   11  0.000  0.000  0.000  0.000
   12  0.000  0.000  0.000  0.000
   13  0.000  0.000  0.000  0.000
   14  0.000  0.000  0.000  0.000
   15  0.000  0.000  0.000  0.000
   16  0.000  0.000  0.000  0.000
   17  0.000  0.000  0.000  0.000
   18  0.000  0.000  0.000  0.000
   19  0.000  0.000  0.000  0.000
   20  0.000  0.000  0.000  0.000
   21  0.000  0.000  0.000  0.000
   22  0.000  0.000  0.000  0.000
   23  0.000  0.000  0.000  0.000
   24  0.000  0.000  0.000  0.000
   25  0.000  0.000  0.000  0.000
   26  0.000  0.000  0.000  0.000
   27  0.000  0.000  0.000  0.000
   28  0.000  0.000  0.000  0.000
   29  0.000  0.000  0.000  0.000
   30  0.000  0.000  0.000  0.000
   31  0.000  0.000  0.000  0.000
   32  0.000  0.000  0.000  0.000
   33  0.000  0.000  0.000  0.000
   34  0.000  0.000  0.000  0.000
   35  0.000  0.000  0.000  0.000
   36  0.000  0.000  0.000  0.000
   37  0.073  0.054  0.000  0.127
   38  0.726  0.005  0.000  0.731
   39  0.065  0.014  0.000  0.079
tot    0.865  0.073  0.000  0.938
 
band     2 # energy  -14.89799208 # occ.  2.00000000
 
ion      s      p      d    tot
    1  0.000  0.000  0.000  0.000
    2  0.000  0.000  0.000  0.000
    3  0.000  0.000  0.000  0.000
    4  0.000  0.000  0.000  0.000
    5  0.000  0.000  0.000  0.000
    6  0.000  0.000  0.000  0.000
    7  0.000  0.000  0.000  0.000
    8  0.000  0.000  0.000  0.000
    9  0.000  0.000  0.000  0.000
   10  0.000  0.000  0.000  0.000
   11  0.000  0.000  0.000  0.000
   12  0.000  0.000  0.000  0.000
   13  0.000  0.000  0.000  0.000
   14  0.000  0.000  0.000  0.000
   15  0.000  0.000  0.000  0.000
   16  0.000  0.000  0.000  0.000
   17  0.000  0.000  0.000  0.000
   18  0.000  0.000  0.000  0.000
   19  0.000  0.000  0.000  0.000
   20  0.000  0.000  0.000  0.000
   21  0.000  0.000  0.000  0.000
   22  0.000  0.000  0.000  0.000
   23  0.000  0.000  0.000  0.000
   24  0.000  0.000  0.000  0.000
   25  0.000  0.000  0.000  0.000
   26  0.000  0.000  0.000  0.000
   27  0.000  0.000  0.000  0.000
   28  0.000  0.000  0.000  0.000
   29  0.000  0.000  0.000  0.000
   30  0.000  0.000  0.000  0.000
   31  0.000  0.000  0.000  0.000
   32  0.000  0.000  0.000  0.000
   33  0.000  0.000  0.000  0.000
   34  0.000  0.000  0.000  0.000
   35  0.000  0.000  0.000  0.000
   36  0.003  0.003  0.002  0.007
   37  0.158  0.052  0.000  0.209
   38  0.015  0.522  0.000  0.537
   39  0.201  0.032  0.000  0.233
tot    0.376  0.609  0.002  0.987
 
band     3 # energy   -8.97320776 # occ.  2.00000000
 
ion      s      p      d    tot
    1  0.006  0.001  0.000  0.007
    2  0.006  0.001  0.000  0.007
    3  0.006  0.001  0.000  0.007
    4  0.006  0.001  0.000  0.007
    5  0.006  0.001  0.000  0.007
    6  0.006  0.001  0.000  0.007
    7  0.006  0.001  0.000  0.007
    8  0.006  0.001  0.000  0.007
    9  0.006  0.001  0.000  0.007
   10  0.024  0.000  0.000  0.024
   11  0.024  0.000  0.000  0.024
   12  0.024  0.000  0.000  0.024
   13  0.024  0.000  0.000  0.024
   14  0.024  0.000  0.000  0.024
   15  0.023  0.000  0.000  0.023
   16  0.024  0.000  0.000  0.024
   17  0.023  0.000  0.000  0.023
   18  0.023  0.000  0.000  0.023
   19  0.024  0.000  0.000  0.024
   20  0.026  0.000  0.000  0.026
   21  0.026  0.000  0.000  0.026
   22  0.024  0.000  0.000  0.024
   23  0.026  0.000  0.000  0.026
   24  0.024  0.000  0.000  0.024
   25  0.024  0.000  0.000  0.024
   26  0.024  0.000  0.000  0.024
   27  0.024  0.000  0.000  0.024
   28  0.007  0.001  0.000  0.008
   29  0.007  0.001  0.000  0.008
   30  0.007  0.001  0.000  0.008
   31  0.007  0.001  0.000  0.008
   32  0.007  0.001  0.000  0.008
   33  0.007  0.001  0.000  0.008
   34  0.007  0.001  0.000  0.008
   35  0.007  0.001  0.000  0.007
   36  0.016  0.000  0.002  0.018
   37  0.003  0.003  0.000  0.006
   38  0.000  0.001  0.000  0.002
   39  0.000  0.000  0.000  0.000
tot    0.566  0.019  0.003  0.588
 
band     4 # energy   -7.82216486 # occ.  2.00000000
 
ion      s      p      d    tot
    1  0.013  0.001  0.000  0.014
    2  0.013  0.001  0.000  0.014
    3  0.013  0.001  0.000  0.014
    4  0.013  0.001  0.000  0.014
    5  0.013  0.001  0.000  0.014
    6  0.013  0.001  0.000  0.014
    7  0.013  0.001  0.000  0.014
    8  0.013  0.001  0.000  0.014
    9  0.013  0.001  0.000  0.014
   10  0.010  0.001  0.000  0.012
   11  0.009  0.001  0.000  0.011
   12  0.010  0.001  0.000  0.012
   13  0.009  0.001  0.000  0.011
   14  0.009  0.001  0.000  0.011
   15  0.011  0.001  0.000  0.012
   16  0.010  0.001  0.000  0.012
   17  0.011  0.001  0.000  0.012
   18  0.011  0.001  0.000  0.012
   19  0.004  0.002  0.000  0.006
   20  0.007  0.003  0.000  0.010
   21  0.007  0.003  0.000  0.010
   22  0.004  0.002  0.000  0.006
   23  0.007  0.003  0.000  0.010
   24  0.004  0.002  0.000  0.006
   25  0.004  0.002  0.000  0.006
   26  0.004  0.002  0.000  0.006
   27  0.004  0.002  0.000  0.006
   28  0.011  0.000  0.000  0.012
   29  0.015  0.000  0.001  0.016
   30  0.015  0.000  0.001  0.016
   31  0.015  0.000  0.001  0.016
   32  0.015  0.000  0.001  0.016
   33  0.015  0.000  0.001  0.016
   34  0.015  0.000  0.001  0.016
   35  0.011  0.000  0.000  0.012
   36  0.080  0.013  0.031  0.124
   37  0.050  0.046  0.000  0.096
   38  0.004  0.016  0.000  0.020
   39  0.005  0.000  0.000  0.005
tot    0.502  0.113  0.044  0.660
 
band     5 # energy   -7.10862565 # occ.  2.00000000
 
ion      s      p      d    tot
    1  0.007  0.000  0.001  0.008
    2  0.007  0.000  0.001  0.008
    3  0.007  0.000  0.001  0.008
    4  0.007  0.000  0.001  0.008
    5  0.008  0.000  0.000  0.009
    6  0.007  0.000  0.001  0.008
    7  0.007  0.000  0.001  0.008
    8  0.007  0.000  0.001  0.008
    9  0.007  0.000  0.001  0.007
   10  0.001  0.002  0.000  0.002
   11  0.002  0.001  0.000  0.003
   12  0.001  0.002  0.000  0.002
   13  0.002  0.001  0.000  0.003
   14  0.002  0.001  0.000  0.003
   15  0.000  0.002  0.000  0.002
   16  0.001  0.002  0.000  0.002
   17  0.000  0.002  0.000  0.002
   18  0.000  0.002  0.000  0.002
   19  0.013  0.000  0.001  0.014
   20  0.002  0.001  0.003  0.006
   21  0.002  0.001  0.003  0.006
   22  0.012  0.000  0.001  0.013
   23  0.002  0.001  0.003  0.006
   24  0.012  0.000  0.001  0.013
   25  0.013  0.000  0.001  0.014
   26  0.013  0.000  0.001  0.014
   27  0.012  0.000  0.001  0.013
   28  0.007  0.001  0.000  0.008
   29  0.001  0.002  0.001  0.005
   30  0.001  0.002  0.001  0.005
   31  0.001  0.002  0.001  0.005
   32  0.001  0.002  0.001  0.005
   33  0.001  0.002  0.001  0.005
   34  0.001  0.002  0.001  0.005
   35  0.007  0.001  0.000  0.008
   36  0.070  0.060  0.123  0.253
   37  0.137  0.112  0.000  0.250
   38  0.010  0.033  0.000  0.043
   39  0.010  0.001  0.000  0.011
tot    0.401  0.242  0.150  0.793
 
band     6 # energy   -6.94551331 # occ.  2.00000000
 
ion      s      p      d    tot
    1  0.000  0.000  0.000  0.000
    2  0.000  0.000  0.000  0.000
    3  0.000  0.000  0.000  0.000
    4  0.000  0.000  0.000  0.000
    5  0.000  0.000  0.000  0.000
    6  0.000  0.000  0.000  0.000
    7  0.000  0.000  0.000  0.000
    8  0.000  0.000  0.000  0.000
    9  0.000  0.000  0.000  0.000
   10  0.000  0.000  0.000  0.000
   11  0.000  0.000  0.000  0.000
   12  0.000  0.000  0.000  0.000
   13  0.000  0.000  0.000  0.000
   14  0.000  0.000  0.000  0.000
   15  0.000  0.000  0.000  0.000
   16  0.000  0.000  0.000  0.000
   17  0.000  0.000  0.000  0.000
   18  0.000  0.000  0.000  0.000
   19  0.000  0.000  0.000  0.000
   20  0.000  0.000  0.000  0.000
   21  0.000  0.000  0.000  0.000
   22  0.000  0.000  0.000  0.000
   23  0.000  0.000  0.000  0.000
   24  0.000  0.000  0.000  0.000
   25  0.000  0.000  0.000  0.000
   26  0.000  0.000  0.000  0.000
   27  0.000  0.000  0.000  0.000
   28  0.000  0.000  0.000  0.000
   29  0.001  0.000  0.000  0.001
   30  0.000  0.000  0.000  0.000
   31  0.001  0.000  0.000  0.001
   32  0.001  0.000  0.000  0.002
   33  0.000  0.000  0.000  0.000
   34  0.001  0.000  0.000  0.002
   35  0.000  0.000  0.000  0.000
   36  0.000  0.004  0.012  0.015
   37  0.000  0.109  0.000  0.109
   38  0.000  0.536  0.000  0.536
   39  0.000  0.008  0.000  0.008
tot    0.003  0.657  0.014  0.675
 
band     7 # energy   -6.94537149 # occ.  2.00000000
 
ion      s      p      d    tot
    1  0.000  0.000  0.000  0.000
    2  0.000  0.000  0.000  0.000
    3  0.000  0.000  0.000  0.000
    4  0.000  0.000  0.000  0.000
    5  0.000  0.000  0.000  0.000
    6  0.000  0.000  0.000  0.000
    7  0.000  0.000  0.000  0.000
    8  0.000  0.000  0.000  0.000
    9  0.000  0.000  0.000  0.000
   10  0.000  0.000  0.000  0.000
   11  0.000  0.000  0.000  0.000
   12  0.000  0.000  0.000  0.000
   13  0.000  0.000  0.000  0.000
   14  0.000  0.000  0.000  0.000
   15  0.000  0.000  0.000  0.000
   16  0.000  0.000  0.000  0.000
   17  0.000  0.000  0.000  0.000
   18  0.000  0.000  0.000  0.000
   19  0.000  0.000  0.000  0.000
   20  0.000  0.000  0.000  0.000
   21  0.000  0.000  0.000  0.000
   22  0.000  0.000  0.000  0.000
   23  0.000  0.000  0.000  0.000
   24  0.000  0.000  0.000  0.000
   25  0.000  0.000  0.000  0.000
   26  0.000  0.000  0.000  0.000
   27  0.000  0.000  0.000  0.000
   28  0.000  0.000  0.000  0.000
   29  0.000  0.000  0.000  0.001
   30  0.001  0.000  0.000  0.002
   31  0.000  0.000  0.000  0.001
   32  0.000  0.000  0.000  0.001
   33  0.001  0.000  0.000  0.002
   34  0.000  0.000  0.000  0.001
   35  0.000  0.000  0.000  0.000
   36  0.000  0.004  0.012  0.015
   37  0.000  0.109  0.000  0.109
   38  0.000  0.536  0.000  0.536
   39  0.000  0.008  0.000  0.008
tot    0.003  0.657  0.014  0.675
 
band     8 # energy   -6.01390371 # occ.  2.00000000
 
ion      s      p      d    tot
    1  0.014  0.000  0.004  0.018
    2  0.010  0.001  0.005  0.016
    3  0.010  0.001  0.005  0.016
    4  0.010  0.001  0.005  0.016
    5  0.001  0.001  0.006  0.008
    6  0.010  0.001  0.005  0.016
    7  0.010  0.001  0.005  0.016
    8  0.010  0.001  0.005  0.016
    9  0.026  0.000  0.002  0.029
   10  0.002  0.003  0.005  0.009
   11  0.021  0.006  0.001  0.028
   12  0.002  0.003  0.005  0.009
   13  0.021  0.006  0.001  0.028
   14  0.021  0.006  0.001  0.028
   15  0.001  0.002  0.007  0.010
   16  0.002  0.003  0.005  0.009
   17  0.001  0.002  0.007  0.010
   18  0.001  0.002  0.007  0.010
   19  0.000  0.002  0.007  0.009
   20  0.027  0.006  0.002  0.035
   21  0.027  0.006  0.002  0.035
   22  0.000  0.005  0.004  0.009
   23  0.027  0.006  0.002  0.035
   24  0.000  0.005  0.004  0.009
   25  0.000  0.002  0.007  0.009
   26  0.000  0.002  0.007  0.009
   27  0.000  0.005  0.004  0.009
   28  0.021  0.000  0.003  0.024
   29  0.011  0.001  0.006  0.018
   30  0.011  0.001  0.006  0.018
   31  0.011  0.001  0.006  0.018
   32  0.011  0.001  0.006  0.018
   33  0.011  0.001  0.006  0.018
   34  0.011  0.001  0.006  0.018
   35  0.028  0.000  0.003  0.031
   36  0.000  0.002  0.014  0.016
   37  0.001  0.001  0.000  0.001
   38  0.000  0.000  0.000  0.000
   39  0.000  0.000  0.000  0.000
tot    0.372  0.084  0.176  0.632
 
band     9 # energy   -5.97031659 # occ.  2.00000000
 
ion      s      p      d    tot
    1  0.000  0.002  0.006  0.008
    2  0.000  0.001  0.002  0.003
    3  0.008  0.002  0.002  0.013
    4  0.000  0.001  0.002  0.003
    5  0.000  0.003  0.004  0.006
    6  0.006  0.002  0.002  0.010
    7  0.008  0.002  0.002  0.013
    8  0.006  0.002  0.002  0.010
    9  0.000  0.000  0.002  0.002
   10  0.000  0.001  0.016  0.017
   11  0.023  0.004  0.006  0.033
   12  0.043  0.004  0.007  0.054
   13  0.023  0.004  0.006  0.032
   14  0.000  0.013  0.003  0.016
   15  0.003  0.003  0.005  0.011
   16  0.044  0.004  0.006  0.054
   17  0.003  0.003  0.005  0.011
   18  0.000  0.006  0.008  0.014
   19  0.018  0.004  0.006  0.027
   20  0.000  0.002  0.017  0.020
   21  0.048  0.004  0.008  0.060
   22  0.007  0.003  0.005  0.015
   23  0.049  0.004  0.008  0.060
   24  0.000  0.005  0.010  0.015
   25  0.000  0.014  0.002  0.016
   26  0.018  0.004  0.006  0.027
   27  0.007  0.003  0.005  0.015
   28  0.000  0.002  0.003  0.006
   29  0.000  0.001  0.002  0.003
   30  0.007  0.002  0.003  0.012
   31  0.000  0.001  0.002  0.003
   32  0.008  0.002  0.003  0.013
   33  0.008  0.002  0.003  0.012
   34  0.008  0.002  0.003  0.013
   35  0.000  0.000  0.003  0.003
   36  0.000  0.005  0.006  0.011
   37  0.000  0.000  0.000  0.000
   38  0.000  0.000  0.000  0.000
   39  0.000  0.000  0.000  0.000
tot    0.346  0.117  0.181  0.643
 
band    10 # energy   -5.97025291 # occ.  2.00000000
 
ion      s      p      d    tot
    1  0.000  0.002  0.006  0.008
    2  0.010  0.002  0.002  0.014
    3  0.001  0.001  0.002  0.004
    4  0.010  0.002  0.002  0.014
    5  0.000  0.003  0.004  0.006
    6  0.004  0.001  0.002  0.008
    7  0.001  0.001  0.002  0.004
    8  0.004  0.001  0.002  0.007
    9  0.000  0.000  0.002  0.002
   10  0.058  0.005  0.003  0.066
   11  0.007  0.010  0.004  0.022
   12  0.015  0.002  0.013  0.030
   13  0.008  0.010  0.004  0.022
   14  0.030  0.001  0.007  0.038
   15  0.001  0.005  0.007  0.013
   16  0.014  0.002  0.013  0.029
   17  0.001  0.005  0.007  0.013
   18  0.004  0.002  0.003  0.010
   19  0.006  0.010  0.003  0.019
   20  0.065  0.004  0.005  0.073
   21  0.017  0.003  0.014  0.033
   22  0.002  0.004  0.009  0.015
   23  0.016  0.003  0.014  0.033
   24  0.009  0.003  0.003  0.015
   25  0.024  0.000  0.007  0.031
   26  0.006  0.010  0.003  0.020
   27  0.002  0.004  0.009  0.015
   28  0.000  0.002  0.003  0.006
   29  0.010  0.003  0.003  0.016
   30  0.003  0.001  0.002  0.007
   31  0.010  0.003  0.003  0.016
   32  0.002  0.001  0.002  0.006
   33  0.003  0.001  0.002  0.006
   34  0.002  0.001  0.002  0.006
   35  0.000  0.000  0.003  0.003
   36  0.000  0.005  0.006  0.011
   37  0.000  0.000  0.000  0.000
   38  0.000  0.000  0.000  0.000
   39  0.000  0.000  0.000  0.000
tot    0.346  0.117  0.181  0.643
 
band    11 # energy   -5.95098074 # occ.  2.00000000
 
ion      s      p      d    tot
    1  0.021  0.003  0.001  0.025
    2  0.000  0.002  0.004  0.006
    3  0.000  0.002  0.004  0.006
    4  0.000  0.002  0.004  0.006
    5  0.001  0.000  0.000  0.002
    6  0.000  0.002  0.004  0.006
    7  0.000  0.002  0.004  0.006
    8  0.000  0.002  0.004  0.006
    9  0.009  0.001  0.000  0.011
   10  0.031  0.006  0.006  0.042
   11  0.005  0.000  0.012  0.017
   12  0.030  0.006  0.006  0.042
   13  0.005  0.000  0.012  0.017
   14  0.005  0.000  0.011  0.017
   15  0.011  0.008  0.003  0.023
   16  0.030  0.006  0.006  0.042
   17  0.011  0.008  0.003  0.023
   18  0.012  0.008  0.003  0.023
   19  0.023  0.009  0.002  0.034
   20  0.000  0.003  0.011  0.013
   21  0.000  0.003  0.011  0.013
   22  0.024  0.002  0.009  0.036
   23  0.000  0.003  0.011  0.013
   24  0.024  0.002  0.009  0.035
   25  0.022  0.009  0.002  0.033
   26  0.023  0.009  0.002  0.034
   27  0.024  0.002  0.009  0.036
   28  0.018  0.003  0.001  0.021
   29  0.000  0.002  0.004  0.006
   30  0.000  0.002  0.004  0.006
   31  0.000  0.002  0.004  0.006
   32  0.000  0.002  0.004  0.006
   33  0.000  0.002  0.004  0.006
   34  0.000  0.002  0.004  0.006
   35  0.013  0.002  0.001  0.016
   36  0.000  0.000  0.000  0.000
   37  0.000  0.000  0.000  0.000
   38  0.000  0.000  0.000  0.000
   39  0.000  0.000  0.000  0.000
tot    0.345  0.114  0.180  0.639
 
band    12 # energy   -5.94124513 # occ.  2.00000000
 
ion      s      p      d    tot
    1  0.000  0.001  0.003  0.003
    2  0.000  0.001  0.002  0.003
    3  0.009  0.002  0.003  0.014
    4  0.000  0.001  0.002  0.003
    5  0.000  0.001  0.004  0.005
    6  0.006  0.002  0.002  0.011
    7  0.009  0.002  0.003  0.014
    8  0.006  0.002  0.002  0.010
    9  0.000  0.003  0.006  0.009
   10  0.004  0.000  0.006  0.010
   11  0.008  0.002  0.012  0.022
   12  0.001  0.009  0.003  0.014
   13  0.008  0.002  0.012  0.022
   14  0.032  0.005  0.002  0.038
   15  0.015  0.006  0.009  0.030
   16  0.001  0.009  0.003  0.014
   17  0.015  0.006  0.009  0.030
   18  0.058  0.003  0.005  0.066
   19  0.010  0.001  0.013  0.024
   20  0.001  0.001  0.006  0.008
   21  0.000  0.009  0.004  0.013
   22  0.013  0.007  0.008  0.028
   23  0.000  0.009  0.004  0.013
   24  0.054  0.002  0.006  0.062
   25  0.039  0.005  0.002  0.046
   26  0.009  0.001  0.013  0.024
   27  0.013  0.007  0.008  0.028
   28  0.000  0.001  0.005  0.006
   29  0.000  0.001  0.002  0.003
   30  0.008  0.002  0.002  0.012
   31  0.000  0.001  0.002  0.003
   32  0.008  0.002  0.003  0.013
   33  0.008  0.002  0.002  0.012
   34  0.008  0.002  0.003  0.013
   35  0.000  0.003  0.005  0.009
   36  0.000  0.001  0.002  0.003
   37  0.000  0.000  0.000  0.000
   38  0.000  0.000  0.000  0.000
   39  0.000  0.000  0.000  0.000
tot    0.344  0.116  0.178  0.638
 
band    13 # energy   -5.94117511 # occ.  2.00000000
 
ion      s      p      d    tot
    1  0.000  0.001  0.003  0.003
    2  0.010  0.002  0.002  0.015
    3  0.001  0.001  0.002  0.005
    4  0.010  0.002  0.002  0.015
    5  0.000  0.001  0.004  0.005
    6  0.004  0.002  0.002  0.008
    7  0.001  0.001  0.002  0.005
    8  0.004  0.002  0.002  0.008
    9  0.000  0.003  0.006  0.009
   10  0.000  0.012  0.002  0.015
   11  0.024  0.004  0.005  0.033
   12  0.003  0.003  0.005  0.012
   13  0.024  0.004  0.005  0.033
   14  0.000  0.001  0.015  0.016
   15  0.044  0.004  0.007  0.054
   16  0.003  0.003  0.005  0.012
   17  0.044  0.004  0.007  0.054
   18  0.000  0.007  0.010  0.018
   19  0.029  0.004  0.006  0.039
   20  0.000  0.012  0.003  0.015
   21  0.001  0.004  0.005  0.010
   22  0.041  0.004  0.006  0.051
   23  0.001  0.004  0.005  0.010
   24  0.000  0.009  0.008  0.017
   25  0.000  0.000  0.017  0.017
   26  0.029  0.004  0.006  0.039
   27  0.040  0.004  0.006  0.050
   28  0.000  0.001  0.005  0.006
   29  0.010  0.003  0.003  0.015
   30  0.003  0.001  0.003  0.007
   31  0.010  0.003  0.003  0.015
   32  0.002  0.001  0.002  0.006
   33  0.003  0.001  0.003  0.007
   34  0.002  0.001  0.002  0.006
   35  0.000  0.003  0.005  0.009
   36  0.000  0.001  0.002  0.003
   37  0.000  0.000  0.000  0.000
   38  0.000  0.000  0.000  0.000
   39  0.000  0.000  0.000  0.000
tot    0.344  0.116  0.178  0.638
 
band    14 # energy   -5.80010702 # occ.  2.00000000
 
ion      s      p      d    tot
    1  0.001  0.000  0.003  0.004
    2  0.005  0.002  0.007  0.014
    3  0.005  0.002  0.007  0.014
    4  0.005  0.002  0.007  0.014
    5  0.046  0.002  0.001  0.049
    6  0.005  0.002  0.007  0.014
    7  0.005  0.002  0.007  0.014
    8  0.005  0.002  0.007  0.014
    9  0.001  0.002  0.007  0.010
   10  0.005  0.004  0.008  0.017
   11  0.011  0.008  0.006  0.024
   12  0.005  0.004  0.008  0.017
   13  0.011  0.008  0.006  0.024
   14  0.011  0.008  0.006  0.024
   15  0.029  0.002  0.010  0.041
   16  0.005  0.004  0.008  0.017
   17  0.029  0.002  0.010  0.041
   18  0.029  0.002  0.010  0.041
   19  0.005  0.003  0.005  0.013
   20  0.009  0.002  0.008  0.018
   21  0.009  0.002  0.008  0.018
   22  0.005  0.006  0.004  0.015
   23  0.009  0.002  0.008  0.018
   24  0.006  0.006  0.004  0.015
   25  0.005  0.003  0.005  0.013
   26  0.005  0.003  0.005  0.013
   27  0.005  0.006  0.004  0.015
   28  0.006  0.000  0.004  0.010
   29  0.006  0.000  0.004  0.010
   30  0.006  0.000  0.004  0.010
   31  0.006  0.000  0.004  0.010
   32  0.006  0.000  0.004  0.010
   33  0.006  0.000  0.004  0.010
   34  0.006  0.000  0.004  0.010
   35  0.003  0.000  0.003  0.006
   36  0.001  0.012  0.020  0.033
   37  0.013  0.009  0.000  0.021
   38  0.001  0.002  0.000  0.003
   39  0.001  0.000  0.000  0.001
tot    0.332  0.112  0.224  0.668
 
band    15 # energy   -5.20771959 # occ.  2.00000000
 
ion      s      p      d    tot
    1  0.004  0.000  0.009  0.013
    2  0.004  0.001  0.009  0.014
    3  0.004  0.001  0.009  0.014
    4  0.004  0.001  0.009  0.014
    5  0.000  0.002  0.009  0.010
    6  0.004  0.001  0.009  0.014
    7  0.004  0.001  0.009  0.014
    8  0.004  0.001  0.009  0.014
    9  0.018  0.000  0.006  0.024
   10  0.007  0.000  0.025  0.032
   11  0.011  0.001  0.020  0.032
   12  0.007  0.000  0.025  0.032
   13  0.011  0.001  0.020  0.032
   14  0.011  0.001  0.020  0.032
   15  0.001  0.000  0.021  0.022
   16  0.007  0.000  0.025  0.032
   17  0.001  0.000  0.021  0.022
   18  0.001  0.000  0.021  0.022
   19  0.004  0.000  0.020  0.024
   20  0.012  0.001  0.027  0.039
   21  0.012  0.001  0.027  0.039
   22  0.002  0.000  0.022  0.024
   23  0.012  0.001  0.027  0.039
   24  0.002  0.000  0.022  0.024
   25  0.004  0.000  0.020  0.024
   26  0.004  0.000  0.020  0.024
   27  0.002  0.000  0.022  0.024
   28  0.003  0.000  0.007  0.010
   29  0.004  0.001  0.008  0.013
   30  0.004  0.001  0.008  0.013
   31  0.004  0.001  0.008  0.013
   32  0.004  0.001  0.008  0.013
   33  0.004  0.001  0.008  0.013
   34  0.004  0.001  0.008  0.013
   35  0.016  0.000  0.006  0.022
   36  0.000  0.003  0.008  0.011
   37  0.000  0.000  0.000  0.000
   38  0.000  0.000  0.000  0.000
   39  0.000  0.000  0.000  0.000
tot    0.202  0.021  0.550  0.773
 
band    16 # energy   -5.18768419 # occ.  2.00000000
 
ion      s      p      d    tot
    1  0.000  0.001  0.011  0.011
    2  0.008  0.002  0.005  0.016
    3  0.021  0.004  0.005  0.030
    4  0.007  0.002  0.005  0.015
    5  0.000  0.006  0.008  0.014
    6  0.003  0.002  0.005  0.010
    7  0.021  0.004  0.005  0.030
    8  0.004  0.002  0.005  0.011
    9  0.000  0.002  0.012  0.014
   10  0.000  0.001  0.015  0.016
   11  0.017  0.004  0.010  0.031
   12  0.006  0.003  0.011  0.020
   13  0.016  0.004  0.010  0.031
   14  0.000  0.001  0.026  0.026
   15  0.002  0.001  0.010  0.014
   16  0.007  0.003  0.011  0.020
   17  0.002  0.001  0.011  0.014
   18  0.000  0.004  0.021  0.025
   19  0.000  0.001  0.011  0.012
   20  0.000  0.002  0.034  0.036
   21  0.013  0.003  0.013  0.029
   22  0.011  0.004  0.011  0.025
   23  0.013  0.003  0.012  0.028
   24  0.000  0.000  0.016  0.016
   25  0.000  0.003  0.018  0.021
   26  0.000  0.001  0.011  0.012
   27  0.011  0.004  0.011  0.026
   28  0.000  0.001  0.013  0.013
   29  0.010  0.003  0.006  0.018
   30  0.020  0.004  0.006  0.030
   31  0.009  0.002  0.006  0.017
   32  0.002  0.002  0.005  0.009
   33  0.020  0.004  0.006  0.030
   34  0.002  0.002  0.005  0.009
   35  0.000  0.003  0.009  0.011
   36  0.000  0.009  0.007  0.016
   37  0.000  0.000  0.000  0.000
   38  0.000  0.001  0.000  0.001
   39  0.000  0.000  0.000  0.000
tot    0.225  0.097  0.389  0.710
 
band    17 # energy   -5.18760880 # occ.  2.00000000
 
ion      s      p      d    tot
    1  0.000  0.001  0.010  0.012
    2  0.013  0.003  0.005  0.022
    3  0.000  0.002  0.005  0.007
    4  0.014  0.003  0.005  0.022
    5  0.000  0.006  0.008  0.014
    6  0.018  0.003  0.005  0.027
    7  0.000  0.002  0.005  0.007
    8  0.018  0.003  0.005  0.027
    9  0.000  0.002  0.012  0.014
   10  0.008  0.003  0.010  0.021
   11  0.006  0.002  0.021  0.028
   12  0.003  0.002  0.014  0.018
   13  0.006  0.002  0.020  0.028
   14  0.021  0.005  0.005  0.032
   15  0.001  0.003  0.017  0.021
   16  0.003  0.002  0.014  0.018
   17  0.001  0.003  0.017  0.021
   18  0.004  0.000  0.008  0.012
   19  0.000  0.002  0.015  0.018
   20  0.017  0.004  0.005  0.026
   21  0.004  0.002  0.027  0.033
   22  0.004  0.002  0.014  0.020
   23  0.004  0.002  0.027  0.034
   24  0.013  0.005  0.010  0.027
   25  0.000  0.000  0.009  0.010
   26  0.000  0.002  0.015  0.018
   27  0.004  0.001  0.014  0.020
   28  0.000  0.001  0.013  0.013
   29  0.011  0.003  0.006  0.020
   30  0.001  0.002  0.005  0.008
   31  0.012  0.003  0.006  0.020
   32  0.019  0.003  0.006  0.029
   33  0.001  0.002  0.005  0.008
   34  0.019  0.003  0.006  0.029
   35  0.000  0.003  0.009  0.011
   36  0.000  0.009  0.007  0.016
   37  0.000  0.000  0.000  0.000
   38  0.000  0.001  0.000  0.001
   39  0.000  0.000  0.000  0.000
tot    0.225  0.097  0.389  0.710
 
band    18 # energy   -5.18663582 # occ.  2.00000000
 
ion      s      p      d    tot
    1  0.037  0.003  0.000  0.040
    2  0.000  0.003  0.010  0.013
    3  0.000  0.003  0.010  0.013
    4  0.000  0.003  0.010  0.013
    5  0.000  0.000  0.001  0.001
    6  0.000  0.003  0.010  0.013
    7  0.000  0.003  0.010  0.013
    8  0.000  0.003  0.010  0.013
    9  0.026  0.004  0.001  0.030
   10  0.008  0.004  0.011  0.022
   11  0.002  0.000  0.015  0.017
   12  0.007  0.003  0.011  0.021
   13  0.002  0.000  0.015  0.017
   14  0.003  0.000  0.015  0.018
   15  0.008  0.003  0.018  0.029
   16  0.007  0.003  0.011  0.021
   17  0.008  0.003  0.018  0.029
   18  0.007  0.003  0.017  0.027
   19  0.004  0.004  0.018  0.026
   20  0.000  0.000  0.016  0.016
   21  0.000  0.000  0.016  0.016
   22  0.012  0.003  0.011  0.025
   23  0.000  0.000  0.016  0.016
   24  0.014  0.003  0.010  0.027
   25  0.004  0.004  0.017  0.025
   26  0.004  0.004  0.018  0.026
   27  0.012  0.003  0.011  0.025
   28  0.039  0.003  0.000  0.042
   29  0.000  0.003  0.011  0.014
   30  0.000  0.003  0.011  0.013
   31  0.000  0.003  0.010  0.014
   32  0.000  0.003  0.010  0.013
   33  0.000  0.003  0.011  0.013
   34  0.000  0.003  0.010  0.013
   35  0.023  0.003  0.002  0.029
   36  0.000  0.000  0.000  0.000
   37  0.000  0.000  0.000  0.000
   38  0.000  0.000  0.000  0.000
   39  0.000  0.000  0.000  0.000
tot    0.226  0.089  0.391  0.706
 
band    19 # energy   -5.18171304 # occ.  2.00000000
 
ion      s      p      d    tot
    1  0.000  0.005  0.010  0.016
    2  0.008  0.002  0.005  0.016
    3  0.021  0.004  0.005  0.030
    4  0.008  0.002  0.005  0.016
    5  0.000  0.000  0.012  0.012
    6  0.003  0.002  0.005  0.010
    7  0.021  0.004  0.005  0.030
    8  0.003  0.002  0.005  0.010
    9  0.000  0.004  0.009  0.012
   10  0.014  0.003  0.005  0.021
   11  0.000  0.002  0.014  0.016
   12  0.004  0.003  0.022  0.028
   13  0.000  0.002  0.014  0.016
   14  0.000  0.001  0.009  0.010
   15  0.005  0.001  0.017  0.023
   16  0.004  0.003  0.022  0.028
   17  0.005  0.001  0.017  0.023
   18  0.019  0.005  0.008  0.032
   19  0.005  0.002  0.019  0.026
   20  0.004  0.002  0.011  0.017
   21  0.001  0.002  0.014  0.017
   22  0.002  0.003  0.020  0.024
   23  0.001  0.002  0.014  0.017
   24  0.007  0.001  0.005  0.014
   25  0.021  0.006  0.006  0.033
   26  0.005  0.002  0.019  0.026
   27  0.002  0.003  0.020  0.024
   28  0.000  0.005  0.008  0.013
   29  0.009  0.002  0.006  0.017
   30  0.021  0.004  0.005  0.030
   31  0.009  0.002  0.006  0.017
   32  0.002  0.002  0.006  0.010
   33  0.021  0.004  0.005  0.030
   34  0.002  0.002  0.006  0.010
   35  0.000  0.004  0.011  0.015
   36  0.000  0.000  0.008  0.009
   37  0.000  0.000  0.000  0.000
   38  0.000  0.000  0.000  0.000
   39  0.000  0.000  0.000  0.000
tot    0.227  0.094  0.381  0.702
 
band    20 # energy   -5.18162130 # occ.  2.00000000
 
ion      s      p      d    tot
    1  0.000  0.005  0.010  0.016
    2  0.014  0.003  0.005  0.022
    3  0.000  0.002  0.005  0.007
    4  0.014  0.003  0.005  0.022
    5  0.000  0.000  0.012  0.012
    6  0.018  0.004  0.006  0.027
    7  0.000  0.002  0.005  0.007
    8  0.018  0.004  0.006  0.027
    9  0.000  0.004  0.009  0.012
   10  0.000  0.003  0.028  0.031
   11  0.000  0.001  0.011  0.012
   12  0.010  0.003  0.011  0.024
   13  0.000  0.001  0.011  0.012
   14  0.000  0.003  0.016  0.019
   15  0.014  0.004  0.011  0.029
   16  0.011  0.003  0.011  0.024
   17  0.014  0.004  0.011  0.029
   18  0.000  0.000  0.020  0.020
   19  0.016  0.004  0.010  0.030
   20  0.000  0.002  0.015  0.017
   21  0.003  0.002  0.012  0.017
   22  0.005  0.002  0.010  0.017
   23  0.003  0.002  0.012  0.017
   24  0.000  0.003  0.024  0.028
   25  0.000  0.000  0.024  0.024
   26  0.016  0.004  0.010  0.030
   27  0.005  0.002  0.010  0.017
   28  0.000  0.005  0.008  0.013
   29  0.012  0.003  0.006  0.021
   30  0.001  0.002  0.006  0.008
   31  0.013  0.003  0.006  0.021
   32  0.019  0.003  0.006  0.028
   33  0.001  0.002  0.006  0.008
   34  0.019  0.003  0.006  0.028
   35  0.000  0.004  0.011  0.015
   36  0.000  0.000  0.008  0.009
   37  0.000  0.000  0.000  0.000
   38  0.000  0.000  0.000  0.000
   39  0.000  0.000  0.000  0.000