PROCAR new format
# of k-points:   10         # of bands:  252         # of ions:   37

 k-point     1 :    0.00000000 0.00000000 0.00000000     weight = 0.01562500

band     1 # energy  -17.20589680 # occ.  2.00000000
 
ion      s      p      d    tot
    1  0.000  0.000  0.000  0.000
    2  0.000  0.000  0.000  0.000
    3  0.000  0.000  0.000  0.000
    4  0.000  0.000  0.000  0.000
    5  0.000  0.000  0.000  0.000
    6  0.000  0.000  0.000  0.000
    7  0.000  0.000  0.000  0.000
    8  0.000  0.000  0.000  0.000
    9  0.000  0.000  0.000  0.000
   10  0.000  0.000  0.000  0.000
   11  0.000  0.000  0.000  0.000
   12  0.000  0.000  0.000  0.000
   13  0.000  0.000  0.000  0.000
   14  0.000  0.000  0.000  0.000
   15  0.000  0.000  0.000  0.000
   16  0.000  0.000  0.000  0.000
   17  0.000  0.000  0.000  0.000
   18  0.000  0.000  0.000  0.000
   19  0.000  0.000  0.000  0.000
   20  0.000  0.000  0.000  0.000
   21  0.000  0.000  0.000  0.000
   22  0.000  0.000  0.000  0.000
   23  0.000  0.000  0.000  0.000
   24  0.000  0.000  0.000  0.000
   25  0.000  0.000  0.000  0.000
   26  0.000  0.000  0.000  0.000
   27  0.000  0.000  0.000  0.000
   28  0.000  0.000  0.000  0.000
   29  0.000  0.000  0.000  0.000
   30  0.000  0.000  0.000  0.000
   31  0.000  0.000  0.000  0.000
   32  0.000  0.000  0.000  0.000
   33  0.000  0.000  0.000  0.000
   34  0.000  0.000  0.000  0.000
   35  0.000  0.000  0.000  0.000
   36  0.051  0.073  0.149  0.273
   37  0.772  0.011  0.000  0.783
tot    0.824  0.084  0.149  1.057
 
band     2 # energy   -6.40216921 # occ.  2.00000000
 
ion      s      p      d    tot
    1  0.005  0.001  0.000  0.005
    2  0.005  0.000  0.000  0.005
    3  0.005  0.000  0.000  0.005
    4  0.005  0.000  0.000  0.005
    5  0.005  0.000  0.000  0.005
    6  0.005  0.000  0.000  0.005
    7  0.005  0.000  0.000  0.005
    8  0.005  0.000  0.000  0.005
    9  0.004  0.000  0.000  0.005
   10  0.021  0.000  0.000  0.021
   11  0.021  0.000  0.000  0.021
   12  0.021  0.000  0.000  0.021
   13  0.021  0.000  0.000  0.021
   14  0.021  0.000  0.000  0.021
   15  0.018  0.000  0.000  0.019
   16  0.021  0.000  0.000  0.021
   17  0.018  0.000  0.000  0.019
   18  0.018  0.000  0.000  0.019
   19  0.022  0.000  0.001  0.023
   20  0.032  0.000  0.001  0.033
   21  0.032  0.000  0.001  0.033
   22  0.022  0.000  0.001  0.022
   23  0.032  0.000  0.001  0.033
   24  0.022  0.000  0.001  0.022
   25  0.022  0.000  0.001  0.023
   26  0.022  0.000  0.001  0.023
   27  0.022  0.000  0.001  0.022
   28  0.006  0.000  0.000  0.006
   29  0.007  0.001  0.000  0.008
   30  0.007  0.001  0.000  0.008
   31  0.007  0.001  0.000  0.008
   32  0.007  0.001  0.000  0.008
   33  0.007  0.001  0.000  0.008
   34  0.007  0.001  0.000  0.008
   35  0.006  0.000  0.000  0.006
   36  0.027  0.004  0.000  0.031
   37  0.001  0.002  0.000  0.003
tot    0.529  0.018  0.013  0.560
 
band     3 # energy   -5.56468116 # occ.  2.00000000
 
ion      s      p      d    tot
    1  0.008  0.000  0.001  0.009
    2  0.010  0.001  0.000  0.011
    3  0.010  0.001  0.000  0.011
    4  0.010  0.001  0.000  0.011
    5  0.010  0.001  0.000  0.011
    6  0.010  0.001  0.000  0.011
    7  0.010  0.001  0.000  0.011
    8  0.010  0.001  0.000  0.011
    9  0.011  0.001  0.000  0.012
   10  0.012  0.001  0.015  0.027
   11  0.014  0.001  0.009  0.024
   12  0.012  0.001  0.015  0.027
   13  0.014  0.001  0.009  0.024
   14  0.014  0.001  0.009  0.024
   15  0.016  0.001  0.007  0.024
   16  0.012  0.001  0.015  0.027
   17  0.016  0.001  0.007  0.024
   18  0.016  0.001  0.007  0.024
   19  0.004  0.001  0.011  0.015
   20  0.013  0.003  0.020  0.037
   21  0.013  0.003  0.020  0.037
   22  0.003  0.001  0.007  0.011
   23  0.013  0.003  0.020  0.037
   24  0.003  0.001  0.007  0.011
   25  0.004  0.001  0.011  0.015
   26  0.004  0.001  0.011  0.015
   27  0.003  0.001  0.007  0.011
   28  0.005  0.000  0.002  0.007
   29  0.008  0.000  0.005  0.013
   30  0.008  0.000  0.005  0.013
   31  0.008  0.000  0.005  0.013
   32  0.008  0.000  0.005  0.013
   33  0.008  0.000  0.005  0.013
   34  0.008  0.000  0.005  0.013
   35  0.004  0.000  0.001  0.005
   36  0.050  0.004  0.000  0.055
   37  0.002  0.006  0.000  0.008
tot    0.382  0.038  0.243  0.663
 
band     4 # energy   -5.34413219 # occ.  2.00000000
 
ion      s      p      d    tot
    1  0.000  0.000  0.005  0.006
    2  0.001  0.000  0.002  0.003
    3  0.001  0.000  0.002  0.003
    4  0.001  0.000  0.002  0.003
    5  0.001  0.000  0.001  0.002
    6  0.001  0.000  0.002  0.003
    7  0.001  0.000  0.002  0.003
    8  0.001  0.000  0.002  0.003
    9  0.002  0.000  0.001  0.003
   10  0.001  0.000  0.017  0.018
   11  0.000  0.000  0.014  0.014
   12  0.001  0.000  0.017  0.018
   13  0.000  0.000  0.014  0.014
   14  0.000  0.000  0.014  0.014
   15  0.000  0.000  0.006  0.006
   16  0.001  0.000  0.017  0.018
   17  0.000  0.000  0.006  0.006
   18  0.000  0.000  0.006  0.006
   19  0.007  0.000  0.018  0.025
   20  0.001  0.001  0.086  0.087
   21  0.001  0.001  0.086  0.087
   22  0.004  0.000  0.014  0.018
   23  0.001  0.001  0.086  0.087
   24  0.004  0.000  0.014  0.018
   25  0.007  0.000  0.018  0.025
   26  0.007  0.000  0.018  0.025
   27  0.004  0.000  0.014  0.018
   28  0.001  0.000  0.011  0.012
   29  0.007  0.000  0.027  0.035
   30  0.007  0.000  0.027  0.035
   31  0.007  0.000  0.027  0.035
   32  0.007  0.000  0.027  0.035
   33  0.007  0.000  0.027  0.035
   34  0.007  0.000  0.027  0.035
   35  0.003  0.000  0.011  0.013
   36  0.046  0.001  0.019  0.066
   37  0.001  0.000  0.000  0.001
tot    0.143  0.007  0.687  0.837
 
band     5 # energy   -5.26033719 # occ.  2.00000000
 
ion      s      p      d    tot
    1  0.007  0.001  0.000  0.008
    2  0.001  0.000  0.002  0.003
    3  0.001  0.000  0.002  0.003
    4  0.001  0.000  0.002  0.003
    5  0.000  0.000  0.001  0.001
    6  0.001  0.000  0.002  0.003
    7  0.001  0.000  0.002  0.003
    8  0.001  0.000  0.002  0.003
    9  0.000  0.000  0.000  0.001
   10  0.006  0.000  0.013  0.019
   11  0.000  0.000  0.009  0.009
   12  0.006  0.000  0.013  0.019
   13  0.000  0.000  0.009  0.009
   14  0.000  0.000  0.009  0.009
   15  0.000  0.001  0.003  0.004
   16  0.006  0.000  0.013  0.019
   17  0.000  0.001  0.003  0.004
   18  0.000  0.001  0.003  0.004
   19  0.000  0.001  0.027  0.028
   20  0.003  0.001  0.138  0.142
   21  0.003  0.001  0.138  0.142
   22  0.016  0.000  0.004  0.021
   23  0.003  0.001  0.138  0.142
   24  0.016  0.000  0.004  0.021
   25  0.000  0.001  0.027  0.028
   26  0.000  0.001  0.027  0.028
   27  0.016  0.000  0.004  0.021
   28  0.004  0.000  0.000  0.004
   29  0.004  0.000  0.003  0.007
   30  0.004  0.000  0.003  0.007
   31  0.004  0.000  0.003  0.007
   32  0.004  0.000  0.003  0.007
   33  0.004  0.000  0.003  0.007
   34  0.004  0.000  0.003  0.007
   35  0.012  0.001  0.000  0.013
   36  0.009  0.005  0.036  0.049
   37  0.002  0.017  0.000  0.019
tot    0.137  0.034  0.653  0.824
 
band     6 # energy   -5.16098066 # occ.  2.00000000
 
ion      s      p      d    tot
    1  0.000  0.000  0.005  0.005
    2  0.000  0.000  0.001  0.002
    3  0.000  0.000  0.002  0.002
    4  0.001  0.000  0.001  0.002
    5  0.000  0.000  0.003  0.003
    6  0.000  0.000  0.002  0.002
    7  0.001  0.000  0.001  0.002
    8  0.000  0.000  0.001  0.002
    9  0.000  0.000  0.001  0.001
   10  0.002  0.001  0.016  0.018
   11  0.000  0.001  0.021  0.021
   12  0.005  0.001  0.014  0.020
   13  0.001  0.000  0.016  0.017
   14  0.000  0.000  0.020  0.021
   15  0.000  0.000  0.004  0.005
   16  0.001  0.001  0.017  0.018
   17  0.002  0.000  0.008  0.010
   18  0.001  0.000  0.005  0.005
   19  0.004  0.001  0.022  0.027
   20  0.009  0.000  0.145  0.154
   21  0.029  0.000  0.008  0.038
   22  0.001  0.001  0.030  0.031
   23  0.006  0.000  0.167  0.173
   24  0.000  0.001  0.037  0.038
   25  0.006  0.001  0.025  0.032
   26  0.018  0.000  0.041  0.059
   27  0.000  0.001  0.038  0.039
   28  0.000  0.000  0.004  0.004
   29  0.000  0.000  0.007  0.008
   30  0.001  0.001  0.005  0.007
   31  0.000  0.000  0.008  0.009
   32  0.001  0.001  0.006  0.007
   33  0.000  0.000  0.008  0.009
   34  0.000  0.000  0.008  0.008
   35  0.000  0.000  0.001  0.001
   36  0.000  0.002  0.018  0.020
   37  0.000  0.004  0.000  0.004
tot    0.088  0.018  0.718  0.824
 
band     7 # energy   -5.16095767 # occ.  2.00000000
 
ion      s      p      d    tot
    1  0.000  0.000  0.005  0.005
    2  0.000  0.000  0.002  0.002
    3  0.001  0.000  0.001  0.002
    4  0.000  0.000  0.002  0.002
    5  0.000  0.000  0.003  0.003
    6  0.000  0.000  0.001  0.002
    7  0.000  0.000  0.002  0.002
    8  0.000  0.000  0.002  0.002
    9  0.000  0.000  0.001  0.001
   10  0.004  0.001  0.015  0.019
   11  0.000  0.000  0.017  0.018
   12  0.000  0.000  0.017  0.018
   13  0.000  0.001  0.022  0.022
   14  0.000  0.000  0.018  0.019
   15  0.002  0.000  0.007  0.009
   16  0.004  0.001  0.015  0.020
   17  0.000  0.000  0.003  0.003
   18  0.001  0.000  0.006  0.008
   19  0.015  0.000  0.036  0.052
   20  0.020  0.000  0.069  0.089
   21  0.000  0.000  0.205  0.206
   22  0.000  0.001  0.040  0.041
   23  0.024  0.000  0.046  0.070
   24  0.000  0.001  0.033  0.034
   25  0.013  0.001  0.034  0.047
   26  0.000  0.001  0.018  0.019
   27  0.000  0.001  0.032  0.033
   28  0.000  0.000  0.004  0.004
   29  0.001  0.000  0.007  0.008
   30  0.000  0.000  0.009  0.009
   31  0.001  0.000  0.006  0.007
   32  0.000  0.000  0.009  0.009
   33  0.001  0.001  0.006  0.007
   34  0.001  0.000  0.006  0.008
   35  0.000  0.000  0.001  0.001
   36  0.000  0.002  0.018  0.020
   37  0.000  0.004  0.000  0.004
tot    0.088  0.018  0.718  0.824
 
band     8 # energy   -5.11246978 # occ.  2.00000000
 
ion      s      p      d    tot
    1  0.015  0.000  0.008  0.023
    2  0.010  0.000  0.021  0.031
    3  0.010  0.000  0.021  0.031
    4  0.010  0.000  0.021  0.031
    5  0.012  0.000  0.030  0.043
    6  0.010  0.000  0.021  0.031
    7  0.010  0.000  0.021  0.031
    8  0.010  0.000  0.021  0.031
    9  0.005  0.000  0.019  0.025
   10  0.000  0.001  0.013  0.014
   11  0.002  0.000  0.042  0.044
   12  0.000  0.001  0.013  0.014
   13  0.002  0.000  0.042  0.044
   14  0.002  0.000  0.042  0.044
   15  0.002  0.000  0.023  0.025
   16  0.000  0.001  0.013  0.014
   17  0.002  0.000  0.023  0.025
   18  0.002  0.000  0.023  0.025
   19  0.003  0.000  0.002  0.005
   20  0.000  0.000  0.042  0.042
   21  0.000  0.000  0.042  0.042
   22  0.000  0.000  0.016  0.017
   23  0.000  0.000  0.042  0.042
   24  0.000  0.000  0.016  0.017
   25  0.003  0.000  0.002  0.005
   26  0.003  0.000  0.002  0.005
   27  0.000  0.000  0.016  0.017
   28  0.004  0.000  0.000  0.005
   29  0.000  0.000  0.011  0.011
   30  0.000  0.000  0.011  0.011
   31  0.000  0.000  0.011  0.011
   32  0.000  0.000  0.011  0.011
   33  0.000  0.000  0.011  0.011
   34  0.000  0.000  0.011  0.011
   35  0.001  0.000  0.003  0.004
   36  0.006  0.000  0.001  0.008
   37  0.000  0.000  0.000  0.000
tot    0.127  0.008  0.669  0.804
 
band     9 # energy   -5.09374423 # occ.  2.00000000
 
ion      s      p      d    tot
    1  0.000  0.000  0.005  0.005
    2  0.001  0.000  0.002  0.003
    3  0.001  0.001  0.006  0.008
    4  0.000  0.000  0.004  0.004
    5  0.000  0.000  0.007  0.008
    6  0.001  0.001  0.006  0.008
    7  0.000  0.000  0.004  0.004
    8  0.001  0.000  0.002  0.003
    9  0.000  0.000  0.001  0.001
   10  0.006  0.001  0.034  0.041
   11  0.023  0.001  0.035  0.058
   12  0.000  0.000  0.088  0.088
   13  0.000  0.001  0.089  0.090
   14  0.023  0.001  0.034  0.058
   15  0.004  0.000  0.025  0.030
   16  0.006  0.001  0.035  0.042
   17  0.000  0.001  0.005  0.007
   18  0.004  0.000  0.026  0.031
   19  0.000  0.000  0.014  0.015
   20  0.010  0.001  0.053  0.064
   21  0.000  0.001  0.032  0.033
   22  0.000  0.000  0.020  0.020
   23  0.010  0.001  0.053  0.063
   24  0.007  0.001  0.011  0.018
   25  0.000  0.000  0.014  0.015
   26  0.000  0.000  0.021  0.021
   27  0.007  0.001  0.011  0.018
   28  0.000  0.000  0.001  0.001
   29  0.001  0.000  0.006  0.007
   30  0.000  0.000  0.004  0.004
   31  0.002  0.000  0.007  0.010
   32  0.000  0.000  0.003  0.004
   33  0.002  0.000  0.007  0.009
   34  0.001  0.000  0.006  0.007
   35  0.000  0.000  0.006  0.006
   36  0.000  0.001  0.009  0.010
   37  0.000  0.000  0.000  0.000
tot    0.110  0.016  0.689  0.815
 
band    10 # energy   -5.09373010 # occ.  2.00000000
 
ion      s      p      d    tot
    1  0.000  0.000  0.005  0.005
    2  0.001  0.000  0.006  0.007
    3  0.000  0.000  0.002  0.002
    4  0.001  0.001  0.005  0.006
    5  0.000  0.000  0.007  0.008
    6  0.000  0.000  0.002  0.002
    7  0.001  0.001  0.005  0.006
    8  0.001  0.000  0.006  0.007
    9  0.000  0.000  0.001  0.001
   10  0.002  0.000  0.071  0.074
   11  0.008  0.001  0.070  0.079
   12  0.008  0.001  0.017  0.026
   13  0.031  0.001  0.016  0.048
   14  0.007  0.001  0.071  0.080
   15  0.001  0.001  0.012  0.015
   16  0.002  0.000  0.070  0.072
   17  0.006  0.000  0.032  0.038
   18  0.001  0.001  0.012  0.014
   19  0.000  0.000  0.019  0.019
   20  0.003  0.001  0.039  0.043
   21  0.013  0.000  0.060  0.073
   22  0.009  0.001  0.008  0.018
   23  0.003  0.001  0.039  0.044
   24  0.002  0.000  0.017  0.020
   25  0.000  0.000  0.019  0.019
   26  0.000  0.000  0.012  0.013
   27  0.002  0.000  0.017  0.020
   28  0.000  0.000  0.001  0.001
   29  0.001  0.000  0.005  0.006
   30  0.002  0.000  0.008  0.010
   31  0.000  0.000  0.004  0.004
   32  0.002  0.000  0.008  0.010
   33  0.000  0.000  0.004  0.004
   34  0.001  0.000  0.005  0.007
   35  0.000  0.000  0.006  0.006
   36  0.000  0.001  0.009  0.010
   37  0.000  0.000  0.000  0.000
tot    0.110  0.016  0.689  0.815
 
band    11 # energy   -5.06373183 # occ.  2.00000000
 
ion      s      p      d    tot
    1  0.000  0.000  0.003  0.004
    2  0.001  0.000  0.008  0.010
    3  0.001  0.000  0.008  0.010
    4  0.001  0.000  0.008  0.010
    5  0.007  0.001  0.000  0.008
    6  0.001  0.000  0.008  0.010
    7  0.001  0.000  0.008  0.010
    8  0.001  0.000  0.008  0.010
    9  0.000  0.000  0.011  0.011
   10  0.008  0.001  0.007  0.016
   11  0.011  0.001  0.041  0.053
   12  0.008  0.001  0.007  0.016
   13  0.011  0.001  0.041  0.053
   14  0.011  0.001  0.041  0.053
   15  0.003  0.000  0.042  0.045
   16  0.008  0.001  0.007  0.016
   17  0.003  0.000  0.042  0.046
   18  0.003  0.000  0.042  0.045
   19  0.010  0.001  0.027  0.037
   20  0.005  0.001  0.033  0.039
   21  0.005  0.001  0.033  0.039
   22  0.000  0.000  0.028  0.029
   23  0.005  0.001  0.033  0.039
   24  0.000  0.000  0.028  0.029
   25  0.010  0.001  0.027  0.038
   26  0.010  0.001  0.027  0.038
   27  0.000  0.000  0.028  0.029
   28  0.002  0.001  0.004  0.006
   29  0.000  0.000  0.006  0.007
   30  0.000  0.000  0.006  0.007
   31  0.000  0.000  0.006  0.007
   32  0.000  0.000  0.006  0.007
   33  0.000  0.000  0.006  0.007
   34  0.000  0.000  0.006  0.007
   35  0.001  0.000  0.000  0.001
   36  0.001  0.000  0.001  0.002
   37  0.000  0.000  0.000  0.000
tot    0.132  0.018  0.644  0.794
 
band    12 # energy   -5.04902812 # occ.  2.00000000
 
ion      s      p      d    tot
    1  0.003  0.000  0.022  0.025
    2  0.005  0.000  0.015  0.020
    3  0.005  0.000  0.015  0.020
    4  0.005  0.000  0.015  0.020
    5  0.001  0.000  0.008  0.010
    6  0.005  0.000  0.015  0.020
    7  0.005  0.000  0.015  0.020
    8  0.005  0.000  0.015  0.020
    9  0.014  0.000  0.010  0.025
   10  0.001  0.000  0.022  0.024
   11  0.003  0.000  0.007  0.010
   12  0.001  0.000  0.022  0.024
   13  0.003  0.000  0.007  0.010
   14  0.003  0.000  0.006  0.010
   15  0.000  0.000  0.017  0.017
   16  0.001  0.000  0.022  0.024
   17  0.000  0.000  0.017  0.017
   18  0.000  0.000  0.017  0.017
   19  0.003  0.001  0.008  0.012
   20  0.004  0.000  0.022  0.027
   21  0.004  0.000  0.022  0.027
   22  0.003  0.000  0.043  0.047
   23  0.004  0.000  0.022  0.027
   24  0.003  0.000  0.043  0.047
   25  0.003  0.001  0.008  0.012
   26  0.003  0.001  0.008  0.012
   27  0.003  0.000  0.043  0.047
   28  0.016  0.001  0.004  0.021
   29  0.005  0.000  0.018  0.023
   30  0.005  0.000  0.018  0.023
   31  0.005  0.000  0.018  0.023
   32  0.005  0.000  0.018  0.023
   33  0.005  0.000  0.018  0.023
   34  0.005  0.000  0.018  0.023
   35  0.004  0.000  0.030  0.034
   36  0.000  0.001  0.004  0.005
   37  0.000  0.001  0.000  0.001
tot    0.147  0.010  0.635  0.792
 
band    13 # energy   -5.03840103 # occ.  2.00000000
 
ion      s      p      d    tot
    1  0.000  0.001  0.007  0.007
    2  0.002  0.001  0.005  0.008
    3  0.000  0.000  0.005  0.005
    4  0.004  0.001  0.004  0.008
    5  0.000  0.000  0.007  0.007
    6  0.000  0.000  0.005  0.005
    7  0.004  0.001  0.004  0.008
    8  0.002  0.001  0.005  0.008
    9  0.000  0.000  0.012  0.012
   10  0.010  0.000  0.017  0.026
   11  0.000  0.000  0.014  0.014
   12  0.000  0.000  0.024  0.024
   13  0.000  0.000  0.010  0.011
   14  0.000  0.000  0.013  0.014
   15  0.005  0.000  0.020  0.025
   16  0.010  0.000  0.016  0.026
   17  0.000  0.000  0.032  0.032
   18  0.005  0.000  0.020  0.025
   19  0.009  0.000  0.028  0.037
   20  0.001  0.001  0.053  0.054
   21  0.000  0.001  0.018  0.019
   22  0.000  0.000  0.067  0.068
   23  0.001  0.000  0.055  0.056
   24  0.016  0.000  0.029  0.045
   25  0.008  0.000  0.032  0.041
   26  0.000  0.000  0.104  0.104
   27  0.017  0.000  0.027  0.044
   28  0.000  0.000  0.008  0.008
   29  0.002  0.001  0.012  0.015
   30  0.004  0.001  0.005  0.010
   31  0.000  0.000  0.006  0.006
   32  0.004  0.001  0.005  0.009
   33  0.000  0.000  0.006  0.007
   34  0.002  0.001  0.012  0.015
   35  0.000  0.000  0.006  0.006
   36  0.000  0.000  0.005  0.005
   37  0.000  0.000  0.000  0.000
tot    0.107  0.012  0.698  0.818
 
band    14 # energy   -5.03837708 # occ.  2.00000000
 
ion      s      p      d    tot
    1  0.000  0.001  0.007  0.007
    2  0.002  0.000  0.004  0.006
    3  0.004  0.001  0.005  0.009
    4  0.000  0.000  0.006  0.006
    5  0.000  0.000  0.007  0.007
    6  0.004  0.001  0.005  0.009
    7  0.000  0.000  0.005  0.006
    8  0.002  0.000  0.004  0.006
    9  0.000  0.000  0.012  0.012
   10  0.004  0.000  0.021  0.025
   11  0.000  0.000  0.011  0.012
   12  0.013  0.000  0.014  0.027
   13  0.001  0.000  0.015  0.015
   14  0.000  0.000  0.011  0.012
   15  0.002  0.000  0.029  0.030
   16  0.003  0.000  0.022  0.025
   17  0.007  0.000  0.016  0.023
   18  0.002  0.000  0.028  0.030
   19  0.003  0.000  0.082  0.085
   20  0.000  0.001  0.031  0.032
   21  0.001  0.000  0.066  0.067
   22  0.022  0.000  0.015  0.037
   23  0.000  0.001  0.029  0.030
   24  0.006  0.000  0.053  0.059
   25  0.003  0.000  0.078  0.081
   26  0.012  0.000  0.006  0.017
   27  0.005  0.000  0.055  0.061
   28  0.000  0.000  0.008  0.008
   29  0.002  0.000  0.003  0.006
   30  0.000  0.000  0.010  0.011
   31  0.004  0.001  0.009  0.014
   32  0.000  0.000  0.011  0.011
   33  0.004  0.001  0.009  0.014
   34  0.002  0.000  0.003  0.006
   35  0.000  0.000  0.006  0.006
   36  0.000  0.000  0.005  0.005
   37  0.000  0.000  0.000  0.000
tot    0.107  0.012  0.698  0.818
 
band    15 # energy   -5.02876435 # occ.  2.00000000
 
ion      s      p      d    tot
    1  0.001  0.000  0.011  0.011
    2  0.000  0.000  0.005  0.005
    3  0.000  0.000  0.005  0.005
    4  0.000  0.000  0.005  0.005
    5  0.000  0.000  0.000  0.000
    6  0.000  0.000  0.005  0.005
    7  0.000  0.000  0.005  0.005
    8  0.000  0.000  0.005  0.005
    9  0.001  0.000  0.004  0.005
   10  0.001  0.000  0.074  0.075
   11  0.002  0.001  0.014  0.017
   12  0.001  0.000  0.074  0.075
   13  0.002  0.001  0.014  0.017
   14  0.002  0.001  0.014  0.017
   15  0.008  0.000  0.037  0.045
   16  0.001  0.000  0.074  0.076
   17  0.008  0.000  0.037  0.046
   18  0.008  0.000  0.037  0.045
   19  0.004  0.000  0.040  0.044
   20  0.000  0.001  0.014  0.015
   21  0.000  0.001  0.014  0.015
   22  0.000  0.000  0.041  0.041
   23  0.000  0.001  0.015  0.015
   24  0.000  0.000  0.041  0.041
   25  0.004  0.000  0.040  0.044
   26  0.004  0.000  0.040  0.044
   27  0.000  0.000  0.041  0.041
   28  0.001  0.000  0.012  0.013
   29  0.000  0.000  0.011  0.011
   30  0.000  0.000  0.011  0.011
   31  0.000  0.000  0.011  0.011
   32  0.000  0.000  0.011  0.011
   33  0.000  0.000  0.011  0.011
   34  0.000  0.000  0.011  0.011
   35  0.000  0.000  0.001  0.001
   36  0.001  0.000  0.000  0.002
   37  0.000  0.000  0.000  0.001
tot    0.053  0.009  0.783  0.845
 
band    16 # energy   -5.01629907 # occ.  2.00000000
 
ion      s      p      d    tot
    1  0.000  0.000  0.008  0.009
    2  0.000  0.000  0.008  0.008
    3  0.002  0.000  0.004  0.005
    4  0.001  0.001  0.008  0.010
    5  0.000  0.000  0.001  0.001
    6  0.001  0.000  0.003  0.005
    7  0.001  0.001  0.008  0.009
    8  0.000  0.000  0.007  0.008
    9  0.000  0.000  0.011  0.012
   10  0.008  0.000  0.039  0.047
   11  0.001  0.000  0.036  0.037
   12  0.000  0.001  0.017  0.018
   13  0.000  0.000  0.062  0.063
   14  0.001  0.000  0.033  0.034
   15  0.011  0.000  0.042  0.054
   16  0.007  0.000  0.037  0.044
   17  0.000  0.000  0.119  0.120
   18  0.012  0.000  0.035  0.047
   19  0.000  0.000  0.022  0.023
   20  0.000  0.000  0.029  0.029
   21  0.000  0.000  0.006  0.006
   22  0.000  0.000  0.028  0.028
   23  0.000  0.000  0.027  0.027
   24  0.000  0.000  0.030  0.031
   25  0.000  0.000  0.020  0.020
   26  0.000  0.000  0.053  0.053
   27  0.000  0.000  0.030  0.030
   28  0.000  0.000  0.012  0.012
   29  0.002  0.000  0.006  0.009
   30  0.000  0.000  0.005  0.005
   31  0.001  0.000  0.005  0.007
   32  0.000  0.000  0.005  0.005
   33  0.001  0.000  0.005  0.007
   34  0.002  0.000  0.006  0.008
   35  0.000  0.000  0.012  0.012
   36  0.000  0.000  0.000  0.001
   37  0.000  0.000  0.000  0.000
tot    0.052  0.008  0.784  0.844
 
band    17 # energy   -5.01627230 # occ.  2.00000000
 
ion      s      p      d    tot
    1  0.000  0.000  0.008  0.009
    2  0.001  0.001  0.005  0.007
    3  0.000  0.000  0.009  0.010
    4  0.001  0.000  0.005  0.006
    5  0.000  0.000  0.001  0.001
    6  0.000  0.000  0.009  0.010
    7  0.001  0.000  0.005  0.006
    8  0.001  0.001  0.005  0.007
    9  0.000  0.000  0.011  0.012
   10  0.002  0.000  0.023  0.026
   11  0.000  0.000  0.052  0.053
   12  0.010  0.000  0.045  0.055
   13  0.001  0.000  0.025  0.027
   14  0.000  0.000  0.055  0.055
   15  0.004  0.000  0.089  0.093
   16  0.003  0.000  0.025  0.028
   17  0.016  0.000  0.011  0.027
   18  0.003  0.000  0.096  0.100
   19  0.000  0.000  0.041  0.041
   20  0.000  0.000  0.012  0.013
   21  0.000  0.000  0.035  0.035
   22  0.000  0.000  0.031  0.032
   23  0.000  0.000  0.014  0.015
   24  0.000  0.000  0.028  0.029
   25  0.000  0.000  0.044  0.044
   26  0.000  0.001  0.010  0.011
   27  0.000  0.000  0.029  0.029
   28  0.000  0.000  0.012  0.012
   29  0.000  0.000  0.005  0.005
   30  0.002  0.000  0.006  0.008
   31  0.001  0.000  0.006  0.007
   32  0.002  0.000  0.006  0.008
   33  0.001  0.000  0.006  0.007
   34  0.000  0.000  0.005  0.005
   35  0.000  0.000  0.012  0.012
   36  0.000  0.000  0.000  0.001
   37  0.000  0.000  0.000  0.000
tot    0.052  0.008  0.784  0.844
 
band    18 # energy   -4.94960897 # occ.  2.00000000
 
ion      s      p      d    tot
    1  0.000  0.000  0.001  0.001
    2  0.000  0.000  0.005  0.005
    3  0.000  0.000  0.005  0.006
    4  0.001  0.001  0.005  0.007
    5  0.000  0.001  0.014  0.014
    6  0.001  0.001  0.005  0.007
    7  0.001  0.000  0.004  0.005
    8  0.001  0.000  0.004  0.005
    9  0.000  0.000  0.006  0.006
   10  0.000  0.001  0.015  0.016
   11  0.000  0.000  0.055  0.055
   12  0.001  0.001  0.019  0.020
   13  0.004  0.000  0.046  0.050
   14  0.003  0.000  0.049  0.052
   15  0.000  0.000  0.008  0.008
   16  0.000  0.000  0.004  0.005
   17  0.002  0.000  0.014  0.016
   18  0.001  0.000  0.012  0.013
   19  0.000  0.000  0.001  0.001
   20  0.001  0.000  0.118  0.119
   21  0.001  0.000  0.108  0.109
   22  0.000  0.001  0.025  0.026
   23  0.000  0.000  0.141  0.141
   24  0.000  0.001  0.029  0.029
   25  0.000  0.000  0.013  0.014
   26  0.000  0.001  0.019  0.020
   27  0.000  0.000  0.037  0.037
   28  0.000  0.000  0.001  0.001
   29  0.000  0.000  0.008  0.008
   30  0.000  0.000  0.008  0.008
   31  0.001  0.001  0.010  0.011
   32  0.000  0.000  0.009  0.010
   33  0.001  0.001  0.011  0.013
   34  0.001  0.001  0.011  0.012
   35  0.000  0.000  0.000  0.000
   36  0.000  0.002  0.020  0.022
   37  0.000  0.005  0.000  0.005
tot    0.021  0.019  0.837  0.877
 
band    19 # energy   -4.94960153 # occ.  2.00000000
 
ion      s      p      d    tot
    1  0.000  0.000  0.001  0.001
    2  0.001  0.001  0.005  0.007
    3  0.001  0.000  0.004  0.006
    4  0.000  0.000  0.004  0.005
    5  0.000  0.001  0.014  0.014
    6  0.000  0.000  0.004  0.004
    7  0.001  0.000  0.005  0.006
    8  0.001  0.001  0.005  0.007
    9  0.000  0.000  0.006  0.006
   10  0.000  0.000  0.011  0.011
   11  0.004  0.000  0.045  0.050
   12  0.000  0.000  0.006  0.007
   13  0.001  0.000  0.054  0.055
   14  0.002  0.000  0.051  0.053
   15  0.002  0.000  0.014  0.017
   16  0.001  0.001  0.021  0.022
   17  0.000  0.000  0.009  0.009
   18  0.001  0.000  0.010  0.011
   19  0.000  0.001  0.021  0.022
   20  0.000  0.000  0.126  0.127
   21  0.000  0.000  0.136  0.137
   22  0.000  0.000  0.035  0.036
   23  0.001  0.000  0.103  0.105
   24  0.000  0.000  0.032  0.032
   25  0.000  0.000  0.009  0.009
   26  0.000  0.000  0.003  0.003
   27  0.000  0.001  0.023  0.024
   28  0.000  0.000  0.001  0.001
   29  0.001  0.001  0.011  0.012
   30  0.001  0.001  0.011  0.013
   31  0.000  0.000  0.009  0.009
   32  0.001  0.000  0.010  0.011
   33  0.000  0.000  0.008  0.008
   34  0.000  0.000  0.008  0.009
   35  0.000  0.000  0.000  0.000
   36  0.000  0.002  0.020  0.022
   37  0.000  0.005  0.000  0.005
tot    0.021  0.019  0.837  0.877
 
band    20 # energy   -4.91629515 # occ.  2.00000000
 
ion      s      p      d    tot
    1  0.000  0.000  0.000  0.000
    2  0.000  0.000  0.003  0.003
    3  0.000  0.000  0.003  0.003
    4  0.000  0.000  0.003  0.003
    5  0.002  0.001  0.018  0.020
    6  0.000  0.000  0.003  0.003
    7  0.000  0.000  0.003  0.003
    8  0.000  0.000  0.003  0.003
    9  0.000  0.000  0.008  0.009
   10  0.001  0.000  0.005  0.007
   11  0.000  0.001  0.088  0.089
   12  0.001  0.000  0.005  0.007
   13  0.000  0.001  0.088  0.089
   14  0.000  0.001  0.088  0.089
   15  0.001  0.001  0.041  0.042
   16  0.001  0.000  0.005  0.007
   17  0.001  0.001  0.041  0.042
   18  0.001  0.001  0.041  0.042
   19  0.001  0.000  0.014  0.015
   20  0.002  0.000  0.048  0.050
   21  0.002  0.000  0.048  0.050
   22  0.004  0.000  0.021  0.026
   23  0.002  0.000  0.048  0.050
   24  0.004  0.000  0.021  0.026
   25  0.001  0.000  0.014  0.015
   26  0.001  0.000  0.014  0.015
   27  0.004  0.000  0.021  0.026
   28  0.004  0.001  0.001  0.005
   29  0.000  0.001  0.016  0.017
   30  0.000  0.001  0.016  0.017
   31  0.000  0.001  0.016  0.017
   32  0.000  0.001  0.016  0.017
   33  0.000  0.001  0.016  0.017
   34  0.000  0.001  0.016  0.017
   35  0.006  0.001  0.001  0.008
   36  0.001  0.000  0.005  0.006
   37  0.000  0.003  0.000  0.003
tot    0.043  0.015  0.802  0.860
 
band    21 # energy   -4.86429525 # occ.  2.00000000
 
ion      s      p      d    tot
    1  0.000  0.000  0.001  0.001
    2  0.000  0.001  0.015  0.016
    3  0.000  0.001  0.015  0.016
    4  0.000  0.001  0.015  0.016
    5  0.006  0.001  0.000  0.007
    6  0.000  0.001  0.015  0.016
    7  0.000  0.001  0.015  0.016
    8  0.000  0.001  0.015  0.016
    9  0.005  0.001  0.000  0.006
   10  0.003  0.000  0.032  0.035
   11  0.000  0.000  0.031  0.032
   12  0.003  0.000  0.032  0.035
   13  0.000  0.000  0.031  0.032
   14  0.000  0.000  0.031  0.032
   15  0.006  0.000  0.012  0.018
   16  0.003  0.000  0.032  0.035
   17  0.006  0.000  0.012  0.018
   18  0.006  0.000  0.012  0.018
   19  0.000  0.000  0.060  0.060
   20  0.000  0.000  0.010  0.011
   21  0.000  0.000  0.010  0.011
   22  0.000  0.001  0.039  0.041
   23  0.000  0.000  0.010  0.011
   24  0.000  0.001  0.039  0.041
   25  0.000  0.000  0.060  0.060
   26  0.000  0.000  0.060  0.060
   27  0.000  0.001  0.039  0.041
   28  0.001  0.000  0.031  0.033
   29  0.001  0.000  0.015  0.016
   30  0.001  0.000  0.015  0.016
   31  0.001  0.000  0.015  0.016
   32  0.001  0.000  0.015  0.016
   33  0.001  0.000  0.015  0.017
   34  0.001  0.000  0.015  0.016
   35  0.007  0.001  0.000  0.008
   36  0.003  0.001  0.000  0.004