 vasp.6.2.0 18Jan21 (build Jun 12 2021 23:27:24) complex                        
  
 executed on             LinuxIFC date 2022.05.27  06:21:02
 running on   28 total cores
 distrk:  each k-point on   28 cores,    1 groups
 distr:  one band on NCORE=   1 cores,   28 groups


--------------------------------------------------------------------------------------------------------


 INCAR:
   ISMEAR = -5
   SIGMA = 0.1
   ISPIN = 1
   EDIFF = 1.d-5
   EDIFFG = -0.01
   NSW = 0
   NELM = 150
   ENCUT = 500
   ISIF = 2
   IBRION = 2
   LREAL = Auto
   ALGO = Fast
   ICHARG = 11
   LORBIT = 10
   LCHARG = .F.
   LWAVE = .F.

 POTCAR:    PAW_PBE Cu 22Jun2005                  
 POTCAR:    PAW_PBE Ir 06Sep2000                  
 POTCAR:    PAW_PBE H 15Jun2001                   
 -----------------------------------------------------------------------------
|                                                                             |
|           W    W    AA    RRRRR   N    N  II  N    N   GGGG   !!!           |
|           W    W   A  A   R    R  NN   N  II  NN   N  G    G  !!!           |
|           W    W  A    A  R    R  N N  N  II  N N  N  G       !!!           |
|           W WW W  AAAAAA  RRRRR   N  N N  II  N  N N  G  GGG   !            |
|           WW  WW  A    A  R   R   N   NN  II  N   NN  G    G                |
|           W    W  A    A  R    R  N    N  II  N    N   GGGG   !!!           |
|                                                                             |
|     For optimal performance we recommend to set                             |
|       NCORE = 2 up to number-of-cores-per-socket                            |
|     NCORE specifies how many cores store one orbital (NPAR=cpu/NCORE).      |
|     This setting can greatly improve the performance of VASP for DFT.       |
|     The default, NCORE=1 might be grossly inefficient on modern             |
|     multi-core architectures or massively parallel machines. Do your        |
|     own testing! More info at https://www.vasp.at/wiki/index.php/NCORE      |
|     Unfortunately you need to use the default for GW and RPA                |
|     calculations (for HF NCORE is supported but not extensively tested      |
|     yet).                                                                   |
|                                                                             |
 -----------------------------------------------------------------------------

 POTCAR:    PAW_PBE Cu 22Jun2005                  
   VRHFIN =Cu: d10 p1                                                                               
   LEXCH  = PE                                                                                      
   EATOM  =  1390.9808 eV,  102.2342 Ry                                                             
                                                                                                    
   TITEL  = PAW_PBE Cu 22Jun2005                                                                    
   LULTRA =        F    use ultrasoft PP ?                                                          
   IUNSCR =        1    unscreen: 0-lin 1-nonlin 2-no                                               
   RPACOR =    2.000    partial core radius                                                         
   POMASS =   63.546; ZVAL   =   11.000    mass and valenz                                          
   RCORE  =    2.300    outmost cutoff radius                                                       
   RWIGS  =    2.200; RWIGS  =    1.164    wigner-seitz radius (au A)                               
   ENMAX  =  295.446; ENMIN  =  221.585 eV                                                          
   ICORE  =        3    local potential                                                             
   LCOR   =        T    correct aug charges                                                         
   LPAW   =        T    paw PP                                                                      
   EAUG   =  586.980                                                                                
   DEXC   =    0.000                                                                                
   RMAX   =    2.344    core radius for proj-oper                                                   
   RAUG   =    1.300    factor for augmentation sphere                                              
   RDEP   =    2.302    radius for radial grids                                                     
   RDEPT  =    1.771    core radius for aug-charge                                                  
                                                                                                    
   Atomic configuration                                                                             
    9 entries                                                                                       
     n  l   j            E        occ.                                                              
     1  0  0.50     -8850.2468   2.0000                                                             
     2  0  0.50     -1062.3498   2.0000                                                             
     2  1  1.50      -916.8226   6.0000                                                             
     3  0  0.50      -114.6929   2.0000                                                             
     3  1  1.50       -72.1325   6.0000                                                             
     3  2  2.50        -5.0394  10.0000                                                             
     4  0  0.50        -4.6097   1.0000                                                             
     4  1  0.50        -4.0817   0.0000                                                             
     4  3  2.50        -1.3606   0.0000                                                             
   Description                                                                                      
     l       E           TYP  RCUT    TYP  RCUT                                                     
     2     -5.0393973     23  2.200                                                                 
     2     10.8846608     23  2.200                                                                 
     0     -4.6097109     23  2.200                                                                 
     0      8.2520465     23  2.200                                                                 
     1     -2.7211652     23  2.200                                                                 
     1     21.7055443     23  2.200                                                                 
     3      2.7211652     23  2.300                                                                 
  local pseudopotential read in
  partial core-charges read in
  partial kinetic energy density read in
  atomic valenz-charges read in
  non local Contribution for L=           2  read in
    real space projection operators read in
  non local Contribution for L=           2  read in
    real space projection operators read in
  non local Contribution for L=           0  read in
    real space projection operators read in
  non local Contribution for L=           0  read in
    real space projection operators read in
  non local Contribution for L=           1  read in
    real space projection operators read in
  non local Contribution for L=           1  read in
    real space projection operators read in
    PAW grid and wavefunctions read in
 
   number of l-projection  operators is LMAX  =           6
   number of lm-projection operators is LMMAX =          18
 
 POTCAR:    PAW_PBE Ir 06Sep2000                  
   VRHFIN =Ir: s1d8                                                                                 
   LEXCH  = PE                                                                                      
   EATOM  =   560.1833 eV,   41.1723 Ry                                                             
                                                                                                    
   TITEL  = PAW_PBE Ir 06Sep2000                                                                    
   LULTRA =        F    use ultrasoft PP ?                                                          
   IUNSCR =        1    unscreen: 0-lin 1-nonlin 2-no                                               
   RPACOR =    2.250    partial core radius                                                         
   POMASS =  192.220; ZVAL   =    9.000    mass and valenz                                          
   RCORE  =    2.600    outmost cutoff radius                                                       
   RWIGS  =    2.690; RWIGS  =    1.423    wigner-seitz radius (au A)                               
   ENMAX  =  210.864; ENMIN  =  158.148 eV                                                          
   RCLOC  =    1.857    cutoff for local pot                                                        
   LCOR   =        T    correct aug charges                                                         
   LPAW   =        T    paw PP                                                                      
   EAUG   =  318.962                                                                                
   DEXC   =    0.000                                                                                
   RMAX   =    2.667    core radius for proj-oper                                                   
   RAUG   =    1.300    factor for augmentation sphere                                              
   RDEP   =    2.748    radius for radial grids                                                     
   RDEPT  =    2.300    core radius for aug-charge                                                  
                                                                                                    
   Atomic configuration                                                                             
   16 entries                                                                                       
     n  l   j            E        occ.                                                              
     1  0  0.50    -76100.0449   2.0000                                                             
     2  0  0.50    -13308.1683   2.0000                                                             
     2  1  1.50    -11558.0021   6.0000                                                             
     3  0  0.50     -3110.7274   2.0000                                                             
     3  1  1.50     -2599.2109   6.0000                                                             
     3  2  2.50     -2037.1515  10.0000                                                             
     4  0  0.50      -661.6001   2.0000                                                             
     4  1  1.50      -493.8981   6.0000                                                             
     4  2  2.50      -288.1909  10.0000                                                             
     4  3  3.50       -59.5718  14.0000                                                             
     5  0  0.50       -95.3879   2.0000                                                             
     5  1  1.50       -52.2747   6.0000                                                             
     5  2  2.50        -5.4180   8.0000                                                             
     6  0  0.50        -5.5479   1.0000                                                             
     6  1  1.50        -6.8029   0.0000                                                             
     5  3  2.50        -1.3606   0.0000                                                             
   Description                                                                                      
     l       E           TYP  RCUT    TYP  RCUT                                                     
     2     -5.4179967     23  2.600                                                                 
     2     -6.7785793     23  2.600                                                                 
     0     -5.5478636     23  2.600                                                                 
     0      2.2542272     23  2.600                                                                 
     1     -2.7211652     23  2.600                                                                 
     1     20.4087390     23  2.600                                                                 
  local pseudopotential read in
  partial core-charges read in
  partial kinetic energy density read in
  atomic valenz-charges read in
  non local Contribution for L=           2  read in
    real space projection operators read in
  non local Contribution for L=           2  read in
    real space projection operators read in
  non local Contribution for L=           0  read in
    real space projection operators read in
  non local Contribution for L=           0  read in
    real space projection operators read in
  non local Contribution for L=           1  read in
    real space projection operators read in
  non local Contribution for L=           1  read in
    real space projection operators read in
    PAW grid and wavefunctions read in
 
   number of l-projection  operators is LMAX  =           6
   number of lm-projection operators is LMMAX =          18
 
 POTCAR:    PAW_PBE H 15Jun2001                   
   VRHFIN =H: ultrasoft test                                                                        
   LEXCH  = PE                                                                                      
   EATOM  =    12.4884 eV,    0.9179 Ry                                                             
                                                                                                    
   TITEL  = PAW_PBE H 15Jun2001                                                                     
   LULTRA =        F    use ultrasoft PP ?                                                          
   IUNSCR =        0    unscreen: 0-lin 1-nonlin 2-no                                               
   RPACOR =    0.000    partial core radius                                                         
   POMASS =    1.000; ZVAL   =    1.000    mass and valenz                                          
   RCORE  =    1.100    outmost cutoff radius                                                       
   RWIGS  =    0.700; RWIGS  =    0.370    wigner-seitz radius (au A)                               
   ENMAX  =  250.000; ENMIN  =  200.000 eV                                                          
   RCLOC  =    0.701    cutoff for local pot                                                        
   LCOR   =        T    correct aug charges                                                         
   LPAW   =        T    paw PP                                                                      
   EAUG   =  400.000                                                                                
   RMAX   =    1.123    core radius for proj-oper                                                   
   RAUG   =    1.200    factor for augmentation sphere                                              
   RDEP   =    1.112    radius for radial grids                                                     
   RDEPT  =    0.926    core radius for aug-charge                                                  
                                                                                                    
   Atomic configuration                                                                             
    2 entries                                                                                       
     n  l   j            E        occ.                                                              
     1  0  0.50        -6.4927   1.0000                                                             
     2  1  0.50        -3.4015   0.0000                                                             
   Description                                                                                      
     l       E           TYP  RCUT    TYP  RCUT                                                     
     0     -6.4927494     23  1.100                                                                 
     0      6.8029130     23  1.100                                                                 
     1     -4.0817478     23  1.100                                                                 
  local pseudopotential read in
  atomic valenz-charges read in
  non local Contribution for L=           0  read in
    real space projection operators read in
  non local Contribution for L=           0  read in
    real space projection operators read in
  non local Contribution for L=           1  read in
    real space projection operators read in
    PAW grid and wavefunctions read in
 
   number of l-projection  operators is LMAX  =           3
   number of lm-projection operators is LMMAX =           5
 
 Optimization of the real space projectors (new method)

 maximal supplied QI-value         = 16.25
 optimisation between [QCUT,QGAM] = [ 11.38, 22.75] = [ 36.24,144.96] Ry 
 Optimized for a Real-space Cutoff    1.52 Angstroem

   l    n(q)    QCUT    max X(q) W(low)/X(q) W(high)/X(q)  e(spline) 
   2      9    11.376     4.610    0.21E-03    0.10E-03    0.26E-06
   2      9    11.376     8.522    0.33E-03    0.16E-03    0.37E-06
   0     10    11.376    51.609    0.62E-04    0.20E-04    0.13E-06
   0     10    11.376    27.747    0.54E-04    0.20E-04    0.13E-06
   1     10    11.376    20.408    0.13E-04    0.99E-04    0.19E-06
   1     10    11.376    13.425    0.12E-04    0.87E-04    0.17E-06
 Optimization of the real space projectors (new method)

 maximal supplied QI-value         = 14.36
 optimisation between [QCUT,QGAM] = [ 11.35, 22.84] = [ 36.05,146.02] Ry 
 Optimized for a Real-space Cutoff    1.52 Angstroem

   l    n(q)    QCUT    max X(q) W(low)/X(q) W(high)/X(q)  e(spline) 
   2      9    11.346   134.116    0.47E-03    0.13E-03    0.92E-06
   2      9    11.346   130.192    0.47E-03    0.13E-03    0.92E-06
   0     10    11.346    60.310    0.74E-04    0.13E-03    0.69E-06
   0     10    11.346    39.218    0.68E-04    0.12E-03    0.65E-06
   1     10    11.346    18.439    0.15E-03    0.34E-04    0.20E-06
   1     10    11.346    12.760    0.12E-03    0.31E-04    0.16E-06
 Optimization of the real space projectors (new method)

 maximal supplied QI-value         = 34.20
 optimisation between [QCUT,QGAM] = [ 11.29, 22.57] = [ 35.68,142.71] Ry 
 Optimized for a Real-space Cutoff    1.16 Angstroem

   l    n(q)    QCUT    max X(q) W(low)/X(q) W(high)/X(q)  e(spline) 
   0      8    11.287    19.460    0.40E-03    0.73E-03    0.16E-06
   0      8    11.287    12.209    0.38E-03    0.70E-03    0.15E-06
   1      7    11.287     4.655    0.22E-03    0.25E-04    0.22E-06
  PAW_PBE Cu 22Jun2005                  :
 energy of atom  1       EATOM=-1390.9808
 kinetic energy error for atom=    0.0043 (will be added to EATOM!!)
  PAW_PBE Ir 06Sep2000                  :
 energy of atom  2       EATOM= -560.1833
 kinetic energy error for atom=    0.0018 (will be added to EATOM!!)
  PAW_PBE H 15Jun2001                   :
 energy of atom  3       EATOM=  -12.4884
 kinetic energy error for atom=    0.0020 (will be added to EATOM!!)
 
 
 POSCAR: Cu-Ir-H2
  positions in direct lattice
  velocities in cartesian coordinates
 exchange correlation table for  LEXCH =        8
   RHO(1)=    0.500       N(1)  =     2000
   RHO(2)=  100.500       N(2)  =     4000

 VTST: version 3.2, (02/03/18)

 CHAIN: initializing optimizer
 
 OPT: Using VASP Conjugate-Gradient optimizer
 CHAIN: Read ICHAIN            0
 
 POSCAR: Cu-Ir-H2
  positions in direct lattice
  velocities in cartesian coordinates
 


--------------------------------------------------------------------------------------------------------


 ion  position               nearest neighbor table
   1  0.000  0.000  0.252-   7 2.57   3 2.57   4 2.57   2 2.57   6 2.57   8 2.57  12 2.57  10 2.57
                            16 2.57
   2  0.333  0.000  0.252-   8 2.57   9 2.57   5 2.57   1 2.57   3 2.57  11 2.57   4 2.57  10 2.57
                            17 2.57
   3  0.667  0.000  0.252-   1 2.57   7 2.57   6 2.57   9 2.57   2 2.57  12 2.57   5 2.57  18 2.57
                            11 2.57
   4  0.000  0.333  0.252-   5 2.57   6 2.57   1 2.57   7 2.57   2 2.57  13 2.57   9 2.57  10 2.57
                            15 2.57
   5  0.333  0.333  0.252-   4 2.57   2 2.57   7 2.57  13 2.57   8 2.57   6 2.57   3 2.57  11 2.57
                            14 2.57
   6  0.667  0.333  0.252-   4 2.57   9 2.57  15 2.57   3 2.57   1 2.57   8 2.57  14 2.57   5 2.57
                            12 2.57
   7  0.000  0.667  0.252-   1 2.57   3 2.57  16 2.57  18 2.57   4 2.57   5 2.57   8 2.57   9 2.57
                            13 2.57
   8  0.333  0.667  0.252-   9 2.57   2 2.57  17 2.57   6 2.57   1 2.57   7 2.57   5 2.57  14 2.57
                            16 2.57
   9  0.667  0.667  0.252-   8 2.57   6 2.57   2 2.57  17 2.57   3 2.57   7 2.57   4 2.57  15 2.57
                            18 2.57
  10  0.111  0.111  0.351-  20 2.53  11 2.57  12 2.57  13 2.57   1 2.57   2 2.57   4 2.57  15 2.57
                            16 2.57  17 2.57  26 2.57  19 2.57
  11  0.444  0.111  0.351-  20 2.55  21 2.55  10 2.57  13 2.57   2 2.57  17 2.57  14 2.57  12 2.57
                             5 2.57   3 2.57  18 2.57  27 2.57
  12  0.778  0.111  0.351-  21 2.53  15 2.57  10 2.57  14 2.57  18 2.57   3 2.57   1 2.57  16 2.57
                            11 2.57   6 2.57  19 2.57  25 2.57
  13  0.111  0.444  0.351-  23 2.55  20 2.55  16 2.57  18 2.57  10 2.57  11 2.57  14 2.57   5 2.57
                             4 2.57   7 2.57  15 2.57  22 2.57
  14  0.444  0.444  0.351-  21 2.55  23 2.55  15 2.57  17 2.57  12 2.57  16 2.57  13 2.57  11 2.57
                             6 2.57   8 2.57   5 2.57  24 2.57
  15  0.778  0.444  0.351-  19 2.56  24 2.56  22 2.56  14 2.57  17 2.57  12 2.57   6 2.57  18 2.57
                            10 2.57   9 2.57  13 2.57   4 2.57
  16  0.111  0.778  0.351-  23 2.53  18 2.57  13 2.57   7 2.57  14 2.57  17 2.57  12 2.57  10 2.57
                             8 2.57   1 2.57  25 2.57  26 2.57
  17  0.444  0.778  0.351-  26 2.56  27 2.56  24 2.56  14 2.57  15 2.57   8 2.57   9 2.57  11 2.57
                            16 2.57  18 2.57  10 2.57   2 2.57
  18  0.778  0.778  0.351-  25 2.56  22 2.56  27 2.56  16 2.57  13 2.57   7 2.57  15 2.57  12 2.57
                            17 2.57   9 2.57   3 2.57  11 2.57
  19  0.888  0.223  0.449-  28 2.55  21 2.55  20 2.55  22 2.56  24 2.56  15 2.56  32 2.56  31 2.56
                            12 2.57  10 2.57  25 2.58  26 2.58
  20  0.221  0.221  0.448-  10 2.53  11 2.55  13 2.55  26 2.55  19 2.55  36 2.55  27 2.57  22 2.57
                            29 2.59  31 2.59  23 2.59  21 2.59
  21  0.558  0.221  0.448-  12 2.53  14 2.55  11 2.55  19 2.55  25 2.55  36 2.55  24 2.57  27 2.57
                            32 2.59  30 2.59  20 2.59  23 2.59
  22  0.888  0.556  0.449-  35 2.54  24 2.56  27 2.56  19 2.56  25 2.56  18 2.56  15 2.56  13 2.57
                            23 2.57  20 2.57  31 2.57  33 2.57
  23  0.221  0.558  0.448-  16 2.53  13 2.55  14 2.55  25 2.55  26 2.55  36 2.55  22 2.57  24 2.57
                            33 2.59  34 2.59  20 2.59  21 2.59
  24  0.556  0.556  0.449-  35 2.54  22 2.56  27 2.56  19 2.56  26 2.56  15 2.56  17 2.56  14 2.57
                            21 2.57  23 2.57  32 2.57  34 2.57
  25  0.888  0.888  0.449-  28 2.55  21 2.55  23 2.55  22 2.56  27 2.56  18 2.56  33 2.56  30 2.56
                            16 2.57  12 2.57  19 2.58  26 2.58
  26  0.223  0.888  0.449-  28 2.55  20 2.55  23 2.55  27 2.56  24 2.56  17 2.56  29 2.56  34 2.56
                            10 2.57  16 2.57  25 2.58  19 2.58
  27  0.556  0.888  0.449-  35 2.54  24 2.56  22 2.56  26 2.56  25 2.56  17 2.56  18 2.56  11 2.57
                            20 2.57  21 2.57  29 2.57  30 2.57
  28  0.000  0.000  0.546-  25 2.55  19 2.55  26 2.55  33 2.56  30 2.56  31 2.56  29 2.56  32 2.56
                            34 2.56
  29  0.333  0.999  0.548-  34 2.55  28 2.56  26 2.56  35 2.57  31 2.57  27 2.57  36 2.57  30 2.58
                            20 2.59
  30  0.668  0.999  0.548-  33 2.55  28 2.56  25 2.56  35 2.57  32 2.57  27 2.57  36 2.57  29 2.58
                            21 2.59
  31  0.999  0.333  0.548-  32 2.55  28 2.56  19 2.56  35 2.57  29 2.57  22 2.57  36 2.57  33 2.58
                            20 2.59
  32  0.668  0.333  0.548-  31 2.55  28 2.56  19 2.56  35 2.57  30 2.57  24 2.57  36 2.57  34 2.58
                            21 2.59
  33  0.999  0.668  0.548-  30 2.55  28 2.56  25 2.56  35 2.57  34 2.57  22 2.57  36 2.57  31 2.58
                            23 2.59
  34  0.333  0.668  0.548-  29 2.55  28 2.56  26 2.56  35 2.57  33 2.57  24 2.57  36 2.57  32 2.58
                            23 2.59
  35  0.667  0.667  0.546-  24 2.54  27 2.54  22 2.54  34 2.57  32 2.57  29 2.57  30 2.57  33 2.57
                            31 2.57
  36  0.333  0.333  0.545-  37 1.66  38 1.66  23 2.55  20 2.55  21 2.55  31 2.57  29 2.57  33 2.57
                            34 2.57  32 2.57  30 2.57
  37  0.219  0.287  0.603-  36 1.66
  38  0.494  0.287  0.603-  36 1.66
 
  LATTYP: Found a hexagonal cell.
 ALAT       =     7.6967864036
 C/A-ratio  =     2.7653617908
  
  Lattice vectors:
  
 A1 = (  -3.8483927580,  -6.6656128093,   0.0000000000)
 A2 = (   7.6967864037,   0.0000000000,   0.0000000000)
 A3 = (   0.0000000000,   0.0000000000,  21.2843990326)


Analysis of symmetry for initial positions (statically):
=====================================================================
 Subroutine PRICEL returns:
 Original cell was already a primitive cell.
 

 Routine SETGRP: Setting up the symmetry group for a 
 hexagonal supercell.


 Subroutine GETGRP returns: Found  2 space group operations
 (whereof  2 operations were pure point group operations)
 out of a pool of 24 trial point group operations.


The static configuration has the point symmetry C_1h.


Analysis of symmetry for dynamics (positions and initial velocities):
=====================================================================
 Subroutine PRICEL returns:
 Original cell was already a primitive cell.
 

 Routine SETGRP: Setting up the symmetry group for a 
 hexagonal supercell.


 Subroutine GETGRP returns: Found  2 space group operations
 (whereof  2 operations were pure point group operations)
 out of a pool of 24 trial point group operations.


The dynamic configuration has the point symmetry C_1h.


Analysis of constrained symmetry for selective dynamics:
=====================================================================
 Subroutine PRICEL returns:
 Original cell was already a primitive cell.
 

 Routine SETGRP: Setting up the symmetry group for a 
 hexagonal supercell.


 Subroutine GETGRP returns: Found  2 space group operations
 (whereof  2 operations were pure point group operations)
 out of a pool of 24 trial point group operations.


The constrained configuration has the point symmetry C_1h.


 Subroutine INISYM returns: Found  2 space group operations
 (whereof  2 operations are pure point group operations),
 and found     1 'primitive' translations


----------------------------------------------------------------------------------------

                                     Primitive cell                                     

  volume of cell :    1091.9705

  direct lattice vectors                    reciprocal lattice vectors
     7.696786404  0.000000000  0.000000000     0.129924354 -0.075011849  0.000000000
     3.848392758  6.665612809  0.000000000     0.000000000  0.150023716  0.000000000
     0.000000000  0.000000000 21.284399033     0.000000000  0.000000000  0.046982769

  length of vectors
     7.696786404  7.696786404 21.284399033     0.150023716  0.150023716  0.046982769

  position of ions in fractional coordinates (direct lattice)
     0.000000000  0.000000000  0.252370745
     0.333333343  0.000000000  0.252370745
     0.666666687  0.000000000  0.252370745
     1.000000000  0.333333343  0.252370745
     0.333333313  0.333333343  0.252370745
     0.666666687  0.333333343  0.252370745
     1.000000000  0.666666687  0.252370745
     0.333333373  0.666666687  0.252370745
     0.666666627  0.666666687  0.252370745
     0.111111119  0.111111112  0.350790262
     0.444444418  0.111111112  0.350790262
     0.777777791  0.111111112  0.350790262
     0.111111119  0.444444448  0.350790262
     0.444444478  0.444444448  0.350790262
     0.777777731  0.444444448  0.350790262
     0.111111112  0.777777731  0.350790262
     0.444444478  0.777777731  0.350790262
     0.777777851  0.777777731  0.350790262
     0.888405840  0.223188336  0.449235545
     0.221047320  0.221047305  0.447812217
     0.557905420  0.221047305  0.447812217
     0.888076192  0.555961874  0.449167313
     0.221047290  0.557905360  0.447812217
     0.555961934  0.555961874  0.449167313
     0.888405840  0.888405840  0.449235545
     0.223188351  0.888405840  0.449235545
     0.555961874  0.888076192  0.449167313
     0.000000000  0.000000000  0.546410358
     0.332763824  0.999227797  0.547870318
     0.668008409  0.999227797  0.547870318
     0.999227797  0.332763824  0.547870318
     0.668008409  0.332763824  0.547870318
     0.999227797  0.668008409  0.547870318
     0.332763854  0.668008409  0.547870318
     0.666666627  0.666666687  0.546369580
     0.333333313  0.333333343  0.545005776
     0.218899812  0.286991907  0.602966782
     0.494108249  0.286991907  0.602966782

  ion indices of the primitive-cell ions
   primitive index   ion index
                 1           1
                 2           2
                 3           3
                 4           4
                 5           5
                 6           6
                 7           7
                 8           8
                 9           9
                10          10
                11          11
                12          12
                13          13
                14          14
                15          15
                16          16
                17          17
                18          18
                19          19
                20          20
                21          21
                22          22
                23          23
                24          24
                25          25
                26          26
                27          27
                28          28
                29          29
                30          30
                31          31
                32          32
                33          33
                34          34
                35          35
                36          36
                37          37
                38          38

----------------------------------------------------------------------------------------

 
 
 KPOINTS: Automatic mesh                          

Automatic generation of k-mesh.
 Grid dimensions read from file:
 generate k-points for:    8    8    1

 Generating k-lattice:

  Cartesian coordinates                     Fractional coordinates (reciprocal lattice)
     0.016240544 -0.009376481  0.000000000     0.125000000 -0.000000000  0.000000000
     0.000000000  0.018752964  0.000000000     0.000000000  0.125000000  0.000000000
     0.000000000  0.000000000  0.046982769     0.000000000  0.000000000  1.000000000

  Length of vectors
     0.018752964  0.018752964  0.046982769

  Shift w.r.t. Gamma in fractional coordinates (k-lattice)
     0.000000000  0.000000000  0.000000000

 TETIRR: Found    100 inequivalent tetrahedra from      384
 
 Subroutine IBZKPT returns following result:
 ===========================================
 
 Found     21 irreducible k-points:
 
 Following reciprocal coordinates:
            Coordinates               Weight
  0.000000  0.000000  0.000000      1.000000
  0.125000 -0.000000  0.000000      4.000000
  0.000000  0.125000  0.000000      2.000000
  0.250000 -0.000000  0.000000      4.000000
  0.000000  0.250000  0.000000      2.000000
  0.375000 -0.000000  0.000000      4.000000
  0.000000  0.375000  0.000000      2.000000
  0.500000 -0.000000  0.000000      2.000000
  0.000000  0.500000  0.000000      1.000000
  0.250000  0.125000  0.000000      2.000000
  0.125000  0.250000  0.000000      4.000000
  0.375000  0.125000  0.000000      4.000000
  0.250000  0.375000  0.000000      4.000000
 -0.125000  0.250000  0.000000      4.000000
  0.500000  0.125000  0.000000      4.000000
  0.375000  0.500000  0.000000      4.000000
 -0.125000  0.375000  0.000000      4.000000
  0.500000  0.250000  0.000000      2.000000
  0.250000  0.500000  0.000000      4.000000
 -0.375000  0.250000  0.000000      4.000000
 -0.250000  0.375000  0.000000      2.000000
 
 Following cartesian coordinates:
            Coordinates               Weight
  0.000000  0.000000  0.000000      1.000000
  0.016241 -0.009376  0.000000      4.000000
  0.000000  0.018753  0.000000      2.000000
  0.032481 -0.018753  0.000000      4.000000
  0.000000  0.037506  0.000000      2.000000
  0.048722 -0.028129  0.000000      4.000000
  0.000000  0.056259  0.000000      2.000000
  0.064962 -0.037506  0.000000      2.000000
  0.000000  0.075012  0.000000      1.000000
  0.032481  0.000000  0.000000      2.000000
  0.016241  0.028129  0.000000      4.000000
  0.048722 -0.009376  0.000000      4.000000
  0.032481  0.037506  0.000000      4.000000
 -0.016241  0.046882  0.000000      4.000000
  0.064962 -0.018753  0.000000      4.000000
  0.048722  0.046882  0.000000      4.000000
 -0.016241  0.065635  0.000000      4.000000
  0.064962  0.000000  0.000000      2.000000
  0.032481  0.056259  0.000000      4.000000
 -0.048722  0.065635  0.000000      4.000000
 -0.032481  0.075012  0.000000      2.000000
 


--------------------------------------------------------------------------------------------------------




 Dimension of arrays:
   k-points           NKPTS =     21   k-points in BZ     NKDIM =     21   number of bands    NBANDS=    252
   number of dos      NEDOS =    301   number of ions     NIONS =     38
   non local maximal  LDIM  =      6   non local SUM 2l+1 LMDIM =     18
   total plane-waves  NPLWV = 211680
   max r-space proj   IRMAX =   2893   max aug-charges    IRDMAX=  14216
   dimension x,y,z NGX =    42 NGY =   42 NGZ =  120
   dimension x,y,z NGXF=    84 NGYF=   84 NGZF=  240
   support grid    NGXF=    84 NGYF=   84 NGZF=  240
   ions per type =              35   1   2
   NGX,Y,Z   is equivalent  to a cutoff of   9.07,  9.07,  9.37 a.u.
   NGXF,Y,Z  is equivalent  to a cutoff of  18.14, 18.14, 18.75 a.u.

 SYSTEM =  unknown system                          
 POSCAR =  Cu-Ir-H2                                

 Startparameter for this run:
   NWRITE =      2    write-flag & timer
   PREC   = normal    normal or accurate (medium, high low for compatibility)
   ISTART =      0    job   : 0-new  1-cont  2-samecut
   ICHARG =     11    charge: 1-file 2-atom 10-const
   ISPIN  =      1    spin polarized calculation?
   LNONCOLLINEAR =      F non collinear calculations
   LSORBIT =      F    spin-orbit coupling
   INIWAV =      1    electr: 0-lowe 1-rand  2-diag
   LASPH  =      F    aspherical Exc in radial PAW
   METAGGA=      F    non-selfconsistent MetaGGA calc.

 Electronic Relaxation 1
   ENCUT  =  500.0 eV  36.75 Ry    6.06 a.u.  14.03 14.03 38.81*2*pi/ulx,y,z
   ENINI  =  500.0     initial cutoff
   ENAUG  =  587.0 eV  augmentation charge cutoff
   NELM   =    150;   NELMIN=  2; NELMDL= -5     # of ELM steps 
   EDIFF  = 0.1E-04   stopping-criterion for ELM
   LREAL  =      T    real-space projection
   NLSPLINE    = F    spline interpolate recip. space projectors
   LCOMPAT=      F    compatible to vasp.4.4
   GGA_COMPAT  = T    GGA compatible to vasp.4.4-vasp.4.6
   LMAXPAW     = -100 max onsite density
   LMAXMIX     =    2 max onsite mixed and CHGCAR
   VOSKOWN=      0    Vosko Wilk Nusair interpolation
   ROPT   =   -0.00050  -0.00050  -0.00050
 Ionic relaxation
   EDIFFG = -.1E-01   stopping-criterion for IOM
   NSW    =      0    number of steps for IOM
   NBLOCK =      1;   KBLOCK =      1    inner block; outer block 
   IBRION =     -1    ionic relax: 0-MD 1-quasi-New 2-CG
   NFREE  =      1    steps in history (QN), initial steepest desc. (CG)
   ISIF   =      2    stress and relaxation
   IWAVPR =     10    prediction:  0-non 1-charg 2-wave 3-comb
   ISYM   =      2    0-nonsym 1-usesym 2-fastsym
   LCORR  =      T    Harris-Foulkes like correction to forces

   POTIM  = 0.5000    time-step for ionic-motion
   TEIN   =    0.0    initial temperature
   TEBEG  =    0.0;   TEEND  =   0.0 temperature during run
   SMASS  =  -3.00    Nose mass-parameter (am)
   estimated Nose-frequenzy (Omega)   =  0.10E-29 period in steps = 0.13E+47 mass=  -0.135E-26a.u.
   SCALEE = 1.0000    scale energy and forces
   NPACO  =    256;   APACO  = 16.0  distance and # of slots for P.C.
   PSTRESS=    0.0 pullay stress

  Mass of Ions in am
   POMASS =  63.55192.22  1.00
  Ionic Valenz
   ZVAL   =  11.00  9.00  1.00
  Atomic Wigner-Seitz radii
   RWIGS  =  -1.00 -1.00 -1.00
  virtual crystal weights 
   VCA    =   1.00  1.00  1.00
   NELECT =     396.0000    total number of electrons
   NUPDOWN=      -1.0000    fix difference up-down

 DOS related values:
   EMIN   =  10.00;   EMAX   =-10.00  energy-range for DOS
   EFERMI =   0.00
   ISMEAR =    -5;   SIGMA  =   0.10  broadening in eV -4-tet -1-fermi 0-gaus

 Electronic relaxation 2 (details)
   IALGO  =     68    algorithm
   LDIAG  =      T    sub-space diagonalisation (order eigenvalues)
   LSUBROT=      F    optimize rotation matrix (better conditioning)
   TURBO    =      0    0=normal 1=particle mesh
   IRESTART =      0    0=no restart 2=restart with 2 vectors
   NREBOOT  =      0    no. of reboots
   NMIN     =      0    reboot dimension
   EREF     =   0.00    reference energy to select bands
   IMIX   =      4    mixing-type and parameters
     AMIX     =   0.40;   BMIX     =  1.00
     AMIX_MAG =   1.60;   BMIX_MAG =  1.00
     AMIN     =   0.10
     WC   =   100.;   INIMIX=   1;  MIXPRE=   1;  MAXMIX= -45

 Intra band minimization:
   WEIMIN = 0.0000     energy-eigenvalue tresh-hold
   EBREAK =  0.99E-08  absolut break condition
   DEPER  =   0.30     relativ break condition  

   TIME   =   0.40     timestep for ELM

  volume/ion in A,a.u.               =      28.74       193.92
  Fermi-wavevector in a.u.,A,eV,Ry     =   1.167445  2.206150 18.543744  1.362927
  Thomas-Fermi vector in A             =   2.303945
 
 Write flags
   LWAVE        =      F    write WAVECAR
   LDOWNSAMPLE  =      F    k-point downsampling of WAVECAR
   LCHARG       =      F    write CHGCAR
   LVTOT        =      F    write LOCPOT, total local potential
   LVHAR        =      F    write LOCPOT, Hartree potential only
   LELF         =      F    write electronic localiz. function (ELF)
   LORBIT       =     10    0 simple, 1 ext, 2 COOP (PROOUT), +10 PAW based schemes


 Dipole corrections
   LMONO  =      F    monopole corrections only (constant potential shift)
   LDIPOL =      F    correct potential (dipole corrections)
   IDIPOL =      0    1-x, 2-y, 3-z, 4-all directions 
   EPSILON=  1.0000000 bulk dielectric constant

 Exchange correlation treatment:
   GGA     =    --    GGA type
   LEXCH   =     8    internal setting for exchange type
   VOSKOWN=      0    Vosko Wilk Nusair interpolation
   LHFCALC =     F    Hartree Fock is set to
   LHFONE  =     F    Hartree Fock one center treatment
   AEXX    =    0.0000 exact exchange contribution

 Linear response parameters
   LEPSILON=     F    determine dielectric tensor
   LRPA    =     F    only Hartree local field effects (RPA)
   LNABLA  =     F    use nabla operator in PAW spheres
   LVEL    =     F    velocity operator in full k-point grid
   LINTERFAST=   F  fast interpolation
   KINTER  =     0    interpolate to denser k-point grid
   CSHIFT  =0.1000    complex shift for real part using Kramers Kronig
   OMEGAMAX=  -1.0    maximum frequency
   DEG_THRESHOLD= 0.2000000E-02 threshold for treating states as degnerate
   RTIME   =   -0.100 relaxation time in fs
  (WPLASMAI=    0.000 imaginary part of plasma frequency in eV, 0.658/RTIME)
   DFIELD  = 0.0000000 0.0000000 0.0000000 field for delta impulse in time
 
 Orbital magnetization related:
   ORBITALMAG=     F  switch on orbital magnetization
   LCHIMAG   =     F  perturbation theory with respect to B field
   DQ        =  0.001000  dq finite difference perturbation B field
   LLRAUG    =     F  two centre corrections for induced B field



--------------------------------------------------------------------------------------------------------


 Static calculation
 charge density and potential remain constant during run
 non-spin polarized calculation
 RMM-DIIS sequential band-by-band and
  variant of blocked Davidson during initial phase
 perform sub-space diagonalisation
    before iterative eigenvector-optimisation
 no mixing
 using additional bands           54
 real space projection scheme for non local part
 use partial core corrections
 calculate Harris-corrections to forces 
   (improved forces if not selfconsistent)
 use gradient corrections 
 WARNING: stress and forces are not correct
  (second derivative of E(xc) not defined)
 use of overlap-Matrix (Vanderbilt PP)
 Fermi weights with tetrahedron method with Bloechl corrections


--------------------------------------------------------------------------------------------------------


  energy-cutoff  :      500.00
  volume of cell :     1091.97
      direct lattice vectors                 reciprocal lattice vectors
     7.696786404  0.000000000  0.000000000     0.129924354 -0.075011849  0.000000000
     3.848392758  6.665612809  0.000000000     0.000000000  0.150023716  0.000000000
     0.000000000  0.000000000 21.284399033     0.000000000  0.000000000  0.046982769

  length of vectors
     7.696786404  7.696786404 21.284399033     0.150023716  0.150023716  0.046982769


 
 k-points in units of 2pi/SCALE and weight: Automatic mesh                          
   0.00000000  0.00000000  0.00000000       0.016
   0.01624054 -0.00937648  0.00000000       0.062
   0.00000000  0.01875296  0.00000000       0.031
   0.03248109 -0.01875296  0.00000000       0.062
   0.00000000  0.03750593  0.00000000       0.031
   0.04872163 -0.02812944  0.00000000       0.062
   0.00000000  0.05625889  0.00000000       0.031
   0.06496218 -0.03750592  0.00000000       0.031
   0.00000000  0.07501186  0.00000000       0.016
   0.03248109  0.00000000  0.00000000       0.031
   0.01624054  0.02812945  0.00000000       0.062
   0.04872163 -0.00937648  0.00000000       0.062
   0.03248109  0.03750593  0.00000000       0.062
  -0.01624054  0.04688241  0.00000000       0.062
   0.06496218 -0.01875296  0.00000000       0.062
   0.04872163  0.04688241  0.00000000       0.062
  -0.01624054  0.06563537  0.00000000       0.062
   0.06496218  0.00000000  0.00000000       0.031
   0.03248109  0.05625890  0.00000000       0.062
  -0.04872163  0.06563537  0.00000000       0.062
  -0.03248109  0.07501186  0.00000000       0.031
 
 k-points in reciprocal lattice and weights: Automatic mesh                          
   0.00000000  0.00000000  0.00000000       0.016
   0.12500000 -0.00000000  0.00000000       0.062
   0.00000000  0.12500000  0.00000000       0.031
   0.25000000 -0.00000000  0.00000000       0.062
   0.00000000  0.25000000  0.00000000       0.031
   0.37500000 -0.00000000  0.00000000       0.062
   0.00000000  0.37500000  0.00000000       0.031
   0.50000000 -0.00000000  0.00000000       0.031
   0.00000000  0.50000000  0.00000000       0.016
   0.25000000  0.12500000  0.00000000       0.031
   0.12500000  0.25000000  0.00000000       0.062
   0.37500000  0.12500000  0.00000000       0.062
   0.25000000  0.37500000  0.00000000       0.062
  -0.12500000  0.25000000  0.00000000       0.062
   0.50000000  0.12500000  0.00000000       0.062
   0.37500000  0.50000000  0.00000000       0.062
  -0.12500000  0.37500000  0.00000000       0.062
   0.50000000  0.25000000  0.00000000       0.031
   0.25000000  0.50000000  0.00000000       0.062
  -0.37500000  0.25000000  0.00000000       0.062
  -0.25000000  0.37500000  0.00000000       0.031
 
 position of ions in fractional coordinates (direct lattice) 
   0.00000000  0.00000000  0.25237075
   0.33333334  0.00000000  0.25237075
   0.66666669  0.00000000  0.25237075
   0.00000000  0.33333334  0.25237075
   0.33333331  0.33333334  0.25237075
   0.66666669  0.33333334  0.25237075
   0.00000000  0.66666669  0.25237075
   0.33333337  0.66666669  0.25237075
   0.66666663  0.66666669  0.25237075
   0.11111112  0.11111111  0.35079026
   0.44444442  0.11111111  0.35079026
   0.77777779  0.11111111  0.35079026
   0.11111112  0.44444445  0.35079026
   0.44444448  0.44444445  0.35079026
   0.77777773  0.44444445  0.35079026
   0.11111111  0.77777773  0.35079026
   0.44444448  0.77777773  0.35079026
   0.77777785  0.77777773  0.35079026
   0.88840584  0.22318834  0.44923554
   0.22104732  0.22104730  0.44781222
   0.55790542  0.22104730  0.44781222
   0.88807619  0.55596187  0.44916731
   0.22104729  0.55790536  0.44781222
   0.55596193  0.55596187  0.44916731
   0.88840584  0.88840584  0.44923554
   0.22318835  0.88840584  0.44923554
   0.55596187  0.88807619  0.44916731
   0.00000000  0.00000000  0.54641036
   0.33276382  0.99922780  0.54787032
   0.66800841  0.99922780  0.54787032
   0.99922780  0.33276382  0.54787032
   0.66800841  0.33276382  0.54787032
   0.99922780  0.66800841  0.54787032
   0.33276385  0.66800841  0.54787032
   0.66666663  0.66666669  0.54636958
   0.33333331  0.33333334  0.54500578
   0.21889981  0.28699191  0.60296678
   0.49410825  0.28699191  0.60296678
 
 position of ions in cartesian coordinates  (Angst):
   0.00000000  0.00000000  5.37155964
   2.56559554  0.00000000  5.37155964
   5.13119109  0.00000000  5.37155964
   1.28279762  2.22187100  5.37155964
   3.84839293  2.22187100  5.37155964
   6.41398872  2.22187100  5.37155964
   2.56559525  4.44374201  5.37155964
   5.13119102  4.44374201  5.37155964
   7.69678588  4.44374201  5.37155964
   1.28279775  0.74062365  7.46635991
   3.84839295  0.74062365  7.46635991
   6.41398873  0.74062365  7.46635991
   2.56559535  2.96249461  7.46635991
   5.13119101  2.96249461  7.46635991
   7.69678586  2.96249461  7.46635991
   3.84839268  5.18436521  7.46635991
   6.41398840  5.18436521  7.46635991
   8.97958418  5.18436521  7.46635991
   7.69678637  1.48768703  9.56170860
   2.55203085  1.47341575  9.53141393
   5.14475570  1.47341575  9.53141393
   8.97489241  3.70582659  9.56025631
   3.84839272  3.71878111  9.53141393
   6.41867990  3.70582659  9.56025631
  10.25680459  5.92176935  9.56170860
   5.13676766  5.92176935  9.56170860
   7.69678578  5.91957204  9.56025631
   0.00000000  0.00000000 11.63001609
   6.40663309  6.66046561 11.66109047
   8.98693906  6.66046561 11.66109047
   8.97144882  2.21807481 11.66109047
   6.42212393  2.21807481 11.66109047
  10.26160165  4.45268541 11.66109047
   5.13197103  4.45268541 11.66109047
   7.69678588  4.44374201 11.62914817
   3.84839293  2.22187100 11.60012040
   2.78928268  1.91297693 12.83378560
   4.90750323  1.91297693 12.83378560
 


--------------------------------------------------------------------------------------------------------


 k-point   1 :   0.0000 0.0000 0.0000  plane waves:   27671
 k-point   2 :   0.1250-0.0000 0.0000  plane waves:   27649
 k-point   3 :   0.0000 0.1250 0.0000  plane waves:   27649
 k-point   4 :   0.2500-0.0000 0.0000  plane waves:   27714
 k-point   5 :   0.0000 0.2500 0.0000  plane waves:   27714
 k-point   6 :   0.3750-0.0000 0.0000  plane waves:   27740
 k-point   7 :   0.0000 0.3750 0.0000  plane waves:   27740
 k-point   8 :   0.5000-0.0000 0.0000  plane waves:   27782
 k-point   9 :   0.0000 0.5000 0.0000  plane waves:   27782
 k-point  10 :   0.2500 0.1250 0.0000  plane waves:   27698
 k-point  11 :   0.1250 0.2500 0.0000  plane waves:   27698
 k-point  12 :   0.3750 0.1250 0.0000  plane waves:   27702
 k-point  13 :   0.2500 0.3750 0.0000  plane waves:   27702
 k-point  14 :  -0.1250 0.2500 0.0000  plane waves:   27702
 k-point  15 :   0.5000 0.1250 0.0000  plane waves:   27747
 k-point  16 :   0.3750 0.5000 0.0000  plane waves:   27747
 k-point  17 :  -0.1250 0.3750 0.0000  plane waves:   27747
 k-point  18 :   0.5000 0.2500 0.0000  plane waves:   27734
 k-point  19 :   0.2500 0.5000 0.0000  plane waves:   27734
 k-point  20 :  -0.3750 0.2500 0.0000  plane waves:   27782
 k-point  21 :  -0.2500 0.3750 0.0000  plane waves:   27782

 maximum and minimum number of plane-waves per node :     27782    27649

 maximum number of plane-waves:     27782
 maximum index in each direction: 
   IXMAX=   14   IYMAX=   14   IZMAX=   38
   IXMIN=  -14   IYMIN=  -14   IZMIN=  -38


 serial   3D FFT for wavefunctions
 parallel 3D FFT for charge:
    minimum data exchange during FFTs selected (reduces bandwidth)


 total amount of memory used by VASP MPI-rank0   149743. kBytes
=======================================================================

   base      :      30000. kBytes
   nonlr-proj:      17736. kBytes
   fftplans  :       2916. kBytes
   grid      :      12390. kBytes
   one-center:        590. kBytes
   wavefun   :      86111. kBytes
 
     INWAV:  cpu time    0.0000: real time    0.0000
 initial charge density was supplied:
 number of electron     396.0000034 magnetization 
 keeping initial charge density in first step


--------------------------------------------------------------------------------------------------------


 Maximum index for non-local projection operator         2775
 Maximum index for augmentation-charges          633 (set IRDMAX)


--------------------------------------------------------------------------------------------------------


 First call to EWALD:  gamma=   0.172
 Maximum number of real-space cells 4x 4x 2
 Maximum number of reciprocal cells 2x 2x 5

    FEWALD:  cpu time    0.0013: real time    0.0014


--------------------------------------- Iteration      1(   1)  ---------------------------------------


    POTLOK:  cpu time    0.0273: real time    0.0276
    SETDIJ:  cpu time    0.0045: real time    0.0046
     EDDAV:  cpu time   11.8989: real time   11.9005
 BZINTS: Fermi energy:   13.892181;  396.000000 electrons
         Band energy: 0.262848E+04;  BLOECHL correction:   -0.027564
       DOS:  cpu time    0.0290: real time    0.0290
    --------------------------------------------
      LOOP:  cpu time   11.9597: real time   11.9617

 eigenvalue-minimisations  : 10584
 total energy-change (2. order) : 0.3550598E+04  (-0.1699457E+05)
 number of electron     396.0000034 magnetization 
 augmentation part      396.0000034 magnetization 

 Free energy of the ion-electron system (eV)
  ---------------------------------------------------
  alpha Z        PSCENC =       891.57432204
  Ewald energy   TEWEN  =    147818.58205009
  -Hartree energ DENC   =   -194873.30580441
  -exchange      EXHF   =         0.00000000
  -V(xc)+E(xc)   XCENC  =      1547.13011532
  PAW double counting   =     46468.22646546   -50199.42243938
  entropy T*S    EENTRO =         0.00000000
  eigenvalues    EBANDS =      2628.47960017
  atomic energy  EATOM  =     49269.33345640
  Solvation  Ediel_sol  =         0.00000000
  ---------------------------------------------------
  free energy    TOTEN  =      3550.59776568 eV

  energy without entropy =     3550.59776568  energy(sigma->0) =     3550.59776568


--------------------------------------------------------------------------------------------------------




--------------------------------------- Iteration      1(   2)  ---------------------------------------


     EDDAV:  cpu time   11.8991: real time   11.8994
 BZINTS: Fermi energy:    3.168996;  396.000000 electrons
         Band energy:-0.586037E+03;  BLOECHL correction:   -0.017322
       DOS:  cpu time    0.0296: real time    0.0296
    --------------------------------------------
      LOOP:  cpu time   11.9287: real time   11.9290

 eigenvalue-minimisations  : 10584
 total energy-change (2. order) :-0.3214517E+04  (-0.3077130E+04)
 number of electron     396.0000034 magnetization 
 augmentation part      396.0000034 magnetization 

 Free energy of the ion-electron system (eV)
  ---------------------------------------------------
  alpha Z        PSCENC =       891.57432204
  Ewald energy   TEWEN  =    147818.58205009
  -Hartree energ DENC   =   -194873.30580441
  -exchange      EXHF   =         0.00000000
  -V(xc)+E(xc)   XCENC  =      1547.13011532
  PAW double counting   =     46468.22646546   -50199.42243938
  entropy T*S    EENTRO =         0.00000000
  eigenvalues    EBANDS =      -586.03695978
  atomic energy  EATOM  =     49269.33345640
  Solvation  Ediel_sol  =         0.00000000
  ---------------------------------------------------
  free energy    TOTEN  =       336.08120573 eV

  energy without entropy =      336.08120573  energy(sigma->0) =      336.08120573


--------------------------------------------------------------------------------------------------------




--------------------------------------- Iteration      1(   3)  ---------------------------------------


     EDDAV:  cpu time   12.5355: real time   12.5360
 BZINTS: Fermi energy:    0.241013;  396.000000 electrons
         Band energy:-0.103743E+04;  BLOECHL correction:   -0.058091
       DOS:  cpu time    0.0253: real time    0.0253
    --------------------------------------------
      LOOP:  cpu time   12.5608: real time   12.5614

 eigenvalue-minimisations  : 11312
 total energy-change (2. order) :-0.4513960E+03  (-0.4214850E+03)
 number of electron     396.0000034 magnetization 
 augmentation part      396.0000034 magnetization 

 Free energy of the ion-electron system (eV)
  ---------------------------------------------------
  alpha Z        PSCENC =       891.57432204
  Ewald energy   TEWEN  =    147818.58205009
  -Hartree energ DENC   =   -194873.30580441
  -exchange      EXHF   =         0.00000000
  -V(xc)+E(xc)   XCENC  =      1547.13011532
  PAW double counting   =     46468.22646546   -50199.42243938
  entropy T*S    EENTRO =         0.00000000
  eigenvalues    EBANDS =     -1037.43299590
  atomic energy  EATOM  =     49269.33345640
  Solvation  Ediel_sol  =         0.00000000
  ---------------------------------------------------
  free energy    TOTEN  =      -115.31483039 eV

  energy without entropy =     -115.31483039  energy(sigma->0) =     -115.31483039


--------------------------------------------------------------------------------------------------------




--------------------------------------- Iteration      1(   4)  ---------------------------------------


     EDDAV:  cpu time   13.1351: real time   13.1353
 BZINTS: Fermi energy:    0.134305;  396.000000 electrons
         Band energy:-0.106002E+04;  BLOECHL correction:   -0.065414
       DOS:  cpu time    0.0290: real time    0.0290
    --------------------------------------------
      LOOP:  cpu time   13.1641: real time   13.1643

 eigenvalue-minimisations  : 11956
 total energy-change (2. order) :-0.2258441E+02  (-0.2236728E+02)
 number of electron     396.0000034 magnetization 
 augmentation part      396.0000034 magnetization 

 Free energy of the ion-electron system (eV)
  ---------------------------------------------------
  alpha Z        PSCENC =       891.57432204
  Ewald energy   TEWEN  =    147818.58205009
  -Hartree energ DENC   =   -194873.30580441
  -exchange      EXHF   =         0.00000000
  -V(xc)+E(xc)   XCENC  =      1547.13011532
  PAW double counting   =     46468.22646546   -50199.42243938
  entropy T*S    EENTRO =         0.00000000
  eigenvalues    EBANDS =     -1060.01740480
  atomic energy  EATOM  =     49269.33345640
  Solvation  Ediel_sol  =         0.00000000
  ---------------------------------------------------
  free energy    TOTEN  =      -137.89923929 eV

  energy without entropy =     -137.89923929  energy(sigma->0) =     -137.89923929


--------------------------------------------------------------------------------------------------------




--------------------------------------- Iteration      1(   5)  ---------------------------------------


     EDDAV:  cpu time   13.1352: real time   13.1353
 BZINTS: Fermi energy:    0.131823;  396.000000 electrons
         Band energy:-0.106051E+04;  BLOECHL correction:   -0.065610
       DOS:  cpu time    0.0291: real time    0.0291
    --------------------------------------------
      LOOP:  cpu time   13.1642: real time   13.1644

 eigenvalue-minimisations  : 11956
 total energy-change (2. order) :-0.4949632E+00  (-0.4946308E+00)
 number of electron     396.0000034 magnetization 
 augmentation part      396.0000034 magnetization 

 Free energy of the ion-electron system (eV)
  ---------------------------------------------------
  alpha Z        PSCENC =       891.57432204
  Ewald energy   TEWEN  =    147818.58205009
  -Hartree energ DENC   =   -194873.30580441
  -exchange      EXHF   =         0.00000000
  -V(xc)+E(xc)   XCENC  =      1547.13011532
  PAW double counting   =     46468.22646546   -50199.42243938
  entropy T*S    EENTRO =         0.00000000
  eigenvalues    EBANDS =     -1060.51236795
  atomic energy  EATOM  =     49269.33345640
  Solvation  Ediel_sol  =         0.00000000
  ---------------------------------------------------
  free energy    TOTEN  =      -138.39420244 eV

  energy without entropy =     -138.39420244  energy(sigma->0) =     -138.39420244


--------------------------------------------------------------------------------------------------------




--------------------------------------- Iteration      1(   6)  ---------------------------------------


    EDDIAG:  cpu time    2.2024: real time    2.2029
  RMM-DIIS:  cpu time    6.4186: real time    6.4187
    ORTHCH:  cpu time    0.4373: real time    0.4373
 BZINTS: Fermi energy:    0.131754;  396.000000 electrons
         Band energy:-0.106053E+04;  BLOECHL correction:   -0.065615
       DOS:  cpu time    0.0284: real time    0.0284
    --------------------------------------------
      LOOP:  cpu time    9.0867: real time    9.0873

 eigenvalue-minimisations  : 11291
 total energy-change (2. order) :-0.1538562E-01  (-0.1538486E-01)
 number of electron     396.0000034 magnetization 
 augmentation part      396.0000034 magnetization 

 Free energy of the ion-electron system (eV)
  ---------------------------------------------------
  alpha Z        PSCENC =       891.57432204
  Ewald energy   TEWEN  =    147818.58205009
  -Hartree energ DENC   =   -194873.30580441
  -exchange      EXHF   =         0.00000000
  -V(xc)+E(xc)   XCENC  =      1547.13011532
  PAW double counting   =     46468.22646546   -50199.42243938
  entropy T*S    EENTRO =         0.00000000
  eigenvalues    EBANDS =     -1060.52775357
  atomic energy  EATOM  =     49269.33345640
  Solvation  Ediel_sol  =         0.00000000
  ---------------------------------------------------
  free energy    TOTEN  =      -138.40958806 eV

  energy without entropy =     -138.40958806  energy(sigma->0) =     -138.40958806


--------------------------------------------------------------------------------------------------------




--------------------------------------- Iteration      1(   7)  ---------------------------------------


    EDDIAG:  cpu time    2.2034: real time    2.2035
  RMM-DIIS:  cpu time    9.3390: real time    9.3391
    ORTHCH:  cpu time    0.4356: real time    0.4356
 BZINTS: Fermi energy:    0.131727;  396.000000 electrons
         Band energy:-0.106053E+04;  BLOECHL correction:   -0.065617
       DOS:  cpu time    0.0296: real time    0.0296
    --------------------------------------------
      LOOP:  cpu time   12.0076: real time   12.0078

 eigenvalue-minimisations  : 16489
 total energy-change (2. order) :-0.7021223E-02  (-0.6986234E-02)
 number of electron     396.0000034 magnetization 
 augmentation part      396.0000034 magnetization 

 Free energy of the ion-electron system (eV)
  ---------------------------------------------------
  alpha Z        PSCENC =       891.57432204
  Ewald energy   TEWEN  =    147818.58205009
  -Hartree energ DENC   =   -194873.30580441
  -exchange      EXHF   =         0.00000000
  -V(xc)+E(xc)   XCENC  =      1547.13011532
  PAW double counting   =     46468.22646546   -50199.42243938
  entropy T*S    EENTRO =         0.00000000
  eigenvalues    EBANDS =     -1060.53477480
  atomic energy  EATOM  =     49269.33345640
  Solvation  Ediel_sol  =         0.00000000
  ---------------------------------------------------
  free energy    TOTEN  =      -138.41660928 eV

  energy without entropy =     -138.41660928  energy(sigma->0) =     -138.41660928


--------------------------------------------------------------------------------------------------------




--------------------------------------- Iteration      1(   8)  ---------------------------------------


    EDDIAG:  cpu time    2.2024: real time    2.2027
  RMM-DIIS:  cpu time    7.1744: real time    7.1745
    ORTHCH:  cpu time    0.4354: real time    0.4354
 BZINTS: Fermi energy:    0.131727;  396.000000 electrons
         Band energy:-0.106054E+04;  BLOECHL correction:   -0.065617
       DOS:  cpu time    0.0296: real time    0.0296
    --------------------------------------------
      LOOP:  cpu time    9.8418: real time    9.8421

 eigenvalue-minimisations  : 12695
 total energy-change (2. order) :-0.3569240E-03  (-0.3609370E-03)
 number of electron     396.0000034 magnetization 
 augmentation part      396.0000034 magnetization 

 Free energy of the ion-electron system (eV)
  ---------------------------------------------------
  alpha Z        PSCENC =       891.57432204
  Ewald energy   TEWEN  =    147818.58205009
  -Hartree energ DENC   =   -194873.30580441
  -exchange      EXHF   =         0.00000000
  -V(xc)+E(xc)   XCENC  =      1547.13011532
  PAW double counting   =     46468.22646546   -50199.42243938
  entropy T*S    EENTRO =         0.00000000
  eigenvalues    EBANDS =     -1060.53513172
  atomic energy  EATOM  =     49269.33345640
  Solvation  Ediel_sol  =         0.00000000
  ---------------------------------------------------
  free energy    TOTEN  =      -138.41696621 eV

  energy without entropy =     -138.41696621  energy(sigma->0) =     -138.41696621


--------------------------------------------------------------------------------------------------------




--------------------------------------- Iteration      1(   9)  ---------------------------------------


    EDDIAG:  cpu time    2.2035: real time    2.2037
  RMM-DIIS:  cpu time    9.1957: real time    9.1957
    ORTHCH:  cpu time    0.4359: real time    0.4359
 BZINTS: Fermi energy:    0.131727;  396.000000 electrons
         Band energy:-0.106054E+04;  BLOECHL correction:   -0.065617
       DOS:  cpu time    0.0302: real time    0.0302
    --------------------------------------------
      LOOP:  cpu time   11.8653: real time   11.8655

 eigenvalue-minimisations  : 16388
 total energy-change (2. order) :-0.1457561E-03  (-0.1450493E-03)
 number of electron     396.0000034 magnetization 
 augmentation part      396.0000034 magnetization 

 Free energy of the ion-electron system (eV)
  ---------------------------------------------------
  alpha Z        PSCENC =       891.57432204
  Ewald energy   TEWEN  =    147818.58205009
  -Hartree energ DENC   =   -194873.30580441
  -exchange      EXHF   =         0.00000000
  -V(xc)+E(xc)   XCENC  =      1547.13011532
  PAW double counting   =     46468.22646546   -50199.42243938
  entropy T*S    EENTRO =         0.00000000
  eigenvalues    EBANDS =     -1060.53527748
  atomic energy  EATOM  =     49269.33345640
  Solvation  Ediel_sol  =         0.00000000
  ---------------------------------------------------
  free energy    TOTEN  =      -138.41711196 eV

  energy without entropy =     -138.41711196  energy(sigma->0) =     -138.41711196


--------------------------------------------------------------------------------------------------------




--------------------------------------- Iteration      1(  10)  ---------------------------------------


    EDDIAG:  cpu time    2.2044: real time    2.2045
  RMM-DIIS:  cpu time    5.5575: real time    5.5576
    ORTHCH:  cpu time    0.4359: real time    0.4360
 BZINTS: Fermi energy:    0.131727;  396.000000 electrons
         Band energy:-0.106054E+04;  BLOECHL correction:   -0.065617
       DOS:  cpu time    0.0296: real time    0.0296
    --------------------------------------------
      LOOP:  cpu time    8.2274: real time    8.2276

 eigenvalue-minimisations  :  8968
 total energy-change (2. order) :-0.7528666E-05  (-0.7584001E-05)
 number of electron     396.0000034 magnetization 
 augmentation part      396.0000034 magnetization 

 Free energy of the ion-electron system (eV)
  ---------------------------------------------------
  alpha Z        PSCENC =       891.57432204
  Ewald energy   TEWEN  =    147818.58205009
  -Hartree energ DENC   =   -194873.30580441
  -exchange      EXHF   =         0.00000000
  -V(xc)+E(xc)   XCENC  =      1547.13011532
  PAW double counting   =     46468.22646546   -50199.42243938
  entropy T*S    EENTRO =         0.00000000
  eigenvalues    EBANDS =     -1060.53528500
  atomic energy  EATOM  =     49269.33345640
  Solvation  Ediel_sol  =         0.00000000
  ---------------------------------------------------
  free energy    TOTEN  =      -138.41711949 eV

  energy without entropy =     -138.41711949  energy(sigma->0) =     -138.41711949


--------------------------------------------------------------------------------------------------------




 average (electrostatic) potential at core
  the test charge radii are     0.9430  1.2793  0.5201
  (the norm of the test charge is              1.0000)
       1 -70.8449       2 -70.8209       3 -70.8209       4 -70.8212       5 -70.8216
       6 -70.8209       7 -70.8202       8 -70.8200       9 -70.8403      10 -71.1110
      11 -71.0605      12 -71.1106      13 -71.0561      14 -71.0557      15 -71.0914
      16 -71.1070      17 -71.0874      18 -71.0875      19 -71.0502      20 -71.0753
      21 -71.0749      22 -71.0630      23 -71.1098      24 -71.0626      25 -71.0469
      26 -71.0469      27 -71.0731      28 -70.7402      29 -70.7806      30 -70.7805
      31 -70.9017      32 -70.9014      33 -70.7441      34 -70.7438      35 -70.7280
      36 -57.9529      37 -36.8646      38 -36.8643
 
 
 
 E-fermi :   0.1317     XC(G=0):  -5.9088     alpha+bet : -5.3356

 Fermi energy:         0.1317270888

 k-point     1 :       0.0000    0.0000    0.0000
  band No.  band energies     occupation 
      1      -8.7322      2.00000
      2      -7.6768      2.00000
      3      -6.4409      2.00000
      4      -5.7830      2.00000
      5      -5.7259      2.00000
      6      -5.7021      2.00000
      7      -5.6942      2.00000
      8      -5.6538      2.00000
      9      -5.6343      2.00000
     10      -5.5993      2.00000
     11      -5.3084      2.00000
     12      -4.9623      2.00000
     13      -4.9406      2.00000
     14      -4.9177      2.00000
     15      -4.9049      2.00000
     16      -4.8939      2.00000
     17      -4.8744      2.00000
     18      -4.5578      2.00000
     19      -4.3186      2.00000
     20      -4.2958      2.00000
     21      -4.1872      2.00000
     22      -4.1690      2.00000
     23      -4.1597      2.00000
     24      -4.0418      2.00000
     25      -3.9452      2.00000
     26      -3.9084      2.00000
     27      -3.9014      2.00000
     28      -3.8805      2.00000
     29      -3.8769      2.00000
     30      -3.8390      2.00000
     31      -3.8188      2.00000
     32      -3.8147      2.00000
     33      -3.7473      2.00000
     34      -3.7115      2.00000
     35      -3.7074      2.00000
     36      -3.7042      2.00000
     37      -3.6895      2.00000
     38      -3.6847      2.00000
     39      -3.6840      2.00000
     40      -3.6488      2.00000
     41      -3.6468      2.00000
     42      -3.6264      2.00000
     43      -3.6096      2.00000
     44      -3.5744      2.00000
     45      -3.5738      2.00000
     46      -3.5664      2.00000
     47      -3.4634      2.00000
     48      -3.4420      2.00000
     49      -3.4417      2.00000
     50      -3.4120      2.00000
     51      -3.3981      2.00000
     52      -3.3793      2.00000
     53      -3.3478      2.00000
     54      -3.3189      2.00000
     55      -3.3039      2.00000
     56      -3.2604      2.00000
     57      -3.0737      2.00000
     58      -3.0338      2.00000
     59      -3.0334      2.00000
     60      -3.0276      2.00000
     61      -2.9913      2.00000
     62      -2.9808      2.00000
     63      -2.9319      2.00000
     64      -2.9265      2.00000
     65      -2.9206      2.00000
     66      -2.9157      2.00000
     67      -2.9121      2.00000
     68      -2.9004      2.00000
     69      -2.8692      2.00000
     70      -2.8667      2.00000
     71      -2.8624      2.00000
     72      -2.8565      2.00000
     73      -2.8352      2.00000
     74      -2.8111      2.00000
     75      -2.7739      2.00000
     76      -2.7737      2.00000
     77      -2.7225      2.00000
     78      -2.7219      2.00000
     79      -2.7022      2.00000
     80      -2.6868      2.00000
     81      -2.6789      2.00000
     82      -2.6678      2.00000
     83      -2.6620      2.00000
     84      -2.6610      2.00000
     85      -2.6037      2.00000
     86      -2.5946      2.00000
     87      -2.5782      2.00000
     88      -2.5773      2.00000
     89      -2.5755      2.00000
     90      -2.5702      2.00000
     91      -2.5517      2.00000
     92      -2.5497      2.00000
     93      -2.5483      2.00000
     94      -2.5367      2.00000
     95      -2.5199      2.00000
     96      -2.5122      2.00000
     97      -2.5116      2.00000
     98      -2.4956      2.00000
     99      -2.4859      2.00000
    100      -2.4641      2.00000
    101      -2.4572      2.00000
    102      -2.4560      2.00000
    103      -2.4421      2.00000
    104      -2.4311      2.00000
    105      -2.4199      2.00000
    106      -2.4191      2.00000
    107      -2.4081      2.00000
    108      -2.2987      2.00000
    109      -2.2860      2.00000
    110      -2.1854      2.00000
    111      -2.1771      2.00000
    112      -2.1740      2.00000
    113      -2.1715      2.00000
    114      -2.1698      2.00000
    115      -2.1684      2.00000
    116      -2.1630      2.00000
    117      -2.1579      2.00000
    118      -2.1574      2.00000
    119      -2.1544      2.00000
    120      -2.1251      2.00000
    121      -2.1235      2.00000
    122      -2.0972      2.00000
    123      -2.0714      2.00000
    124      -1.9823      2.00000
    125      -1.9822      2.00000
    126      -1.9784      2.00000
    127      -1.9696      2.00000
    128      -1.9675      2.00000
    129      -1.9643      2.00000
    130      -1.9490      2.00000
    131      -1.9487      2.00000
    132      -1.9223      2.00000
    133      -1.9075      2.00000
    134      -1.8697      2.00000
    135      -1.8562      2.00000
    136      -1.8551      2.00000
    137      -1.8509      2.00000
    138      -1.8438      2.00000
    139      -1.8420      2.00000
    140      -1.8179      2.00000
    141      -1.8112      2.00000
    142      -1.7680      2.00000
    143      -1.7523      2.00000
    144      -1.7335      2.00000
    145      -1.7249      2.00000
    146      -1.7133      2.00000
    147      -1.7102      2.00000
    148      -1.6993      2.00000
    149      -1.6978      2.00000
    150      -1.6934      2.00000
    151      -1.6831      2.00000
    152      -1.6819      2.00000
    153      -1.6743      2.00000
    154      -1.6471      2.00000
    155      -1.6171      2.00000
    156      -1.5995      2.00000
    157      -1.5899      2.00000
    158      -1.5870      2.00000
    159      -1.5810      2.00000
    160      -1.5776      2.00000
    161      -1.5762      2.00000
    162      -1.5709      2.00000
    163      -1.5668      2.00000
    164      -1.5615      2.00000
    165      -1.5551      2.00000
    166      -1.5476      2.00000
    167      -1.5387      2.00000
    168      -1.5312      2.00000
    169      -1.5200      2.00000
    170      -1.5166      2.00000
    171      -1.5130      2.00000
    172      -1.5028      2.00000
    173      -1.5014      2.00000
    174      -1.4986      2.00000
    175      -1.4981      2.00000
    176      -1.4971      2.00000
    177      -1.4896      2.00000
    178      -1.4886      2.00000
    179      -1.4858      2.00000
    180      -1.4766      2.00000
    181      -1.4682      2.00000
    182      -1.4621      2.00000
    183      -1.4505      2.00000
    184      -1.4455      2.00000
    185      -1.4156      2.00000
    186      -1.3909      2.00000
    187      -1.3852      2.00000
    188      -1.3777      2.00000
    189      -1.3745      2.00000
    190      -1.3587      2.00000
    191      -1.3553      2.00000
    192      -1.3015      2.00000
    193      -1.1267      2.00000
    194      -0.8608      2.00000
    195      -0.7858      2.00000
    196      -0.7128      2.00000
    197      -0.4694      2.00000
    198      -0.2102      2.00000
    199      -0.1850      2.00000
    200      -0.1709      2.00000
    201      -0.1415      2.87332
    202      -0.1033      2.66753
    203      -0.0220      1.21424
    204       1.5607      0.00000
    205       2.0712      0.00000
    206       2.1134      0.00000
    207       2.1280      0.00000
    208       2.2229      0.00000
    209       2.3889      0.00000
    210       3.4414      0.00000
    211       3.5452      0.00000
    212       3.6407      0.00000
    213       3.8175      0.00000
    214       3.8495      0.00000
    215       3.9328      0.00000
    216       4.1553      0.00000
    217       4.2275      0.00000
    218       4.4234      0.00000
    219       4.5633      0.00000
    220       4.5797      0.00000
    221       4.6065      0.00000
    222       4.6351      0.00000
    223       4.6527      0.00000
    224       4.6777      0.00000
    225       4.8120      0.00000
    226       4.9733      0.00000
    227       5.0744      0.00000
    228       5.2940      0.00000
    229       5.4826      0.00000
    230       5.8969      0.00000
    231       6.1959      0.00000
    232       6.1991      0.00000
    233       6.4512      0.00000
    234       6.5636      0.00000
    235       6.6994      0.00000
    236       6.8045      0.00000
    237       6.8365      0.00000
    238       6.9243      0.00000
    239       6.9276      0.00000
    240       6.9935      0.00000
    241       7.0329      0.00000
    242       7.4161      0.00000
    243       7.4445      0.00000
    244       7.5219      0.00000
    245       7.5554      0.00000
    246       7.5709      0.00000
    247       7.5825      0.00000
    248       7.6393      0.00000
    249       7.6934      0.00000
    250       7.8840      0.00000
    251       7.9723      0.00000
    252       8.0550      0.00000

 k-point     2 :       0.1250   -0.0000    0.0000
  band No.  band energies     occupation 
      1      -8.6774      2.00000
      2      -7.6309      2.00000
      3      -6.4724      2.00000
      4      -6.1971      2.00000
      5      -5.9185      2.00000
      6      -5.8813      2.00000
      7      -5.7700      2.00000
      8      -5.4640      2.00000
      9      -5.3804      2.00000
     10      -5.3104      2.00000
     11      -5.2026      2.00000
     12      -5.1744      2.00000
     13      -5.0382      2.00000
     14      -4.9379      2.00000
     15      -4.8308      2.00000
     16      -4.7681      2.00000
     17      -4.6818      2.00000
     18      -4.5368      2.00000
     19      -4.3364      2.00000
     20      -4.2891      2.00000
     21      -4.1937      2.00000
     22      -4.1590      2.00000
     23      -4.1546      2.00000
     24      -4.0434      2.00000
     25      -3.9508      2.00000
     26      -3.9347      2.00000
     27      -3.9129      2.00000
     28      -3.8929      2.00000
     29      -3.8689      2.00000
     30      -3.8537      2.00000
     31      -3.8306      2.00000
     32      -3.8147      2.00000
     33      -3.8054      2.00000
     34      -3.7876      2.00000
     35      -3.7710      2.00000
     36      -3.7401      2.00000
     37      -3.7239      2.00000
     38      -3.6765      2.00000
     39      -3.6635      2.00000
     40      -3.6343      2.00000
     41      -3.6147      2.00000
     42      -3.6008      2.00000
     43      -3.5869      2.00000
     44      -3.5688      2.00000
     45      -3.5237      2.00000
     46      -3.5049      2.00000
     47      -3.4828      2.00000
     48      -3.4592      2.00000
     49      -3.4472      2.00000
     50      -3.4369      2.00000
     51      -3.3962      2.00000
     52      -3.3493      2.00000
     53      -3.3175      2.00000
     54      -3.2902      2.00000
     55      -3.2828      2.00000
     56      -3.2402      2.00000
     57      -3.1213      2.00000
     58      -3.1012      2.00000
     59      -3.0882      2.00000
     60      -3.0432      2.00000
     61      -3.0169      2.00000
     62      -2.9705      2.00000
     63      -2.9587      2.00000
[...]
  0.000   0.000   0.000   0.000   0.000   0.000   0.000   0.000   0.000   0.000   0.000   0.000   0.000   0.000   0.000   0.000
  0.000   0.000   0.000   0.000   0.000   0.000   0.000   0.000   0.000   0.000   0.000   0.000   0.000   0.000   0.000   0.000
  0.000   0.000   0.000   0.000   0.000   0.000   0.000   0.000   0.000   0.000   1.000   0.000   0.000   0.000   0.000   0.000
  0.000   0.000   0.000   0.000   0.000   0.000   0.000   0.000   0.000   0.000   0.000   0.000   0.000   0.000   0.000   0.000
  0.000   0.000   0.000   0.000   0.000   0.000   0.000   0.000   0.000   0.000   0.000   0.000   0.000   0.000   0.000   0.000
  0.000   0.000   0.000   0.000   0.000   0.000   0.000   0.000   0.000   0.000   0.000   0.000   0.000   0.000   0.000   0.000
  0.000   0.000   0.000   0.000   0.000   0.000   0.000   0.000   0.000   0.000   0.000   0.000   0.000   0.000   0.000   0.000
  0.000   0.000   0.000   0.000   0.000   0.000   0.000   0.000   0.000   0.000   0.000   0.000   0.000   0.000   0.000   0.000
  0.000   0.000   0.000   0.000   0.000   0.000   0.000   0.000   0.000   0.000   0.000   0.000   0.000   0.000   0.000   0.000
  0.000   0.000   0.000   0.000   0.000   0.000   0.000   0.000   0.000   0.000   0.000   0.000   0.000   0.000   0.000   0.000


------------------------ aborting loop because EDIFF is reached ----------------------------------------





 total charge

# of ion       s       p       d       tot
------------------------------------------
    1        0.447   0.283   9.191   9.922
    2        0.450   0.284   9.188   9.921
    3        0.450   0.284   9.188   9.921
    4        0.449   0.285   9.186   9.920
    5        0.449   0.288   9.181   9.917
    6        0.449   0.285   9.186   9.920
    7        0.451   0.285   9.186   9.921
    8        0.451   0.285   9.186   9.921
    9        0.446   0.284   9.189   9.919
   10        0.440   0.374   9.174   9.988
   11        0.444   0.367   9.181   9.993
   12        0.440   0.374   9.174   9.988
   13        0.445   0.366   9.184   9.994
   14        0.445   0.366   9.184   9.994
   15        0.437   0.369   9.179   9.986
   16        0.441   0.372   9.176   9.989
   17        0.436   0.370   9.179   9.985
   18        0.436   0.370   9.179   9.985
   19        0.440   0.371   9.182   9.993
   20        0.454   0.387   9.178  10.019
   21        0.454   0.387   9.178  10.019
   22        0.431   0.375   9.180   9.985
   23        0.451   0.393   9.172  10.016
   24        0.431   0.375   9.180   9.985
   25        0.441   0.371   9.181   9.993
   26        0.441   0.371   9.181   9.993
   27        0.432   0.374   9.179   9.986
   28        0.453   0.287   9.198   9.938
   29        0.441   0.310   9.192   9.943
   30        0.441   0.310   9.192   9.943
   31        0.440   0.337   9.180   9.956
   32        0.440   0.337   9.180   9.956
   33        0.448   0.307   9.185   9.940
   34        0.448   0.307   9.185   9.940
   35        0.447   0.289   9.198   9.933
   36        0.701   0.689   7.172   8.561
   37        0.507   0.024   0.000   0.531
   38        0.507   0.024   0.000   0.531
--------------------------------------------------
tot         17.253  12.514 328.581 358.347
 
    CHARGE:  cpu time    0.4162: real time    0.4163
    FORLOC:  cpu time    0.0075: real time    0.0075
    FORNL :  cpu time    2.4083: real time    2.4086
    STRESS:  cpu time    7.1840: real time    7.1842
    FORCOR:  cpu time    0.0263: real time    0.0264
    FORHAR:  cpu time    0.0115: real time    0.0116
    OFIELD:  cpu time    0.0001: real time    0.0001

  FORCE on cell =-STRESS in cart. coord.  units (eV):
  Direction    XX          YY          ZZ          XY          YZ          ZX
  --------------------------------------------------------------------------------------
  Alpha Z   891.57432   891.57432   891.57432
  Ewald  173869.68785173829.87455************     0.00037    -3.28330     0.00016
  Hartree186797.41646186791.26484************     0.00003     3.27050     0.00006
  E(xc)   -2294.27845 -2294.60472 -2299.16174    -0.00032    -0.08461    -0.00004
  Local  ************************374117.90302     0.01960    -2.99407    -0.00067
  n-local  -767.43259  -767.05140  -781.95045     1.75969     0.02170     0.10088
  augment  3346.51586  3348.32695  3363.82132    -0.01843     0.61287     0.00024
  Kinetic  3261.47397  3269.38485  3288.30460     0.93373     2.62815    -0.20738
  Fock        0.00000     0.00000     0.00000     0.00000     0.00000     0.00000
  -------------------------------------------------------------------------------------
  Total      -2.55327    -2.57978     2.63000     0.00000     0.17125    -0.00000
  in kB      -3.74625    -3.78514     3.85883     0.00000     0.25127    -0.00000
  external pressure =       -1.22 kB  Pullay stress =        0.00 kB


 VOLUME and BASIS-vectors are now :
 -----------------------------------------------------------------------------
  energy-cutoff  :      500.00
  volume of cell :     1091.97
      direct lattice vectors                 reciprocal lattice vectors
     7.696786404  0.000000000  0.000000000     0.129924354 -0.075011849  0.000000000
     3.848392758  6.665612809  0.000000000     0.000000000  0.150023716  0.000000000
     0.000000000  0.000000000 21.284399033     0.000000000  0.000000000  0.046982769

  length of vectors
     7.696786404  7.696786404 21.284399033     0.150023716  0.150023716  0.046982769


 FORCES acting on ions
    electron-ion (+dipol)            ewald-force                    non-local-force                 convergence-correction
 -----------------------------------------------------------------------------------------------
   -.408E-04 -.298E-01 0.348E+04   0.580E-04 -.316E-01 -.348E+04   -.367E-08 0.551E-01 -.311E+01   -.335E-03 0.382E-02 -.557E+00
   -.116E+00 0.117E+00 0.348E+04   0.343E-01 -.456E-01 -.348E+04   0.497E-01 0.280E-01 -.199E+01   0.440E-01 -.740E-01 -.420E+00
   0.116E+00 0.117E+00 0.348E+04   -.344E-01 -.457E-01 -.348E+04   -.497E-01 0.280E-01 -.199E+01   -.432E-01 -.714E-01 -.419E+00
   -.242E-01 -.163E+00 0.348E+04   0.481E-02 0.625E-01 -.348E+04   0.731E-01 0.316E-01 -.193E+01   -.244E-01 0.693E-01 -.416E+00
   -.612E-04 0.591E-02 0.348E+04   0.116E-03 0.263E-01 -.348E+04   0.103E-08 -.154E-01 -.147E+01   0.122E-01 -.140E-01 -.196E+00
   0.242E-01 -.163E+00 0.348E+04   -.493E-02 0.624E-01 -.348E+04   -.731E-01 0.316E-01 -.193E+01   0.227E-01 0.705E-01 -.415E+00
   0.168E+00 0.701E-01 0.348E+04   -.288E-01 -.171E-01 -.348E+04   -.152E-01 -.823E-01 -.190E+01   -.992E-01 0.551E-02 -.384E+00
   -.168E+00 0.701E-01 0.348E+04   0.285E-01 -.171E-01 -.348E+04   0.152E-01 -.823E-01 -.190E+01   0.103E+00 0.401E-02 -.383E+00
   -.143E-03 -.822E-01 0.348E+04   0.263E-03 0.583E-02 -.348E+04   -.347E-08 0.521E-01 -.256E+01   -.133E-01 0.248E-01 -.458E+00
   0.288E+01 0.180E+01 0.117E+04   -.249E+01 -.155E+01 -.116E+04   -.441E+00 -.278E+00 -.114E+01   0.422E-01 0.300E-01 -.288E+00
   -.916E-04 -.364E+00 0.116E+04   0.190E-03 0.128E+00 -.116E+04   -.872E-08 0.131E+00 -.672E+00   0.118E-01 0.602E-01 -.244E+00
   -.288E+01 0.180E+01 0.117E+04   0.249E+01 -.155E+01 -.116E+04   0.441E+00 -.278E+00 -.114E+01   -.442E-01 0.321E-01 -.287E+00
   -.346E+00 0.205E-01 0.116E+04   0.230E+00 0.122E+00 -.116E+04   0.314E-01 -.906E-01 -.532E+00   0.553E-01 -.250E-01 -.227E+00
   0.346E+00 0.205E-01 0.116E+04   -.231E+00 0.122E+00 -.116E+04   -.314E-01 -.906E-01 -.532E+00   -.309E-01 -.259E-01 -.226E+00
   -.143E-03 -.156E+00 0.116E+04   0.298E-03 -.124E+00 -.116E+04   -.115E-07 0.173E+00 -.101E+01   -.407E-02 0.981E-01 -.326E+00
   -.920E-04 -.321E+01 0.117E+04   0.186E-03 0.274E+01 -.116E+04   -.359E-07 0.539E+00 -.125E+01   -.148E-03 -.687E-01 -.309E+00
   0.995E-01 0.589E-02 0.116E+04   -.309E+00 0.618E-01 -.116E+04   0.699E-01 -.182E-01 -.948E+00   0.119E+00 -.441E-01 -.368E+00
   -.994E-01 0.593E-02 0.116E+04   0.309E+00 0.617E-01 -.116E+04   -.699E-01 -.182E-01 -.948E+00   -.119E+00 -.411E-01 -.367E+00
   -.603E-04 0.390E+00 -.117E+04   0.692E-04 -.483E+00 0.117E+04   0.367E-08 -.552E-01 0.686E+00   -.250E-02 0.125E+00 -.301E+00
   -.256E+02 -.146E+02 -.117E+04   0.260E+02 0.151E+02 0.117E+04   -.560E+00 -.715E+00 -.886E+00   0.964E-01 0.161E+00 -.271E+00
   0.256E+02 -.146E+02 -.117E+04   -.260E+02 0.151E+02 0.117E+04   0.560E+00 -.715E+00 -.886E+00   -.724E-01 0.163E+00 -.272E+00
   -.178E+02 0.915E+01 -.117E+04   0.173E+02 -.871E+01 0.117E+04   0.506E+00 -.354E+00 0.874E+00   0.443E-01 -.129E+00 -.327E+00
   -.918E-04 0.280E+02 -.117E+04   0.146E-03 -.287E+02 0.118E+04   -.655E-07 0.983E+00 -.912E+00   0.120E-01 -.167E+00 -.243E+00
   0.178E+02 0.915E+01 -.117E+04   -.173E+02 -.871E+01 0.117E+04   -.506E+00 -.354E+00 0.874E+00   -.469E-01 -.130E+00 -.327E+00
   -.826E+00 0.121E+01 -.117E+04   0.685E+00 -.115E+01 0.117E+04   0.135E+00 -.399E-02 0.731E+00   -.297E-02 -.349E-01 -.349E+00
   0.826E+00 0.121E+01 -.117E+04   -.685E+00 -.115E+01 0.117E+04   -.135E+00 -.399E-02 0.731E+00   0.361E-02 -.378E-01 -.349E+00
   -.116E-03 -.192E+02 -.117E+04   0.243E-03 0.186E+02 0.117E+04   -.456E-07 0.685E+00 0.887E+00   -.997E-03 0.392E-01 -.363E+00
   -.435E-04 0.566E+01 -.346E+04   0.400E-04 -.560E+01 0.345E+04   0.128E-07 -.192E+00 0.245E+01   -.254E-03 0.472E-01 0.534E+00
   -.193E+02 -.179E+02 -.347E+04   0.195E+02 0.164E+02 0.346E+04   -.300E+00 0.113E+01 0.269E+01   -.124E-01 0.989E-01 0.351E+00
   0.193E+02 -.179E+02 -.347E+04   -.195E+02 0.164E+02 0.346E+04   0.300E+00 0.113E+01 0.269E+01   0.134E-01 0.101E+00 0.350E+00
   -.218E+02 -.890E+01 -.346E+04   0.207E+02 0.955E+01 0.345E+04   0.895E+00 -.552E+00 0.231E+01   0.555E-01 -.337E-01 0.326E+00
   0.218E+02 -.890E+01 -.346E+04   -.207E+02 0.955E+01 0.345E+04   -.895E+00 -.552E+00 0.231E+01   -.567E-01 -.327E-01 0.325E+00
   -.193E+02 0.312E+02 -.347E+04   0.195E+02 -.310E+02 0.347E+04   -.227E+00 -.301E-02 0.197E+01   0.422E-01 -.602E-01 0.270E+00
   0.193E+02 0.312E+02 -.347E+04   -.195E+02 -.310E+02 0.347E+04   0.227E+00 -.301E-02 0.197E+01   -.388E-01 -.615E-01 0.269E+00
   -.157E-03 -.148E+01 -.346E+04   0.253E-03 0.141E+01 0.346E+04   -.113E-07 0.169E+00 0.267E+01   -.133E-01 -.742E-01 0.327E+00
   -.569E-04 -.165E+02 -.274E+04   0.114E-03 0.168E+02 0.274E+04   0.163E-08 -.245E-01 -.128E+01   0.210E-02 0.843E-02 0.404E-01
   0.118E+01 0.798E+00 -.392E+03   -.221E+01 -.116E+01 0.394E+03   0.102E+01 0.357E+00 -.199E+01   0.225E-02 0.123E-02 0.170E-01
   -.118E+01 0.798E+00 -.392E+03   0.221E+01 -.116E+01 0.394E+03   -.102E+01 0.357E+00 -.199E+01   -.218E-02 0.129E-02 0.168E-01
 -----------------------------------------------------------------------------------------------
   -.207E-03 -.142E+01 0.173E+02   0.302E-13 0.389E-12 -.216E-10   -.935E-07 0.140E+01 -.110E+02   0.544E-01 0.192E-01 -.627E+01
 
 
 POSITION                                       TOTAL-FORCE (eV/Angst)
 -----------------------------------------------------------------------------------
      0.00000      0.00000      5.37156         0.000000     -0.002394      0.031441
      2.56560      0.00000      5.37156         0.011731      0.026589      0.073647
      5.13119      0.00000      5.37156        -0.011731      0.026589      0.073647
      1.28280      2.22187      5.37156         0.030191      0.001179      0.085864
      3.84839      2.22187      5.37156        -0.000000      0.002839      0.051809
      6.41399      2.22187      5.37156        -0.030191      0.001179      0.085864
      2.56560      4.44374      5.37156         0.023342     -0.024510      0.069111
      5.13119      4.44374      5.37156        -0.023342     -0.024510      0.069111
      7.69679      4.44374      5.37156        -0.000000      0.000545      0.042884
      1.28280      0.74062      7.46636        -0.010255     -0.001599     -0.061132
      3.84839      0.74062      7.46636         0.000000     -0.045318     -0.101543
      6.41399      0.74062      7.46636         0.010255     -0.001599     -0.061132
      2.56560      2.96249      7.46636        -0.040526      0.026098     -0.094784
      5.13119      2.96249      7.46636         0.040526      0.026098     -0.094784
      7.69679      2.96249      7.46636         0.000000     -0.009146     -0.035585
      3.84839      5.18437      7.46636         0.000000     -0.004876     -0.058955
      6.41399      5.18437      7.46636        -0.020116      0.006858     -0.013727
      8.97958      5.18437      7.46636         0.020116      0.006858     -0.013727
      7.69679      1.48769      9.56171         0.000000     -0.023869      0.075902
      2.55203      1.47342      9.53141        -0.083252     -0.057960     -0.273111
      5.14476      1.47342      9.53141         0.083252     -0.057960     -0.273111
      8.97489      3.70583      9.56026         0.078576     -0.048989      0.027227
      3.84839      3.71878      9.53141        -0.000000      0.051040     -0.211230
      6.41868      3.70583      9.56026        -0.078576     -0.048989      0.027227
     10.25680      5.92177      9.56171        -0.009727      0.021130      0.025384
      5.13677      5.92177      9.56171         0.009727      0.021130      0.025384
      7.69679      5.91957      9.56026        -0.000000      0.037655      0.007974
      0.00000      0.00000     11.63002         0.000000     -0.086952     -0.042272
      6.40663      6.66047     11.66109        -0.096903     -0.229490     -0.054833
      8.98694      6.66047     11.66109         0.096903     -0.229490     -0.054833
      8.97145      2.21807     11.66109        -0.205520      0.060882     -0.011914
      6.42212      2.21807     11.66109         0.205520      0.060882     -0.011914
     10.26160      4.45269     11.66109        -0.063845      0.141233     -0.067765
      5.13197      4.45269     11.66109         0.063845      0.141233     -0.067765
      7.69679      4.44374     11.62915        -0.000000      0.022634     -0.019160
      3.84839      2.22187     11.60012        -0.000000      0.215693      0.851193
      2.78928      1.91298     12.83379        -0.011794     -0.000348     -0.000197
      4.90750      1.91298     12.83379         0.011794     -0.000348     -0.000197
 -----------------------------------------------------------------------------------
    total drift:                                0.054145     -0.000715      0.020125


--------------------------------------------------------------------------------------------------------



  FREE ENERGIE OF THE ION-ELECTRON SYSTEM (eV)
  ---------------------------------------------------
  free  energy   TOTEN  =      -138.41711949 eV

  energy  without entropy=     -138.41711949  energy(sigma->0) =     -138.41711949
 


--------------------------------------------------------------------------------------------------------


    POTLOK:  cpu time    0.0287: real time    0.0287


--------------------------------------------------------------------------------------------------------


 stress matrix after NEB project (eV)
     -2.55327      0.00000     -0.00000
      0.00000     -2.57978      0.17125
     -0.00000      0.17125      2.63000
  FORCES: max atom, RMS     0.011801    0.002707
  FORCE total and by dimension    0.016689    0.011794
  Stress total and by dimension    4.488877    2.630000
     LOOP+:  cpu time  123.9708: real time  123.9828
 -----------------------------------------------------------------------------
|                                                                             |
|           W    W    AA    RRRRR   N    N  II  N    N   GGGG   !!!           |
|           W    W   A  A   R    R  NN   N  II  NN   N  G    G  !!!           |
|           W    W  A    A  R    R  N N  N  II  N N  N  G       !!!           |
|           W WW W  AAAAAA  RRRRR   N  N N  II  N  N N  G  GGG   !            |
|           WW  WW  A    A  R   R   N   NN  II  N   NN  G    G                |
|           W    W  A    A  R    R  N    N  II  N    N   GGGG   !!!           |
|                                                                             |
|     Tetrahedron method does not include variations of the Fermi             |
|     occupations, so forces and stress will be inaccurate. We suggest        |
|     using a different smearing scheme ISMEAR = 1 or 2 for metals in         |
|     relaxations.                                                            |
|                                                                             |
 -----------------------------------------------------------------------------

    4ORBIT:  cpu time    0.0000: real time    0.0000



 total charge

# of ion       s       p       d       tot
------------------------------------------
    1        0.447   0.283   9.191   9.922
    2        0.450   0.284   9.188   9.921
    3        0.450   0.284   9.188   9.921
    4        0.449   0.285   9.186   9.920
    5        0.449   0.288   9.181   9.917
    6        0.449   0.285   9.186   9.920
    7        0.451   0.285   9.186   9.921
    8        0.451   0.285   9.186   9.921
    9        0.446   0.284   9.189   9.919
   10        0.440   0.374   9.174   9.988
   11        0.444   0.367   9.181   9.993
   12        0.440   0.374   9.174   9.988
   13        0.445   0.366   9.184   9.994
   14        0.445   0.366   9.184   9.994
   15        0.437   0.369   9.179   9.986
   16        0.441   0.372   9.176   9.989
   17        0.436   0.370   9.179   9.985
   18        0.436   0.370   9.179   9.985
   19        0.440   0.371   9.182   9.993
   20        0.454   0.387   9.178  10.019
   21        0.454   0.387   9.178  10.019
   22        0.431   0.375   9.180   9.985
   23        0.451   0.393   9.172  10.016
   24        0.431   0.375   9.180   9.985
   25        0.441   0.371   9.181   9.993
   26        0.441   0.371   9.181   9.993
   27        0.432   0.374   9.179   9.986
   28        0.453   0.287   9.198   9.938
   29        0.441   0.310   9.192   9.943
   30        0.441   0.310   9.192   9.943
   31        0.440   0.337   9.180   9.956
   32        0.440   0.337   9.180   9.956
   33        0.448   0.307   9.185   9.940
   34        0.448   0.307   9.185   9.940
   35        0.447   0.289   9.198   9.933
   36        0.701   0.689   7.172   8.561
   37        0.507   0.024   0.000   0.531
   38        0.507   0.024   0.000   0.531
--------------------------------------------------
tot         17.253  12.514 328.581 358.347
 
 BZINTS: Fermi energy:    0.131727;  396.000000 electrons
         Band energy:-0.106054E+04;  BLOECHL correction:   -0.065617

 total amount of memory used by VASP MPI-rank0   149743. kBytes
=======================================================================

   base      :      30000. kBytes
   nonlr-proj:      17736. kBytes
   fftplans  :       2916. kBytes
   grid      :      12390. kBytes
   one-center:        590. kBytes
   wavefun   :      86111. kBytes
 
  
  
 General timing and accounting informations for this job:
 ========================================================
  
                  Total CPU time used (sec):      135.077
                            User time (sec):      129.779
                          System time (sec):        5.298
                         Elapsed time (sec):      135.472
  
                   Maximum memory used (kb):      395272.
                   Average memory used (kb):          N/A
  
                          Minor page faults:        80952
                          Major page faults:            0
                 Voluntary context switches:         5677
