PROCAR new format
# of k-points:   10         # of bands:  252         # of ions:   38

 k-point     1 :    0.00000000 0.00000000 0.00000000     weight = 0.01562500

band     1 # energy  -21.88818402 # occ.  2.00000000
 
ion      s      p      d    tot
    1  0.000  0.000  0.000  0.000
    2  0.000  0.000  0.000  0.000
    3  0.000  0.000  0.000  0.000
    4  0.000  0.000  0.000  0.000
    5  0.000  0.000  0.000  0.000
    6  0.000  0.000  0.000  0.000
    7  0.000  0.000  0.000  0.000
    8  0.000  0.000  0.000  0.000
    9  0.000  0.000  0.000  0.000
   10  0.000  0.000  0.000  0.000
   11  0.000  0.000  0.000  0.000
   12  0.000  0.000  0.000  0.000
   13  0.000  0.000  0.000  0.000
   14  0.000  0.000  0.000  0.000
   15  0.000  0.000  0.000  0.000
   16  0.000  0.000  0.000  0.000
   17  0.000  0.000  0.000  0.000
   18  0.000  0.000  0.000  0.000
   19  0.000  0.000  0.000  0.000
   20  0.000  0.000  0.000  0.000
   21  0.000  0.000  0.000  0.000
   22  0.000  0.000  0.000  0.000
   23  0.000  0.000  0.000  0.000
   24  0.000  0.000  0.000  0.000
   25  0.000  0.000  0.000  0.000
   26  0.000  0.000  0.000  0.000
   27  0.000  0.000  0.000  0.000
   28  0.000  0.000  0.000  0.000
   29  0.000  0.000  0.000  0.000
   30  0.000  0.000  0.000  0.000
   31  0.000  0.000  0.000  0.000
   32  0.000  0.000  0.000  0.000
   33  0.000  0.000  0.000  0.000
   34  0.000  0.000  0.000  0.000
   35  0.000  0.000  0.000  0.000
   36  0.000  0.000  0.000  0.001
   37  0.153  0.109  0.000  0.262
   38  0.637  0.090  0.000  0.727
tot    0.790  0.199  0.000  0.990
 
band     2 # energy   -7.99383353 # occ.  2.00000000
 
ion      s      p      d    tot
    1  0.000  0.000  0.000  0.000
    2  0.000  0.000  0.000  0.000
    3  0.000  0.000  0.000  0.000
    4  0.000  0.000  0.000  0.000
    5  0.000  0.000  0.000  0.000
    6  0.000  0.000  0.000  0.000
    7  0.000  0.000  0.000  0.000
    8  0.000  0.000  0.000  0.000
    9  0.000  0.000  0.000  0.000
   10  0.000  0.000  0.000  0.000
   11  0.000  0.000  0.000  0.000
   12  0.000  0.000  0.000  0.000
   13  0.000  0.000  0.000  0.000
   14  0.000  0.000  0.000  0.000
   15  0.000  0.000  0.000  0.000
   16  0.000  0.000  0.000  0.000
   17  0.000  0.000  0.000  0.000
   18  0.000  0.000  0.000  0.000
   19  0.000  0.000  0.000  0.000
   20  0.001  0.000  0.001  0.001
   21  0.001  0.000  0.001  0.001
   22  0.000  0.000  0.000  0.000
   23  0.001  0.000  0.001  0.001
   24  0.000  0.000  0.000  0.000
   25  0.000  0.000  0.000  0.000
   26  0.000  0.000  0.000  0.000
   27  0.000  0.000  0.000  0.000
   28  0.000  0.000  0.000  0.000
   29  0.001  0.000  0.001  0.003
   30  0.001  0.000  0.001  0.003
   31  0.001  0.000  0.001  0.003
   32  0.001  0.000  0.001  0.003
   33  0.001  0.000  0.001  0.003
   34  0.001  0.000  0.001  0.003
   35  0.000  0.000  0.000  0.000
   36  0.056  0.031  0.050  0.137
   37  0.285  0.009  0.000  0.294
   38  0.134  0.188  0.000  0.322
tot    0.485  0.231  0.058  0.774
 
band     3 # energy   -6.36200871 # occ.  2.00000000
 
ion      s      p      d    tot
    1  0.006  0.001  0.000  0.007
    2  0.006  0.001  0.000  0.006
    3  0.006  0.001  0.000  0.006
    4  0.006  0.001  0.000  0.006
    5  0.006  0.001  0.000  0.006
    6  0.006  0.001  0.000  0.006
    7  0.006  0.001  0.000  0.006
    8  0.006  0.001  0.000  0.006
    9  0.006  0.001  0.000  0.006
   10  0.023  0.000  0.000  0.024
   11  0.023  0.000  0.000  0.024
   12  0.023  0.000  0.000  0.024
   13  0.023  0.000  0.000  0.024
   14  0.023  0.000  0.000  0.024
   15  0.023  0.000  0.000  0.023
   16  0.023  0.000  0.000  0.024
   17  0.023  0.000  0.000  0.023
   18  0.023  0.000  0.000  0.023
   19  0.022  0.000  0.000  0.022
   20  0.024  0.000  0.000  0.024
   21  0.024  0.000  0.000  0.024
   22  0.022  0.000  0.000  0.023
   23  0.024  0.000  0.000  0.024
   24  0.022  0.000  0.000  0.023
   25  0.022  0.000  0.000  0.022
   26  0.022  0.000  0.000  0.022
   27  0.022  0.000  0.000  0.023
   28  0.005  0.001  0.000  0.006
   29  0.005  0.001  0.000  0.006
   30  0.005  0.001  0.000  0.006
   31  0.005  0.001  0.000  0.006
   32  0.005  0.001  0.000  0.006
   33  0.005  0.001  0.000  0.006
   34  0.005  0.001  0.000  0.006
   35  0.005  0.001  0.000  0.006
   36  0.006  0.001  0.000  0.007
   37  0.001  0.003  0.000  0.005
   38  0.003  0.015  0.000  0.018
tot    0.515  0.031  0.007  0.552
 
band     4 # energy   -5.58580183 # occ.  2.00000000
 
ion      s      p      d    tot
    1  0.006  0.000  0.001  0.006
    2  0.007  0.000  0.000  0.007
    3  0.007  0.000  0.000  0.007
    4  0.007  0.000  0.000  0.007
    5  0.007  0.000  0.000  0.008
    6  0.007  0.000  0.000  0.007
    7  0.007  0.000  0.000  0.007
    8  0.007  0.000  0.000  0.007
    9  0.007  0.000  0.000  0.008
   10  0.008  0.001  0.009  0.017
   11  0.009  0.001  0.006  0.015
   12  0.008  0.001  0.009  0.017
   13  0.009  0.001  0.006  0.015
   14  0.009  0.001  0.006  0.015
   15  0.011  0.000  0.006  0.017
   16  0.008  0.001  0.009  0.017
   17  0.011  0.000  0.006  0.017
   18  0.011  0.000  0.006  0.017
   19  0.003  0.001  0.006  0.009
   20  0.009  0.002  0.010  0.021
   21  0.009  0.002  0.010  0.021
   22  0.002  0.001  0.005  0.008
   23  0.009  0.002  0.010  0.021
   24  0.002  0.001  0.005  0.008
   25  0.003  0.001  0.006  0.009
   26  0.003  0.001  0.006  0.009
   27  0.002  0.001  0.005  0.008
   28  0.004  0.000  0.001  0.005
   29  0.007  0.000  0.002  0.010
   30  0.007  0.000  0.002  0.010
   31  0.007  0.000  0.002  0.010
   32  0.007  0.000  0.002  0.010
   33  0.007  0.000  0.002  0.010
   34  0.007  0.000  0.002  0.010
   35  0.004  0.000  0.001  0.004
   36  0.050  0.004  0.022  0.076
   37  0.001  0.077  0.000  0.078
   38  0.016  0.141  0.000  0.157
tot    0.302  0.241  0.164  0.707
 
band     5 # energy   -5.36029757 # occ.  2.00000000
 
ion      s      p      d    tot
    1  0.002  0.000  0.001  0.003
    2  0.000  0.000  0.000  0.001
    3  0.000  0.000  0.000  0.001
    4  0.000  0.000  0.000  0.001
    5  0.000  0.000  0.000  0.000
    6  0.000  0.000  0.000  0.001
    7  0.000  0.000  0.000  0.001
    8  0.000  0.000  0.000  0.001
    9  0.000  0.000  0.000  0.000
   10  0.005  0.000  0.011  0.016
   11  0.002  0.000  0.017  0.019
   12  0.005  0.000  0.011  0.016
   13  0.002  0.000  0.017  0.019
   14  0.002  0.000  0.017  0.019
   15  0.001  0.000  0.015  0.017
   16  0.005  0.000  0.011  0.016
   17  0.001  0.000  0.015  0.017
   18  0.001  0.000  0.015  0.017
   19  0.010  0.000  0.024  0.034
   20  0.003  0.000  0.042  0.045
   21  0.003  0.000  0.042  0.045
   22  0.015  0.000  0.021  0.035
   23  0.003  0.000  0.042  0.045
   24  0.015  0.000  0.021  0.035
   25  0.010  0.000  0.024  0.034
   26  0.010  0.000  0.024  0.034
   27  0.015  0.000  0.021  0.035
   28  0.001  0.000  0.005  0.006
   29  0.000  0.001  0.008  0.008
   30  0.000  0.001  0.008  0.008
   31  0.000  0.001  0.008  0.008
   32  0.000  0.001  0.008  0.008
   33  0.000  0.001  0.008  0.008
   34  0.000  0.001  0.008  0.008
   35  0.001  0.000  0.004  0.005
   36  0.031  0.008  0.021  0.059
   37  0.003  0.066  0.000  0.069
   38  0.009  0.100  0.000  0.109
tot    0.155  0.183  0.472  0.809
 
band     6 # energy   -5.17420078 # occ.  2.00000000
 
ion      s      p      d    tot
    1  0.025  0.000  0.025  0.050
    2  0.018  0.000  0.030  0.048
    3  0.018  0.000  0.030  0.048
    4  0.018  0.000  0.030  0.048
    5  0.015  0.000  0.032  0.047
    6  0.018  0.000  0.030  0.048
    7  0.018  0.000  0.030  0.048
    8  0.018  0.000  0.030  0.048
    9  0.015  0.000  0.032  0.047
   10  0.000  0.001  0.028  0.028
   11  0.001  0.001  0.018  0.019
   12  0.000  0.001  0.028  0.028
   13  0.001  0.001  0.018  0.019
   14  0.001  0.001  0.018  0.019
   15  0.002  0.001  0.016  0.020
   16  0.000  0.001  0.028  0.028
   17  0.002  0.001  0.016  0.020
   18  0.002  0.001  0.016  0.020
   19  0.001  0.000  0.005  0.005
   20  0.000  0.000  0.008  0.008
   21  0.000  0.000  0.008  0.008
   22  0.003  0.000  0.003  0.006
   23  0.000  0.000  0.008  0.008
   24  0.003  0.000  0.003  0.006
   25  0.001  0.000  0.005  0.005
   26  0.001  0.000  0.005  0.005
   27  0.003  0.000  0.003  0.006
   28  0.004  0.000  0.000  0.004
   29  0.002  0.000  0.003  0.005
   30  0.002  0.000  0.003  0.005
   31  0.002  0.000  0.003  0.005
   32  0.002  0.000  0.003  0.005
   33  0.002  0.000  0.003  0.005
   34  0.002  0.000  0.003  0.005
   35  0.005  0.000  0.001  0.006
   36  0.002  0.000  0.006  0.008
   37  0.001  0.006  0.000  0.007
   38  0.001  0.008  0.000  0.008
tot    0.207  0.023  0.525  0.756
 
band     7 # energy   -5.08528491 # occ.  2.00000000
 
ion      s      p      d    tot
    1  0.000  0.000  0.002  0.003
    2  0.001  0.000  0.005  0.006
    3  0.001  0.000  0.004  0.005
    4  0.001  0.000  0.004  0.006
    5  0.000  0.000  0.002  0.002
    6  0.000  0.000  0.002  0.002
    7  0.001  0.000  0.004  0.005
    8  0.000  0.000  0.002  0.002
    9  0.000  0.000  0.008  0.009
   10  0.008  0.000  0.033  0.041
   11  0.001  0.000  0.050  0.052
   12  0.002  0.001  0.013  0.016
   13  0.001  0.000  0.050  0.051
   14  0.004  0.000  0.011  0.015
   15  0.006  0.000  0.047  0.053
   16  0.002  0.001  0.012  0.015
   17  0.006  0.000  0.047  0.053
   18  0.024  0.001  0.009  0.033
   19  0.004  0.000  0.040  0.044
   20  0.001  0.000  0.020  0.021
   21  0.000  0.000  0.032  0.032
   22  0.003  0.001  0.018  0.022
   23  0.000  0.000  0.032  0.033
   24  0.010  0.000  0.024  0.034
   25  0.015  0.001  0.006  0.022
   26  0.004  0.000  0.039  0.044
   27  0.002  0.001  0.018  0.021
   28  0.000  0.000  0.007  0.007
   29  0.001  0.000  0.002  0.004
   30  0.000  0.000  0.003  0.004
   31  0.001  0.000  0.002  0.004
   32  0.003  0.000  0.004  0.007
   33  0.000  0.000  0.004  0.004
   34  0.003  0.000  0.004  0.007
   35  0.000  0.000  0.005  0.005
   36  0.000  0.001  0.005  0.006
   37  0.000  0.027  0.000  0.027
   38  0.000  0.063  0.000  0.063
tot    0.107  0.104  0.570  0.780
 
band     8 # energy   -5.08525356 # occ.  2.00000000
 
ion      s      p      d    tot
    1  0.000  0.000  0.002  0.003
    2  0.000  0.000  0.002  0.003
    3  0.000  0.000  0.003  0.004
    4  0.000  0.000  0.002  0.003
    5  0.000  0.000  0.002  0.002
    6  0.002  0.001  0.005  0.007
    7  0.000  0.000  0.003  0.004
    8  0.002  0.001  0.005  0.007
    9  0.000  0.000  0.008  0.009
   10  0.000  0.001  0.006  0.007
   11  0.003  0.000  0.023  0.027
   12  0.006  0.000  0.026  0.032
   13  0.003  0.000  0.024  0.027
   14  0.000  0.000  0.063  0.063
   15  0.018  0.001  0.021  0.040
   16  0.006  0.000  0.026  0.033
   17  0.018  0.001  0.022  0.040
   18  0.000  0.000  0.060  0.060
   19  0.012  0.001  0.017  0.029
   20  0.000  0.000  0.036  0.037
   21  0.000  0.000  0.024  0.025
   22  0.007  0.000  0.022  0.030
   23  0.000  0.000  0.024  0.024
   24  0.000  0.001  0.016  0.017
   25  0.000  0.000  0.051  0.051
   26  0.012  0.001  0.017  0.030
   27  0.008  0.000  0.022  0.030
   28  0.000  0.000  0.007  0.007
   29  0.002  0.000  0.004  0.006
   30  0.003  0.000  0.003  0.006
   31  0.002  0.000  0.004  0.006
   32  0.000  0.000  0.003  0.003
   33  0.003  0.000  0.003  0.006
   34  0.000  0.000  0.003  0.003
   35  0.000  0.000  0.005  0.005
   36  0.000  0.001  0.005  0.006
   37  0.000  0.027  0.000  0.027
   38  0.000  0.063  0.000  0.063
tot    0.107  0.103  0.570  0.780
 
band     9 # energy   -5.08129555 # occ.  2.00000000
 
ion      s      p      d    tot
    1  0.000  0.000  0.000  0.001
    2  0.000  0.000  0.006  0.006
    3  0.000  0.000  0.006  0.006
    4  0.000  0.000  0.006  0.006
    5  0.003  0.001  0.004  0.008
    6  0.000  0.000  0.006  0.006
    7  0.000  0.000  0.006  0.006
    8  0.000  0.000  0.006  0.006
    9  0.003  0.001  0.005  0.008
   10  0.003  0.001  0.016  0.020
   11  0.016  0.001  0.024  0.041
   12  0.003  0.001  0.016  0.020
   13  0.016  0.001  0.024  0.041
   14  0.016  0.001  0.024  0.041
   15  0.004  0.000  0.065  0.069
   16  0.003  0.001  0.016  0.020
   17  0.004  0.000  0.065  0.069
   18  0.004  0.000  0.065  0.069
   19  0.007  0.000  0.040  0.047
   20  0.010  0.001  0.013  0.024
   21  0.010  0.001  0.013  0.024
   22  0.000  0.000  0.034  0.034
   23  0.010  0.001  0.013  0.024
   24  0.000  0.000  0.033  0.034
   25  0.007  0.000  0.040  0.047
   26  0.007  0.000  0.040  0.047
   27  0.000  0.000  0.034  0.034
   28  0.004  0.001  0.003  0.008
   29  0.000  0.000  0.004  0.004
   30  0.000  0.000  0.004  0.004
   31  0.000  0.000  0.004  0.004
   32  0.000  0.000  0.004  0.004
   33  0.000  0.000  0.004  0.004
   34  0.000  0.000  0.004  0.004
   35  0.001  0.000  0.003  0.004
   36  0.000  0.001  0.000  0.001
   37  0.000  0.001  0.000  0.001
   38  0.000  0.001  0.000  0.001
tot    0.129  0.019  0.651  0.800
 
band    10 # energy   -5.07355212 # occ.  2.00000000
 
ion      s      p      d    tot
    1  0.000  0.000  0.008  0.008
    2  0.002  0.000  0.005  0.007
    3  0.001  0.001  0.004  0.006
    4  0.001  0.000  0.005  0.007
    5  0.000  0.000  0.008  0.008
    6  0.000  0.000  0.003  0.003
    7  0.001  0.001  0.004  0.006
    8  0.000  0.000  0.003  0.003
    9  0.000  0.000  0.000  0.000
   10  0.000  0.000  0.091  0.091
   11  0.019  0.001  0.028  0.047
   12  0.013  0.001  0.027  0.040
   13  0.018  0.001  0.028  0.047
   14  0.000  0.001  0.031  0.032
   15  0.000  0.000  0.030  0.031
   16  0.013  0.001  0.025  0.039
   17  0.000  0.000  0.030  0.031
   18  0.000  0.001  0.028  0.029
   19  0.001  0.000  0.027  0.028
   20  0.000  0.001  0.042  0.043
   21  0.016  0.001  0.024  0.041
   22  0.008  0.001  0.024  0.032
   23  0.017  0.001  0.023  0.041
   24  0.000  0.000  0.070  0.070
   25  0.000  0.001  0.019  0.020
   26  0.001  0.000  0.026  0.028
   27  0.008  0.001  0.022  0.031
   28  0.000  0.000  0.001  0.001
   29  0.000  0.000  0.002  0.002
   30  0.000  0.000  0.002  0.003
   31  0.000  0.000  0.002  0.002
   32  0.001  0.000  0.005  0.006
   33  0.001  0.000  0.003  0.003
   34  0.001  0.000  0.005  0.006
   35  0.000  0.000  0.004  0.004
   36  0.000  0.000  0.001  0.001
   37  0.000  0.000  0.000  0.000
   38  0.000  0.001  0.000  0.001
tot    0.126  0.018  0.658  0.802
 
band    11 # energy   -5.07354719 # occ.  2.00000000
 
ion      s      p      d    tot
    1  0.000  0.000  0.008  0.008
    2  0.000  0.000  0.003  0.003
    3  0.001  0.000  0.004  0.005
    4  0.000  0.000  0.003  0.003
    5  0.000  0.000  0.008  0.008
    6  0.002  0.001  0.005  0.008
    7  0.001  0.000  0.004  0.005
    8  0.002  0.001  0.005  0.008
    9  0.000  0.000  0.000  0.000
   10  0.018  0.001  0.004  0.022
   11  0.006  0.001  0.030  0.037
   12  0.004  0.000  0.069  0.073
   13  0.006  0.001  0.030  0.037
   14  0.025  0.001  0.026  0.052
   15  0.000  0.001  0.029  0.030
   16  0.004  0.000  0.070  0.074
   17  0.000  0.001  0.029  0.030
   18  0.001  0.000  0.030  0.031
   19  0.000  0.001  0.021  0.023
   20  0.022  0.001  0.018  0.041
   21  0.006  0.001  0.036  0.042
   22  0.003  0.000  0.054  0.057
   23  0.005  0.001  0.036  0.042
   24  0.011  0.001  0.007  0.019
   25  0.002  0.000  0.029  0.031
   26  0.000  0.001  0.021  0.023
   27  0.003  0.000  0.055  0.058
   28  0.000  0.000  0.001  0.001
   29  0.001  0.000  0.004  0.005
   30  0.001  0.000  0.004  0.005
   31  0.001  0.000  0.004  0.005
   32  0.000  0.000  0.002  0.002
   33  0.001  0.000  0.004  0.005
   34  0.000  0.000  0.002  0.002
   35  0.000  0.000  0.004  0.004
   36  0.000  0.000  0.001  0.001
   37  0.000  0.000  0.000  0.000
   38  0.000  0.001  0.000  0.001
tot    0.126  0.018  0.658  0.802
 
band    12 # energy   -5.07296146 # occ.  2.00000000
 
ion      s      p      d    tot
    1  0.000  0.000  0.010  0.010
    2  0.001  0.000  0.005  0.006
    3  0.001  0.000  0.005  0.006
    4  0.001  0.000  0.005  0.006
    5  0.003  0.000  0.000  0.003
    6  0.001  0.000  0.005  0.006
    7  0.001  0.000  0.005  0.006
    8  0.001  0.000  0.005  0.006
    9  0.001  0.000  0.000  0.001
   10  0.005  0.001  0.040  0.046
   11  0.000  0.000  0.028  0.028
   12  0.005  0.001  0.040  0.046
   13  0.000  0.000  0.028  0.029
   14  0.000  0.000  0.028  0.029
   15  0.005  0.001  0.021  0.026
   16  0.005  0.001  0.040  0.046
   17  0.005  0.001  0.021  0.026
   18  0.005  0.001  0.021  0.026
   19  0.010  0.001  0.012  0.024
   20  0.001  0.001  0.042  0.044
   21  0.001  0.001  0.042  0.043
   22  0.007  0.000  0.061  0.068
   23  0.001  0.001  0.042  0.043
   24  0.007  0.000  0.061  0.068
   25  0.010  0.001  0.012  0.024
   26  0.010  0.001  0.012  0.024
   27  0.007  0.000  0.061  0.068
   28  0.000  0.000  0.005  0.006
   29  0.000  0.000  0.005  0.006
   30  0.000  0.000  0.005  0.006
   31  0.000  0.000  0.005  0.006
   32  0.000  0.000  0.005  0.006
   33  0.000  0.000  0.005  0.006
   34  0.000  0.000  0.005  0.006
   35  0.002  0.001  0.003  0.006
   36  0.002  0.001  0.000  0.003
   37  0.000  0.004  0.000  0.004
   38  0.000  0.005  0.000  0.006
tot    0.098  0.025  0.692  0.815
 
band    13 # energy   -5.05459990 # occ.  2.00000000
 
ion      s      p      d    tot
    1  0.000  0.001  0.018  0.019
    2  0.000  0.000  0.009  0.010
    3  0.000  0.000  0.009  0.010
    4  0.000  0.000  0.009  0.010
    5  0.001  0.000  0.002  0.003
    6  0.000  0.000  0.009  0.010
    7  0.000  0.000  0.009  0.010
    8  0.000  0.000  0.009  0.010
    9  0.008  0.001  0.000  0.009
   10  0.005  0.000  0.051  0.057
   11  0.000  0.000  0.060  0.060
   12  0.005  0.000  0.051  0.057
   13  0.000  0.000  0.060  0.060
   14  0.000  0.000  0.060  0.060
   15  0.004  0.000  0.007  0.011
   16  0.005  0.000  0.051  0.057
   17  0.004  0.000  0.007  0.011
   18  0.004  0.000  0.007  0.011
   19  0.001  0.000  0.010  0.012
   20  0.001  0.000  0.041  0.042
   21  0.001  0.000  0.041  0.042
   22  0.002  0.000  0.036  0.038
   23  0.001  0.000  0.041  0.042
   24  0.002  0.000  0.036  0.038
   25  0.001  0.000  0.010  0.012
   26  0.001  0.000  0.010  0.012
   27  0.002  0.000  0.036  0.038
   28  0.008  0.001  0.001  0.009
   29  0.001  0.000  0.010  0.011
   30  0.001  0.000  0.010  0.011
   31  0.001  0.000  0.010  0.011
   32  0.001  0.000  0.010  0.011
   33  0.001  0.000  0.010  0.011
   34  0.001  0.000  0.010  0.011
   35  0.000  0.000  0.014  0.015
   36  0.000  0.000  0.000  0.001
   37  0.000  0.000  0.000  0.000
   38  0.000  0.000  0.000  0.000
tot    0.066  0.008  0.765  0.839
 
band    14 # energy   -5.03815047 # occ.  2.00000000
 
ion      s      p      d    tot
    1  0.000  0.000  0.018  0.018
    2  0.002  0.000  0.006  0.008
    3  0.000  0.000  0.008  0.008
    4  0.002  0.000  0.006  0.008
    5  0.000  0.000  0.009  0.009
    6  0.001  0.000  0.006  0.007
    7  0.000  0.000  0.008  0.008
    8  0.001  0.000  0.006  0.007
    9  0.000  0.000  0.003  0.004
   10  0.000  0.000  0.053  0.053
   11  0.000  0.000  0.031  0.031
   12  0.002  0.000  0.030  0.032
   13  0.000  0.000  0.031  0.031
   14  0.000  0.000  0.009  0.009
   15  0.002  0.000  0.017  0.020
   16  0.002  0.000  0.029  0.032
   17  0.002  0.000  0.018  0.020
   18  0.000  0.000  0.043  0.043
   19  0.007  0.000  0.037  0.043
   20  0.000  0.000  0.103  0.103
   21  0.007  0.000  0.032  0.039
   22  0.000  0.000  0.030  0.030
   23  0.007  0.000  0.031  0.039
   24  0.000  0.000  0.021  0.021
   25  0.000  0.000  0.044  0.045
   26  0.007  0.000  0.037  0.043
   27  0.000  0.000  0.030  0.030
   28  0.000  0.000  0.012  0.013
   29  0.000  0.000  0.008  0.008
   30  0.003  0.000  0.002  0.006
   31  0.000  0.000  0.008  0.008
   32  0.002  0.001  0.005  0.008
   33  0.003  0.000  0.002  0.006
   34  0.002  0.001  0.005  0.008
   35  0.000  0.000  0.004  0.004
   36  0.000  0.001  0.000  0.002
   37  0.000  0.009  0.000  0.009
   38  0.000  0.022  0.000  0.022
tot    0.054  0.040  0.739  0.833
 
band    15 # energy   -5.03809976 # occ.  2.00000000
 
ion      s      p      d    tot
    1  0.000  0.000  0.018  0.018
    2  0.000  0.000  0.007  0.007
    3  0.002  0.000  0.005  0.007
    4  0.000  0.000  0.007  0.007
    5  0.000  0.000  0.009  0.009
    6  0.002  0.000  0.007  0.009
    7  0.002  0.000  0.005  0.007
    8  0.002  0.000  0.007  0.009
    9  0.000  0.000  0.003  0.004
   10  0.003  0.000  0.022  0.025
   11  0.000  0.000  0.016  0.016
   12  0.001  0.000  0.045  0.046
   13  0.000  0.000  0.016  0.016
   14  0.000  0.000  0.038  0.038
   15  0.001  0.000  0.034  0.035
   16  0.001  0.000  0.045  0.046
   17  0.001  0.000  0.034  0.035
   18  0.003  0.000  0.009  0.012
   19  0.002  0.000  0.042  0.044
   20  0.010  0.000  0.007  0.018
   21  0.002  0.000  0.079  0.081
   22  0.000  0.000  0.024  0.024
   23  0.002  0.000  0.080  0.082
   24  0.000  0.000  0.033  0.033
   25  0.009  0.000  0.034  0.043
   26  0.002  0.000  0.042  0.044
   27  0.000  0.000  0.024  0.024
   28  0.000  0.000  0.012  0.013
   29  0.003  0.001  0.003  0.006
   30  0.000  0.000  0.008  0.009
   31  0.003  0.001  0.003  0.006
   32  0.001  0.000  0.005  0.006
   33  0.000  0.000  0.008  0.009
   34  0.001  0.000  0.005  0.007
   35  0.000  0.000  0.004  0.004
   36  0.000  0.001  0.000  0.002
   37  0.000  0.009  0.000  0.009
   38  0.000  0.022  0.000  0.022
tot    0.054  0.040  0.739  0.833
 
band    16 # energy   -5.02515544 # occ.  2.00000000
 
ion      s      p      d    tot
    1  0.002  0.000  0.000  0.003
    2  0.001  0.000  0.012  0.013
    3  0.001  0.000  0.012  0.013
    4  0.001  0.000  0.012  0.013
    5  0.007  0.001  0.000  0.008
    6  0.001  0.000  0.012  0.013
    7  0.001  0.000  0.012  0.013
    8  0.001  0.000  0.012  0.013
    9  0.002  0.000  0.018  0.020
   10  0.004  0.000  0.021  0.025
   11  0.001  0.000  0.014  0.015
   12  0.004  0.000  0.021  0.025
   13  0.001  0.000  0.014  0.015
   14  0.001  0.000  0.014  0.015
   15  0.000  0.000  0.048  0.048
   16  0.004  0.000  0.021  0.025
   17  0.000  0.000  0.048  0.048
   18  0.000  0.000  0.048  0.049
   19  0.000  0.000  0.053  0.053
   20  0.007  0.000  0.033  0.040
   21  0.007  0.000  0.033  0.040
   22  0.003  0.000  0.017  0.020
   23  0.007  0.000  0.033  0.040
   24  0.003  0.000  0.017  0.020
   25  0.000  0.000  0.053  0.053
   26  0.000  0.000  0.053  0.053
   27  0.003  0.000  0.017  0.020
   28  0.001  0.000  0.001  0.001
   29  0.002  0.000  0.011  0.013
   30  0.002  0.000  0.011  0.013
   31  0.002  0.000  0.011  0.013
   32  0.002  0.000  0.011  0.013
   33  0.002  0.000  0.011  0.013
   34  0.002  0.000  0.011  0.013
   35  0.012  0.001  0.005  0.017
   36  0.000  0.003  0.000  0.004
   37  0.000  0.004  0.000  0.004
   38  0.000  0.006  0.000  0.006
tot    0.088  0.020  0.720  0.828
 
band    17 # energy   -5.02300309 # occ.  2.00000000
 
ion      s      p      d    tot
    1  0.000  0.000  0.005  0.005
    2  0.002  0.000  0.007  0.010
    3  0.000  0.000  0.010  0.011
    4  0.002  0.000  0.007  0.010
    5  0.000  0.000  0.011  0.011
    6  0.002  0.000  0.006  0.009
    7  0.000  0.000  0.010  0.011
    8  0.002  0.000  0.006  0.009
    9  0.000  0.000  0.019  0.019
   10  0.002  0.000  0.027  0.029
   11  0.002  0.000  0.063  0.065
   12  0.000  0.000  0.029  0.029
   13  0.002  0.000  0.062  0.064
   14  0.008  0.000  0.008  0.017
   15  0.000  0.000  0.030  0.031
   16  0.000  0.000  0.029  0.029
   17  0.001  0.000  0.030  0.031
   18  0.002  0.000  0.046  0.048
   19  0.001  0.000  0.046  0.047
   20  0.001  0.000  0.041  0.042
   21  0.000  0.000  0.018  0.018
   22  0.002  0.000  0.054  0.056
   23  0.000  0.000  0.017  0.018
   24  0.007  0.000  0.019  0.027
   25  0.004  0.000  0.010  0.013
   26  0.001  0.000  0.045  0.046
   27  0.002  0.000  0.054  0.056
   28  0.000  0.000  0.002  0.002
   29  0.000  0.000  0.005  0.005
   30  0.001  0.000  0.001  0.002
   31  0.000  0.000  0.005  0.005
   32  0.001  0.000  0.006  0.007
   33  0.001  0.000  0.001  0.002
   34  0.001  0.000  0.006  0.007
   35  0.000  0.000  0.006  0.006
   36  0.000  0.000  0.002  0.002
   37  0.000  0.011  0.000  0.011
   38  0.000  0.028  0.000  0.028
tot    0.048  0.045  0.743  0.837
 
band    18 # energy   -5.02294361 # occ.  2.00000000
 
ion      s      p      d    tot
    1  0.000  0.000  0.005  0.005
    2  0.000  0.000  0.009  0.009
    3  0.003  0.000  0.006  0.009
    4  0.000  0.000  0.009  0.009
    5  0.000  0.000  0.011  0.011
    6  0.001  0.000  0.009  0.011
    7  0.003  0.000  0.006  0.009
    8  0.001  0.000  0.009  0.011
    9  0.000  0.000  0.019  0.019
   10  0.000  0.000  0.029  0.029
   11  0.006  0.000  0.026  0.032
   12  0.001  0.000  0.027  0.029
   13  0.006  0.000  0.027  0.033
   14  0.000  0.000  0.081  0.081
   15  0.002  0.000  0.041  0.043
   16  0.001  0.000  0.027  0.029
   17  0.002  0.000  0.041  0.042
   18  0.000  0.000  0.025  0.025
   19  0.003  0.000  0.021  0.024
   20  0.000  0.000  0.010  0.010
   21  0.000  0.000  0.033  0.034
   22  0.005  0.000  0.031  0.037
   23  0.000  0.000  0.033  0.034
   24  0.000  0.000  0.066  0.066
   25  0.000  0.000  0.058  0.058
   26  0.003  0.000  0.022  0.025
   27  0.006  0.000  0.031  0.036
   28  0.000  0.000  0.002  0.002
   29  0.001  0.000  0.003  0.005
   30  0.000  0.000  0.007  0.007
   31  0.001  0.000  0.003  0.005
   32  0.000  0.000  0.002  0.002
   33  0.000  0.000  0.007  0.007
   34  0.000  0.000  0.002  0.002
   35  0.000  0.000  0.006  0.006
   36  0.000  0.000  0.002  0.002
   37  0.000  0.011  0.000  0.011
   38  0.000  0.027  0.000  0.027
tot    0.048  0.045  0.744  0.837
 
band    19 # energy   -5.00649766 # occ.  2.00000000
 
ion      s      p      d    tot
    1  0.000  0.000  0.002  0.002
    2  0.001  0.000  0.003  0.004
    3  0.001  0.000  0.002  0.003
    4  0.001  0.000  0.003  0.004
    5  0.000  0.000  0.003  0.003
    6  0.000  0.000  0.003  0.003
    7  0.001  0.000  0.002  0.003
    8  0.000  0.000  0.003  0.003
    9  0.000  0.000  0.004  0.004
   10  0.006  0.000  0.008  0.013
   11  0.000  0.000  0.007  0.007
   12  0.001  0.000  0.013  0.015
   13  0.000  0.000  0.007  0.008
   14  0.000  0.000  0.012  0.012
   15  0.002  0.000  0.029  0.031
   16  0.001  0.000  0.013  0.015
   17  0.002  0.000  0.029  0.031
   18  0.006  0.000  0.001  0.008
   19  0.001  0.000  0.009  0.010
   20  0.000  0.000  0.004  0.005
   21  0.000  0.000  0.002  0.002
   22  0.001  0.000  0.009  0.011
   23  0.000  0.000  0.002  0.002
   24  0.006  0.000  0.004  0.010
   25  0.003  0.000  0.003  0.006
   26  0.001  0.000  0.009  0.009
   27  0.001  0.000  0.009  0.011
   28  0.000  0.000  0.001  0.001
   29  0.001  0.000  0.008  0.009
   30  0.000  0.000  0.002  0.003
   31  0.001  0.000  0.008  0.009
   32  0.000  0.001  0.006  0.007
   33  0.000  0.000  0.002  0.003
   34  0.000  0.001  0.006  0.007
   35  0.000  0.000  0.003  0.004
   36  0.000  0.003  0.017  0.020
   37  0.000  0.121  0.000  0.121
   38  0.000  0.292  0.000  0.292
tot    0.038  0.423  0.248  0.709
 
band    20 # energy   -5.00640867 # occ.  2.00000000
 
ion      s      p      d    tot
    1  0.000  0.000  0.002  0.002
    2  0.000  0.000  0.002  0.002
    3  0.001  0.000  0.003  0.004
    4  0.000  0.000  0.002  0.002
    5  0.000  0.000  0.003  0.003
    6  0.001  0.000  0.002  0.004
    7  0.001  0.000  0.003  0.004
    8  0.001  0.000  0.002  0.004
    9  0.000  0.000  0.004  0.004
   10  0.000  0.000  0.015  0.015
   11  0.000  0.000  0.010  0.011
   12  0.004  0.000  0.010  0.014
   13  0.000  0.000  0.010  0.011
   14  0.000  0.000  0.006  0.006
   15  0.005  0.000  0.011  0.015
   16  0.004  0.000  0.010  0.014
   17  0.005  0.000  0.011  0.016
   18  0.000  0.000  0.039  0.039
   19  0.002  0.000  0.005  0.007
   20  0.000  0.000  0.002  0.002
   21  0.000  0.000  0.004  0.004
   22  0.004  0.000  0.006  0.010
   23  0.000  0.000  0.004  0.004
   24  0.000  0.000  0.011  0.011
   25  0.000  0.000  0.011  0.011
   26  0.002  0.000  0.005  0.007
   27  0.004  0.000  0.006  0.010
   28  0.000  0.000  0.001  0.001
   29  0.000  0.001  0.003  0.003
   30  0.000  0.001  0.008  0.009
   31  0.000  0.001  0.003  0.003
   32  0.001  0.000  0.005  0.005
   33  0.000  0.001  0.008  0.009
   34  0.001  0.000  0.005  0.005
   35  0.000  0.000  0.003  0.004
   36  0.000  0.003  0.017  0.020
   37  0.000  0.121  0.000  0.121
   38  0.000  0.293  0.000  0.293
tot    0.037  0.424  0.247  0.709
 
band    21 # energy   -4.89271785 # occ.  2.00000000
 
ion      s      p      d    tot
    1  0.000  0.000  0.001  0.001
    2  0.000  0.000  0.008  0.008
    3  0.000  0.000  0.008  0.008
    4  0.000  0.000  0.008  0.008
    5  0.001  0.000  0.019  0.020
    6  0.000  0.000  0.008  0.008
    7  0.000  0.000  0.008  0.008
    8  0.000  0.000  0.008  0.008
    9  0.000  0.000  0.001  0.001
   10  0.000  0.000  0.004  0.004
   11  0.000  0.000  0.047  0.047
   12  0.000  0.000  0.004  0.004
   13  0.000  0.000  0.047  0.047
   14  0.000  0.000  0.047  0.047
   15  0.005  0.000  0.015  0.021
   16  0.000  0.000  0.004  0.004