PROCAR new format
# of k-points:   10         # of bands:  252         # of ions:   37

 k-point     1 :    0.00000000 0.00000000 0.00000000     weight = 0.01562500

band     1 # energy   -8.17845818 # occ.  2.00000000
 
ion      s      p      d    tot
    1  0.007  0.001  0.000  0.007
    2  0.007  0.001  0.000  0.007
    3  0.007  0.001  0.000  0.007
    4  0.007  0.001  0.000  0.007
    5  0.007  0.001  0.000  0.007
    6  0.007  0.001  0.000  0.007
    7  0.007  0.001  0.000  0.007
    8  0.007  0.001  0.000  0.007
    9  0.007  0.001  0.000  0.007
   10  0.027  0.000  0.000  0.027
   11  0.027  0.000  0.000  0.027
   12  0.027  0.000  0.000  0.027
   13  0.027  0.000  0.000  0.027
   14  0.027  0.000  0.000  0.027
   15  0.027  0.000  0.000  0.027
   16  0.027  0.000  0.000  0.027
   17  0.027  0.000  0.000  0.027
   18  0.027  0.000  0.000  0.027
   19  0.024  0.000  0.000  0.024
   20  0.026  0.000  0.000  0.026
   21  0.026  0.000  0.000  0.026
   22  0.025  0.000  0.000  0.025
   23  0.026  0.000  0.000  0.026
   24  0.025  0.000  0.000  0.025
   25  0.024  0.000  0.000  0.024
   26  0.024  0.000  0.000  0.024
   27  0.025  0.000  0.000  0.025
   28  0.005  0.000  0.000  0.005
   29  0.005  0.000  0.000  0.005
   30  0.005  0.000  0.000  0.005
   31  0.005  0.000  0.000  0.005
   32  0.005  0.000  0.000  0.005
   33  0.005  0.000  0.000  0.005
   34  0.005  0.000  0.000  0.005
   35  0.005  0.000  0.000  0.005
   36  0.004  0.000  0.000  0.005
   37  0.000  0.000  0.000  0.000
tot    0.566  0.012  0.003  0.581
 
band     2 # energy   -6.98751254 # occ.  2.00000000
 
ion      s      p      d    tot
    1  0.017  0.000  0.001  0.019
    2  0.017  0.000  0.001  0.018
    3  0.017  0.000  0.001  0.018
    4  0.017  0.000  0.001  0.018
    5  0.017  0.000  0.001  0.018
    6  0.017  0.000  0.001  0.018
    7  0.017  0.000  0.001  0.018
    8  0.017  0.000  0.001  0.018
    9  0.017  0.000  0.001  0.018
   10  0.010  0.002  0.003  0.015
   11  0.010  0.002  0.003  0.014
   12  0.010  0.002  0.003  0.015
   13  0.010  0.002  0.003  0.014
   14  0.010  0.002  0.003  0.014
   15  0.010  0.002  0.003  0.014
   16  0.010  0.002  0.003  0.015
   17  0.010  0.002  0.003  0.014
   18  0.010  0.002  0.003  0.014
   19  0.014  0.001  0.004  0.019
   20  0.015  0.001  0.004  0.021
   21  0.015  0.001  0.004  0.021
   22  0.015  0.001  0.004  0.019
   23  0.015  0.001  0.004  0.021
   24  0.015  0.001  0.004  0.019
   25  0.014  0.001  0.004  0.019
   26  0.014  0.001  0.004  0.019
   27  0.015  0.001  0.004  0.019
   28  0.014  0.001  0.000  0.014
   29  0.013  0.001  0.000  0.014
   30  0.013  0.001  0.000  0.014
   31  0.013  0.001  0.000  0.014
   32  0.013  0.001  0.000  0.014
   33  0.013  0.001  0.000  0.014
   34  0.013  0.001  0.000  0.014
   35  0.013  0.001  0.000  0.014
   36  0.010  0.000  0.000  0.010
   37  0.001  0.000  0.000  0.001
tot    0.494  0.032  0.071  0.597
 
band     3 # energy   -6.04353731 # occ.  2.00000000
 
ion      s      p      d    tot
    1  0.008  0.000  0.020  0.028
    2  0.015  0.000  0.016  0.031
    3  0.015  0.000  0.016  0.031
    4  0.015  0.000  0.016  0.031
    5  0.007  0.000  0.014  0.022
    6  0.015  0.000  0.016  0.031
    7  0.015  0.000  0.016  0.031
    8  0.015  0.000  0.016  0.031
    9  0.035  0.000  0.010  0.045
   10  0.012  0.001  0.022  0.035
   11  0.019  0.002  0.016  0.036
   12  0.012  0.001  0.022  0.035
   13  0.019  0.002  0.016  0.036
   14  0.019  0.002  0.016  0.036
   15  0.000  0.001  0.027  0.028
   16  0.012  0.001  0.022  0.035
   17  0.000  0.001  0.027  0.028
   18  0.000  0.001  0.027  0.028
   19  0.001  0.000  0.009  0.010
   20  0.007  0.001  0.008  0.016
   21  0.007  0.001  0.008  0.016
   22  0.006  0.001  0.003  0.010
   23  0.007  0.001  0.008  0.016
   24  0.006  0.001  0.003  0.010
   25  0.001  0.000  0.009  0.010
   26  0.001  0.000  0.009  0.010
   27  0.006  0.001  0.003  0.010
   28  0.003  0.000  0.000  0.003
   29  0.001  0.000  0.002  0.003
   30  0.001  0.000  0.002  0.003
   31  0.001  0.000  0.002  0.003
   32  0.001  0.000  0.002  0.003
   33  0.001  0.000  0.002  0.003
   34  0.001  0.000  0.002  0.003
   35  0.005  0.000  0.000  0.005
   36  0.001  0.000  0.000  0.002
   37  0.000  0.000  0.000  0.000
tot    0.290  0.021  0.402  0.713
 
band     4 # energy   -6.03713462 # occ.  2.00000000
 
ion      s      p      d    tot
    1  0.023  0.001  0.002  0.025
    2  0.006  0.000  0.010  0.017
    3  0.006  0.000  0.010  0.017
    4  0.006  0.000  0.010  0.017
    5  0.011  0.000  0.008  0.018
    6  0.006  0.000  0.010  0.017
    7  0.006  0.000  0.010  0.017
    8  0.006  0.000  0.010  0.017
    9  0.000  0.001  0.011  0.013
   10  0.001  0.000  0.032  0.034
   11  0.000  0.002  0.018  0.020
   12  0.001  0.000  0.032  0.034
   13  0.000  0.002  0.018  0.020
   14  0.000  0.002  0.018  0.020
   15  0.038  0.002  0.006  0.046
   16  0.001  0.000  0.032  0.034
   17  0.038  0.002  0.006  0.046
   18  0.038  0.002  0.006  0.046
   19  0.000  0.001  0.017  0.018
   20  0.017  0.000  0.015  0.032
   21  0.017  0.000  0.015  0.032
   22  0.014  0.003  0.005  0.022
   23  0.017  0.000  0.015  0.032
   24  0.014  0.003  0.005  0.022
   25  0.000  0.001  0.017  0.018
   26  0.000  0.001  0.017  0.018
   27  0.014  0.003  0.005  0.022
   28  0.000  0.000  0.001  0.001
   29  0.000  0.000  0.003  0.003
   30  0.000  0.000  0.003  0.003
   31  0.000  0.000  0.003  0.003
   32  0.000  0.000  0.003  0.003
   33  0.000  0.000  0.003  0.003
   34  0.000  0.000  0.003  0.003
   35  0.003  0.001  0.000  0.004
   36  0.008  0.001  0.001  0.010
   37  0.001  0.000  0.000  0.001
tot    0.296  0.032  0.379  0.707
 
band     5 # energy   -6.01486668 # occ.  2.00000000
 
ion      s      p      d    tot
    1  0.000  0.000  0.005  0.005
    2  0.007  0.001  0.004  0.012
    3  0.004  0.001  0.003  0.008
    4  0.007  0.001  0.004  0.012
    5  0.000  0.001  0.010  0.011
    6  0.000  0.000  0.003  0.004
    7  0.004  0.001  0.003  0.008
    8  0.000  0.000  0.003  0.004
    9  0.000  0.001  0.002  0.003
   10  0.000  0.001  0.025  0.026
   11  0.047  0.002  0.014  0.062
   12  0.008  0.001  0.012  0.021
   13  0.045  0.002  0.015  0.061
   14  0.000  0.001  0.040  0.041
   15  0.016  0.001  0.013  0.030
   16  0.008  0.001  0.012  0.021
   17  0.015  0.001  0.013  0.029
   18  0.000  0.005  0.004  0.008
   19  0.000  0.001  0.010  0.012
   20  0.000  0.004  0.018  0.022
   21  0.032  0.002  0.014  0.047
   22  0.030  0.002  0.013  0.044
   23  0.033  0.001  0.014  0.048
   24  0.000  0.000  0.039  0.039
   25  0.000  0.003  0.007  0.010
   26  0.000  0.001  0.010  0.011
   27  0.031  0.002  0.011  0.044
   28  0.000  0.000  0.001  0.001
   29  0.001  0.000  0.002  0.003
   30  0.006  0.001  0.003  0.010
   31  0.001  0.000  0.002  0.003
   32  0.003  0.001  0.003  0.006
   33  0.006  0.001  0.003  0.010
   34  0.003  0.001  0.003  0.007
   35  0.000  0.001  0.007  0.007
   36  0.000  0.001  0.001  0.002
   37  0.000  0.000  0.000  0.000
tot    0.307  0.043  0.345  0.694
 
band     6 # energy   -6.01480436 # occ.  2.00000000
 
ion      s      p      d    tot
    1  0.000  0.000  0.005  0.005
    2  0.001  0.000  0.003  0.004
    3  0.004  0.001  0.004  0.008
    4  0.001  0.000  0.003  0.004
    5  0.000  0.001  0.010  0.011
    6  0.007  0.001  0.003  0.012
    7  0.004  0.001  0.004  0.008
    8  0.007  0.001  0.003  0.012
    9  0.000  0.001  0.002  0.003
   10  0.011  0.001  0.007  0.019
   11  0.015  0.001  0.032  0.048
   12  0.003  0.001  0.021  0.025
   13  0.017  0.001  0.031  0.049
   14  0.060  0.002  0.006  0.068
   15  0.005  0.004  0.007  0.015
   16  0.003  0.001  0.021  0.025
   17  0.005  0.003  0.007  0.016
   18  0.020  0.000  0.017  0.037
   19  0.000  0.002  0.008  0.010
   20  0.043  0.001  0.012  0.056
   21  0.011  0.003  0.016  0.031
   22  0.011  0.001  0.029  0.041
   23  0.010  0.003  0.017  0.030
   24  0.040  0.002  0.003  0.045
   25  0.000  0.001  0.011  0.012
   26  0.000  0.002  0.008  0.010
   27  0.010  0.001  0.030  0.041
   28  0.000  0.000  0.001  0.001
   29  0.006  0.001  0.003  0.010
   30  0.000  0.000  0.003  0.003
   31  0.006  0.001  0.003  0.010
   32  0.004  0.001  0.002  0.007
   33  0.000  0.000  0.003  0.003
   34  0.004  0.001  0.002  0.007
   35  0.000  0.001  0.007  0.007
   36  0.000  0.001  0.001  0.002
   37  0.000  0.000  0.000  0.000
tot    0.307  0.043  0.345  0.694
 
band     7 # energy   -6.00848365 # occ.  2.00000000
 
ion      s      p      d    tot
    1  0.006  0.001  0.001  0.008
    2  0.000  0.001  0.006  0.007
    3  0.000  0.001  0.006  0.007
    4  0.000  0.001  0.006  0.007
    5  0.018  0.002  0.001  0.020
    6  0.000  0.001  0.006  0.007
    7  0.000  0.001  0.006  0.007
    8  0.000  0.001  0.006  0.007
    9  0.000  0.000  0.002  0.002
   10  0.026  0.003  0.002  0.031
   11  0.020  0.001  0.022  0.043
   12  0.025  0.003  0.002  0.030
   13  0.020  0.001  0.022  0.043
   14  0.021  0.001  0.022  0.044
   15  0.000  0.001  0.025  0.026
   16  0.025  0.003  0.002  0.030
   17  0.000  0.001  0.025  0.026
   18  0.000  0.001  0.025  0.026
   19  0.025  0.002  0.007  0.034
   20  0.006  0.002  0.014  0.022
   21  0.007  0.002  0.014  0.023
   22  0.008  0.000  0.026  0.034
   23  0.007  0.002  0.014  0.023
   24  0.009  0.000  0.026  0.035
   25  0.025  0.002  0.007  0.034
   26  0.025  0.002  0.007  0.034
   27  0.008  0.000  0.026  0.034
   28  0.011  0.001  0.001  0.013
   29  0.000  0.000  0.004  0.004
   30  0.000  0.000  0.004  0.004
   31  0.000  0.000  0.004  0.004
   32  0.000  0.000  0.004  0.004
   33  0.000  0.000  0.004  0.004
   34  0.000  0.000  0.004  0.004
   35  0.004  0.001  0.002  0.007
   36  0.000  0.000  0.000  0.001
   37  0.000  0.000  0.000  0.000
tot    0.301  0.041  0.354  0.695
 
band     8 # energy   -5.99151573 # occ.  2.00000000
 
ion      s      p      d    tot
    1  0.000  0.001  0.007  0.009
    2  0.008  0.001  0.004  0.014
    3  0.006  0.001  0.003  0.010
    4  0.007  0.001  0.004  0.012
    5  0.000  0.000  0.002  0.002
    6  0.001  0.001  0.004  0.005
    7  0.003  0.001  0.003  0.007
    8  0.000  0.000  0.003  0.004
    9  0.000  0.001  0.010  0.010
   10  0.051  0.001  0.013  0.065
   11  0.000  0.003  0.008  0.011
   12  0.022  0.002  0.017  0.041
   13  0.000  0.002  0.010  0.012
   14  0.001  0.001  0.014  0.015
   15  0.005  0.000  0.041  0.046
   16  0.006  0.003  0.019  0.028
   17  0.018  0.001  0.028  0.047
   18  0.042  0.002  0.004  0.049
   19  0.006  0.002  0.030  0.037
   20  0.013  0.002  0.007  0.022
   21  0.006  0.001  0.017  0.024
   22  0.006  0.002  0.009  0.017
   23  0.002  0.001  0.023  0.025
   24  0.013  0.000  0.014  0.028
   25  0.050  0.002  0.006  0.058
   26  0.021  0.002  0.022  0.045
   27  0.002  0.004  0.006  0.011
   28  0.000  0.001  0.006  0.007
   29  0.001  0.000  0.002  0.003
   30  0.004  0.001  0.002  0.006
   31  0.000  0.000  0.002  0.002
   32  0.001  0.000  0.003  0.004
   33  0.004  0.001  0.002  0.007
   34  0.003  0.001  0.003  0.006
   35  0.000  0.000  0.001  0.002
   36  0.000  0.000  0.001  0.001
   37  0.000  0.000  0.000  0.000
tot    0.301  0.042  0.350  0.693
 
band     9 # energy   -5.99144607 # occ.  2.00000000
 
ion      s      p      d    tot
    1  0.000  0.001  0.007  0.009
    2  0.000  0.000  0.003  0.004
    3  0.002  0.001  0.004  0.007
    4  0.002  0.001  0.003  0.006
    5  0.000  0.000  0.002  0.002
    6  0.007  0.001  0.004  0.012
    7  0.005  0.001  0.004  0.010
    8  0.008  0.001  0.004  0.014
    9  0.000  0.001  0.010  0.010
   10  0.002  0.004  0.020  0.025
   11  0.000  0.001  0.013  0.015
   12  0.031  0.002  0.016  0.048
   13  0.000  0.002  0.011  0.013
   14  0.000  0.004  0.007  0.011
   15  0.039  0.002  0.008  0.048
   16  0.047  0.001  0.014  0.061
   17  0.026  0.001  0.021  0.047
   18  0.001  0.000  0.044  0.046
   19  0.045  0.002  0.009  0.056
   20  0.000  0.001  0.025  0.026
   21  0.008  0.001  0.014  0.023
   22  0.008  0.002  0.011  0.020
   23  0.012  0.001  0.008  0.022
   24  0.000  0.004  0.005  0.010
   25  0.002  0.002  0.032  0.035
   26  0.030  0.002  0.017  0.049
   27  0.012  0.001  0.014  0.026
   28  0.000  0.001  0.006  0.007
   29  0.003  0.001  0.003  0.007
   30  0.001  0.000  0.002  0.003
   31  0.004  0.001  0.002  0.007
   32  0.003  0.001  0.002  0.005
   33  0.000  0.000  0.002  0.002
   34  0.002  0.000  0.002  0.004
   35  0.000  0.000  0.001  0.002
   36  0.000  0.000  0.001  0.001
   37  0.000  0.000  0.000  0.000
tot    0.301  0.042  0.350  0.693
 
band    10 # energy   -5.85660695 # occ.  2.00000000
 
ion      s      p      d    tot
    1  0.000  0.000  0.000  0.000
    2  0.000  0.000  0.000  0.001
    3  0.000  0.000  0.000  0.001
    4  0.000  0.000  0.000  0.001
    5  0.001  0.000  0.000  0.001
    6  0.000  0.000  0.000  0.001
    7  0.000  0.000  0.000  0.001
    8  0.000  0.000  0.000  0.001
    9  0.000  0.000  0.000  0.000
   10  0.000  0.000  0.002  0.002
   11  0.000  0.000  0.002  0.003
   12  0.000  0.000  0.002  0.002
   13  0.000  0.000  0.002  0.003
   14  0.000  0.000  0.002  0.003
   15  0.000  0.000  0.003  0.003
   16  0.000  0.000  0.002  0.002
   17  0.000  0.000  0.003  0.003
   18  0.000  0.000  0.003  0.003
   19  0.006  0.001  0.022  0.029
   20  0.004  0.001  0.024  0.029
   21  0.004  0.001  0.024  0.029
   22  0.006  0.001  0.029  0.036
   23  0.004  0.001  0.024  0.029
   24  0.006  0.001  0.029  0.036
   25  0.006  0.001  0.022  0.029
   26  0.006  0.001  0.022  0.029
   27  0.006  0.001  0.029  0.036
   28  0.027  0.000  0.022  0.050
   29  0.025  0.000  0.022  0.047
   30  0.025  0.000  0.022  0.047
   31  0.025  0.000  0.022  0.047
   32  0.025  0.000  0.022  0.047
   33  0.025  0.000  0.022  0.047
   34  0.025  0.000  0.022  0.047
   35  0.031  0.000  0.022  0.053
   36  0.011  0.001  0.001  0.013
   37  0.003  0.000  0.000  0.003
tot    0.279  0.012  0.424  0.715
 
band    11 # energy   -5.54115317 # occ.  2.00000000
 
ion      s      p      d    tot
    1  0.018  0.002  0.002  0.021
    2  0.000  0.001  0.008  0.009
    3  0.000  0.001  0.008  0.009
    4  0.000  0.001  0.008  0.009
    5  0.000  0.000  0.002  0.002
    6  0.000  0.001  0.008  0.009
    7  0.000  0.001  0.008  0.009
    8  0.000  0.001  0.008  0.009
    9  0.014  0.001  0.000  0.015
   10  0.010  0.002  0.010  0.021
   11  0.004  0.000  0.038  0.043
   12  0.010  0.002  0.010  0.022
   13  0.004  0.000  0.038  0.043
   14  0.004  0.000  0.038  0.043
   15  0.002  0.001  0.032  0.034
   16  0.010  0.002  0.010  0.022
   17  0.002  0.001  0.032  0.034
   18  0.002  0.001  0.032  0.034
   19  0.007  0.001  0.010  0.018
   20  0.000  0.000  0.045  0.045
   21  0.000  0.000  0.045  0.045
   22  0.010  0.001  0.025  0.036
   23  0.000  0.000  0.045  0.045
   24  0.010  0.001  0.025  0.036
   25  0.007  0.001  0.010  0.019
   26  0.007  0.001  0.010  0.018
   27  0.010  0.001  0.025  0.036
   28  0.011  0.002  0.002  0.014
   29  0.000  0.001  0.005  0.006
   30  0.000  0.001  0.005  0.006
   31  0.000  0.001  0.005  0.006
   32  0.000  0.001  0.005  0.006
   33  0.000  0.001  0.005  0.006
   34  0.000  0.001  0.005  0.006
   35  0.008  0.001  0.002  0.011
   36  0.001  0.000  0.000  0.002
   37  0.000  0.000  0.000  0.000
tot    0.152  0.029  0.571  0.752
 
band    12 # energy   -5.52441482 # occ.  2.00000000
 
ion      s      p      d    tot
    1  0.000  0.001  0.004  0.005
    2  0.008  0.001  0.004  0.013
    3  0.004  0.001  0.004  0.009
    4  0.009  0.001  0.004  0.015
    5  0.000  0.001  0.012  0.013
    6  0.006  0.001  0.005  0.012
    7  0.000  0.000  0.005  0.005
    8  0.001  0.001  0.005  0.006
    9  0.000  0.000  0.008  0.008
   10  0.010  0.002  0.012  0.024
   11  0.001  0.000  0.046  0.047
   12  0.006  0.001  0.028  0.036
   13  0.010  0.001  0.028  0.039
   14  0.016  0.001  0.016  0.034
   15  0.000  0.001  0.011  0.012
   16  0.000  0.001  0.053  0.054
   17  0.001  0.001  0.018  0.019
   18  0.001  0.000  0.022  0.024
   19  0.000  0.001  0.017  0.019
   20  0.021  0.001  0.012  0.035
   21  0.013  0.001  0.033  0.047
   22  0.001  0.001  0.022  0.024
   23  0.001  0.000  0.065  0.066
   24  0.002  0.001  0.016  0.019
   25  0.011  0.000  0.020  0.032
   26  0.007  0.001  0.019  0.027
   27  0.000  0.001  0.030  0.032
   28  0.000  0.001  0.009  0.009
   29  0.006  0.001  0.004  0.012
   30  0.002  0.001  0.004  0.008
   31  0.010  0.001  0.004  0.014
   32  0.008  0.001  0.003  0.012
   33  0.000  0.000  0.004  0.005
   34  0.002  0.001  0.004  0.006
   35  0.000  0.000  0.003  0.004
   36  0.000  0.002  0.001  0.003
   37  0.000  0.000  0.000  0.000
tot    0.158  0.031  0.559  0.748
 
band    13 # energy   -5.52440058 # occ.  2.00000000
 
ion      s      p      d    tot
    1  0.000  0.001  0.004  0.005
    2  0.001  0.001  0.005  0.007
    3  0.005  0.001  0.005  0.011
    4  0.001  0.000  0.005  0.006
    5  0.000  0.001  0.012  0.013
    6  0.003  0.001  0.004  0.008
    7  0.009  0.001  0.004  0.015
    8  0.009  0.001  0.004  0.014
    9  0.000  0.000  0.008  0.008
   10  0.001  0.001  0.050  0.052
   11  0.018  0.001  0.015  0.033
   12  0.005  0.001  0.034  0.040
   13  0.008  0.001  0.032  0.041
   14  0.002  0.000  0.044  0.046
   15  0.001  0.000  0.023  0.024
   16  0.010  0.002  0.009  0.021
   17  0.000  0.001  0.016  0.018
   18  0.000  0.001  0.012  0.013
   19  0.012  0.000  0.021  0.033
   20  0.002  0.000  0.062  0.064
   21  0.010  0.001  0.040  0.052
   22  0.001  0.001  0.024  0.026
   23  0.022  0.002  0.008  0.032
   24  0.000  0.001  0.029  0.031
   25  0.001  0.001  0.017  0.019
   26  0.006  0.001  0.019  0.025
   27  0.002  0.001  0.016  0.019
   28  0.000  0.001  0.009  0.009
   29  0.003  0.001  0.004  0.007
   30  0.007  0.001  0.003  0.011
   31  0.000  0.000  0.004  0.005
   32  0.002  0.001  0.004  0.007
   33  0.009  0.001  0.004  0.014
   34  0.007  0.001  0.004  0.013
   35  0.000  0.000  0.003  0.004
   36  0.000  0.002  0.001  0.003
   37  0.000  0.000  0.000  0.000
tot    0.158  0.031  0.559  0.748
 
band    14 # energy   -5.51956649 # occ.  2.00000000
 
ion      s      p      d    tot
    1  0.004  0.000  0.001  0.005
    2  0.000  0.001  0.008  0.009
    3  0.000  0.001  0.008  0.009
    4  0.000  0.001  0.008  0.009
    5  0.019  0.002  0.000  0.021
    6  0.000  0.001  0.008  0.009
    7  0.000  0.001  0.008  0.009
    8  0.000  0.001  0.008  0.009
    9  0.006  0.001  0.002  0.009
   10  0.000  0.000  0.044  0.045
   11  0.005  0.001  0.015  0.021
   12  0.001  0.000  0.045  0.045
   13  0.005  0.001  0.015  0.021
   14  0.006  0.001  0.015  0.022
   15  0.009  0.001  0.021  0.031
   16  0.001  0.000  0.045  0.046
   17  0.009  0.001  0.021  0.031
   18  0.009  0.001  0.021  0.031
   19  0.007  0.000  0.042  0.049
   20  0.011  0.002  0.011  0.024
   21  0.012  0.002  0.011  0.025
   22  0.001  0.000  0.029  0.031
   23  0.012  0.002  0.011  0.025
   24  0.001  0.000  0.029  0.031
   25  0.006  0.000  0.043  0.049
   26  0.007  0.000  0.042  0.049
   27  0.001  0.000  0.029  0.030
   28  0.000  0.000  0.003  0.004
   29  0.000  0.001  0.005  0.005
   30  0.000  0.001  0.005  0.005
   31  0.000  0.001  0.005  0.005
   32  0.000  0.001  0.005  0.006
   33  0.000  0.001  0.005  0.005
   34  0.000  0.001  0.005  0.006
   35  0.006  0.001  0.000  0.007
   36  0.013  0.001  0.002  0.016
   37  0.001  0.000  0.000  0.001
tot    0.152  0.029  0.574  0.756
 
band    15 # energy   -5.49785921 # occ.  2.00000000
 
ion      s      p      d    tot
    1  0.000  0.000  0.014  0.015
    2  0.010  0.001  0.005  0.016
    3  0.003  0.001  0.005  0.009
    4  0.010  0.001  0.005  0.016
    5  0.000  0.000  0.004  0.005
    6  0.003  0.001  0.006  0.009
    7  0.002  0.000  0.005  0.008
    8  0.002  0.001  0.006  0.008
    9  0.000  0.001  0.009  0.010
   10  0.000  0.001  0.023  0.024
   11  0.002  0.001  0.019  0.022
   12  0.005  0.000  0.023  0.028
   13  0.002  0.001  0.020  0.023
   14  0.000  0.001  0.026  0.027
   15  0.013  0.002  0.019  0.034
   16  0.006  0.000  0.023  0.029
   17  0.012  0.002  0.025  0.038
   18  0.000  0.000  0.066  0.066
   19  0.011  0.001  0.017  0.029
   20  0.000  0.002  0.014  0.016
   21  0.001  0.001  0.020  0.022
   22  0.018  0.001  0.023  0.041
   23  0.001  0.000  0.021  0.022
   24  0.000  0.000  0.040  0.041
   25  0.000  0.001  0.063  0.064
   26  0.010  0.001  0.023  0.034
   27  0.020  0.001  0.020  0.041
   28  0.000  0.001  0.004  0.004
   29  0.006  0.001  0.004  0.011
   30  0.001  0.001  0.004  0.005
   31  0.006  0.001  0.004  0.011
   32  0.003  0.001  0.002  0.006
   33  0.000  0.000  0.004  0.005
   34  0.002  0.001  0.002  0.005
   35  0.000  0.001  0.008  0.009
   36  0.000  0.000  0.000  0.001
   37  0.000  0.000  0.000  0.000
tot    0.149  0.029  0.574  0.752
 
band    16 # energy   -5.49782702 # occ.  2.00000000
 
ion      s      p      d    tot
    1  0.000  0.000  0.014  0.015
    2  0.000  0.000  0.006  0.006
    3  0.007  0.001  0.005  0.014
    4  0.000  0.000  0.005  0.006
    5  0.000  0.000  0.004  0.005
    6  0.007  0.001  0.005  0.013
    7  0.008  0.001  0.005  0.015
    8  0.008  0.001  0.005  0.014
    9  0.000  0.001  0.009  0.010
   10  0.007  0.000  0.023  0.030
   11  0.000  0.001  0.024  0.026
   12  0.002  0.001  0.023  0.026
   13  0.001  0.001  0.023  0.025
   14  0.002  0.001  0.017  0.021
   15  0.003  0.000  0.054  0.058
   16  0.001  0.001  0.023  0.025
   17  0.005  0.001  0.048  0.054
   18  0.017  0.002  0.007  0.026
   19  0.003  0.001  0.052  0.055
   20  0.001  0.000  0.023  0.024
   21  0.000  0.001  0.017  0.018
   22  0.008  0.000  0.033  0.041
   23  0.000  0.001  0.016  0.017
   24  0.025  0.001  0.015  0.041
   25  0.014  0.001  0.005  0.021
   26  0.004  0.001  0.046  0.051
   27  0.005  0.000  0.035  0.041
   28  0.000  0.001  0.004  0.004
   29  0.000  0.000  0.003  0.003
   30  0.005  0.001  0.002  0.008
   31  0.000  0.000  0.003  0.003
   32  0.003  0.001  0.004  0.008
   33  0.005  0.001  0.003  0.009
   34  0.004  0.001  0.004  0.009
   35  0.000  0.001  0.008  0.009
   36  0.000  0.000  0.000  0.001
   37  0.000  0.000  0.000  0.000
tot    0.149  0.029  0.574  0.752
 
band    17 # energy   -5.14377144 # occ.  2.00000000
 
ion      s      p      d    tot
    1  0.000  0.001  0.015  0.016
    2  0.008  0.000  0.016  0.024
    3  0.000  0.000  0.014  0.014
    4  0.008  0.001  0.009  0.018
    5  0.000  0.000  0.031  0.032
    6  0.000  0.001  0.013  0.014
    7  0.008  0.001  0.010  0.019
    8  0.008  0.000  0.015  0.024
    9  0.000  0.002  0.010  0.011
   10  0.000  0.000  0.010  0.010
   11  0.000  0.000  0.042  0.042
   12  0.000  0.000  0.018  0.019
   13  0.000  0.001  0.037  0.038
   14  0.000  0.000  0.041  0.042
   15  0.000  0.000  0.042  0.042
   16  0.000  0.000  0.009  0.009
   17  0.000  0.000  0.053  0.054
   18  0.000  0.000  0.042  0.043
   19  0.000  0.000  0.011  0.012
   20  0.000  0.000  0.025  0.026
   21  0.001  0.000  0.037  0.038
   22  0.000  0.000  0.042  0.042
   23  0.000  0.000  0.025  0.025
   24  0.000  0.000  0.036  0.037
   25  0.000  0.000  0.011  0.012
   26  0.001  0.000  0.011  0.012
   27  0.000  0.000  0.036  0.037
   28  0.000  0.000  0.013  0.014
   29  0.000  0.001  0.007  0.008
   30  0.005  0.000  0.011  0.017
   31  0.009  0.001  0.007  0.016
   32  0.006  0.000  0.011  0.017
   33  0.008  0.001  0.007  0.016
   34  0.000  0.001  0.007  0.008
   35  0.000  0.000  0.017  0.018
   36  0.000  0.001  0.001  0.002
   37  0.000  0.000  0.000  0.000
tot    0.066  0.016  0.744  0.825
 
band    18 # energy   -5.14376536 # occ.  2.00000000
 
ion      s      p      d    tot
    1  0.000  0.001  0.015  0.016
    2  0.003  0.001  0.010  0.014
    3  0.011  0.001  0.012  0.024
    4  0.003  0.000  0.016  0.020
    5  0.000  0.000  0.031  0.032
    6  0.011  0.001  0.012  0.024
    7  0.002  0.000  0.016  0.019
    8  0.002  0.001  0.010  0.013
    9  0.000  0.002  0.010  0.011
   10  0.000  0.000  0.015  0.015
   11  0.000  0.000  0.039  0.039
   12  0.000  0.000  0.006  0.006
   13  0.000  0.000  0.043  0.043
   14  0.000  0.000  0.039  0.039
   15  0.000  0.000  0.050  0.050
   16  0.000  0.000  0.016  0.016
   17  0.000  0.000  0.038  0.038
   18  0.000  0.000  0.049  0.049
   19  0.001  0.000  0.011  0.012
   20  0.001  0.000  0.032  0.034
   21  0.000  0.000  0.021  0.021
   22  0.000  0.000  0.034  0.035
   23  0.001  0.000  0.033  0.034
   24  0.000  0.000  0.040  0.040
   25  0.001  0.000  0.011  0.012
   26  0.000  0.000  0.011  0.011
   27  0.000  0.000  0.040  0.041
   28  0.000  0.000  0.013  0.014
   29  0.009  0.001  0.009  0.019
   30  0.004  0.001  0.006  0.011
   31  0.001  0.000  0.010  0.011
   32  0.004  0.001  0.006  0.010
   33  0.001  0.000  0.010  0.012
   34  0.009  0.001  0.010  0.019
   35  0.000  0.000  0.017  0.018
   36  0.000  0.001  0.001  0.002
   37  0.000  0.000  0.000  0.000
tot    0.066  0.016  0.744  0.825
 
band    19 # energy   -5.13562106 # occ.  2.00000000
 
ion      s      p      d    tot
    1  0.013  0.001  0.000  0.014
    2  0.000  0.001  0.017  0.018
    3  0.000  0.001  0.017  0.018
    4  0.000  0.001  0.017  0.018
    5  0.017  0.000  0.011  0.028
    6  0.000  0.001  0.017  0.018
    7  0.000  0.001  0.017  0.018
    8  0.000  0.001  0.017  0.018
    9  0.000  0.000  0.011  0.011
   10  0.000  0.000  0.030  0.030
   11  0.000  0.000  0.033  0.034
   12  0.000  0.000  0.030  0.030
   13  0.000  0.000  0.033  0.034
   14  0.000  0.000  0.034  0.034
   15  0.000  0.000  0.042  0.042
   16  0.000  0.000  0.030  0.030
   17  0.000  0.000  0.042  0.042
   18  0.000  0.000  0.042  0.042
   19  0.000  0.000  0.027  0.027
   20  0.000  0.000  0.023  0.023
   21  0.000  0.000  0.023  0.023
   22  0.001  0.000  0.028  0.030
   23  0.000  0.000  0.023  0.023
   24  0.001  0.000  0.029  0.030
   25  0.000  0.000  0.027  0.027
   26  0.000  0.000  0.027  0.027
   27  0.001  0.000  0.028  0.030
   28  0.015  0.001  0.002  0.018
   29  0.000  0.001  0.012  0.012
   30  0.000  0.001  0.012  0.012
   31  0.000  0.001  0.012  0.012
   32  0.000  0.001  0.012  0.012
   33  0.000  0.001  0.012  0.012
   34  0.000  0.001  0.012  0.012
   35  0.005  0.000  0.005  0.011
   36  0.002  0.000  0.001  0.003
   37  0.000  0.000  0.000  0.000
tot    0.059  0.014  0.754  0.827
 
band    20 # energy   -5.12251176 # occ.  2.00000000
 
ion      s      p      d    tot
    1  0.005  0.000  0.015  0.020
    2  0.000  0.001  0.018  0.019
    3  0.000  0.001  0.018  0.019
    4  0.000  0.001  0.018  0.019
    5  0.007  0.001  0.005  0.012
    6  0.000  0.001  0.018  0.019
    7  0.000  0.001  0.018  0.019
    8  0.000  0.001  0.018  0.019
    9  0.025  0.001  0.003  0.029
   10  0.000  0.000  0.045  0.046
   11  0.000  0.000  0.044  0.045
   12  0.000  0.000  0.045  0.045
   13  0.000  0.000  0.044  0.044
   14  0.000  0.000  0.044  0.044
   15  0.000  0.000  0.030  0.031
   16  0.000  0.000  0.045  0.045
   17  0.000  0.000  0.030  0.031
   18  0.000  0.000  0.030  0.031
   19  0.001  0.000  0.022  0.023
   20  0.001  0.000  0.036  0.037
   21  0.001  0.000  0.036  0.037
   22  0.000  0.000  0.019  0.019
   23  0.001  0.000  0.036  0.037
   24  0.000  0.000  0.018  0.018
   25  0.001  0.000  0.022  0.023
   26  0.001  0.000  0.022  0.023
   27  0.000  0.000  0.019  0.019
   28  0.000  0.000  0.003  0.003
   29  0.000  0.000  0.007  0.007
   30  0.000  0.000  0.007  0.007
   31  0.000  0.000  0.007  0.007
   32  0.000  0.000  0.007  0.007
   33  0.000  0.000  0.007  0.007
   34  0.000  0.000  0.007  0.007
   35  0.003  0.000  0.000  0.004
   36  0.006  0.000  0.001  0.007
   37  0.000  0.000  0.000  0.000
tot    0.053  0.015  0.762  0.830
 
band    21 # energy   -5.10272094 # occ.  2.00000000
 
ion      s      p      d    tot
    1  0.000  0.001  0.017  0.019
    2  0.001  0.001  0.014  0.016
    3  0.007  0.000  0.016  0.024
    4  0.000  0.001  0.015  0.016
    5  0.000  0.001  0.009  0.010
    6  0.012  0.001  0.010  0.023
    7  0.005  0.000  0.017  0.023
    8  0.011  0.001  0.009  0.021
    9  0.000  0.000  0.029  0.029
   10  0.000  0.000  0.077  0.077
   11  0.000  0.000  0.040  0.040
   12  0.000  0.001  0.060  0.061
   13  0.000  0.000  0.042  0.043
   14  0.000  0.000  0.027  0.027
   15  0.000  0.001  0.025  0.026
   16  0.000  0.000  0.063  0.064
   17  0.000  0.001  0.025  0.026
   18  0.000  0.000  0.025  0.025
   19  0.001  0.000  0.036  0.037
   20  0.000  0.001  0.023  0.024
   21  0.000  0.000  0.025  0.025
   22  0.003  0.000  0.015  0.018
   23  0.000  0.000  0.024  0.025
   24  0.000  0.000  0.006  0.006
   25  0.000  0.000  0.025  0.025
   26  0.001  0.000  0.038  0.039
   27  0.002  0.000  0.013  0.016
   28  0.000  0.001  0.008  0.008
   29  0.002  0.000  0.004  0.006
   30  0.000  0.000  0.005  0.005
   31  0.001  0.000  0.004  0.006
   32  0.002  0.000  0.002  0.005
   33  0.000  0.000  0.005  0.005
   34  0.002  0.000  0.002  0.005
   35  0.000  0.001  0.005  0.006
   36  0.000  0.000  0.001  0.001