PROCAR new format
# of k-points:   10         # of bands:  252         # of ions:   38

 k-point     1 :    0.00000000 0.00000000 0.00000000     weight = 0.01562500

band     1 # energy  -19.88254858 # occ.  2.00000000
 
ion      s      p      d    tot
    1  0.000  0.000  0.000  0.000
    2  0.000  0.000  0.000  0.000
    3  0.000  0.000  0.000  0.000
    4  0.000  0.000  0.000  0.000
    5  0.000  0.000  0.000  0.000
    6  0.000  0.000  0.000  0.000
    7  0.000  0.000  0.000  0.000
    8  0.000  0.000  0.000  0.000
    9  0.000  0.000  0.000  0.000
   10  0.000  0.000  0.000  0.000
   11  0.000  0.000  0.000  0.000
   12  0.000  0.000  0.000  0.000
   13  0.000  0.000  0.000  0.000
   14  0.000  0.000  0.000  0.000
   15  0.000  0.000  0.000  0.000
   16  0.000  0.000  0.000  0.000
   17  0.000  0.000  0.000  0.000
   18  0.000  0.000  0.000  0.000
   19  0.000  0.000  0.000  0.000
   20  0.000  0.000  0.000  0.000
   21  0.000  0.000  0.000  0.000
   22  0.000  0.000  0.000  0.000
   23  0.000  0.000  0.000  0.000
   24  0.000  0.000  0.000  0.000
   25  0.000  0.000  0.000  0.000
   26  0.000  0.000  0.000  0.000
   27  0.000  0.000  0.000  0.000
   28  0.000  0.000  0.000  0.000
   29  0.000  0.000  0.000  0.000
   30  0.000  0.000  0.000  0.000
   31  0.000  0.000  0.000  0.000
   32  0.000  0.000  0.000  0.000
   33  0.000  0.000  0.000  0.000
   34  0.000  0.000  0.000  0.000
   35  0.000  0.000  0.000  0.000
   36  0.016  0.018  0.037  0.071
   37  0.748  0.012  0.000  0.760
   38  0.111  0.023  0.000  0.134
tot    0.875  0.053  0.037  0.965
 
band     2 # energy   -8.76220017 # occ.  2.00000000
 
ion      s      p      d    tot
    1  0.000  0.000  0.000  0.000
    2  0.000  0.000  0.000  0.000
    3  0.000  0.000  0.000  0.000
    4  0.000  0.000  0.000  0.000
    5  0.000  0.000  0.000  0.000
    6  0.000  0.000  0.000  0.000
    7  0.000  0.000  0.000  0.000
    8  0.000  0.000  0.000  0.000
    9  0.000  0.000  0.000  0.000
   10  0.000  0.000  0.000  0.000
   11  0.000  0.000  0.000  0.000
   12  0.000  0.000  0.000  0.000
   13  0.000  0.000  0.000  0.000
   14  0.000  0.000  0.000  0.000
   15  0.000  0.000  0.000  0.000
   16  0.000  0.000  0.000  0.000
   17  0.000  0.000  0.000  0.000
   18  0.000  0.000  0.000  0.000
   19  0.001  0.000  0.000  0.001
   20  0.005  0.001  0.003  0.009
   21  0.005  0.001  0.003  0.009
   22  0.001  0.000  0.000  0.001
   23  0.005  0.001  0.003  0.009
   24  0.001  0.000  0.000  0.001
   25  0.001  0.000  0.000  0.001
   26  0.001  0.000  0.000  0.001
   27  0.001  0.000  0.000  0.001
   28  0.000  0.000  0.000  0.000
   29  0.001  0.000  0.000  0.002
   30  0.001  0.000  0.000  0.002
   31  0.001  0.000  0.000  0.002
   32  0.001  0.000  0.000  0.002
   33  0.001  0.000  0.000  0.002
   34  0.001  0.000  0.000  0.002
   35  0.000  0.000  0.000  0.000
   36  0.091  0.030  0.154  0.276
   37  0.015  0.500  0.000  0.515
   38  0.166  0.019  0.000  0.185
tot    0.302  0.553  0.165  1.020
 
band     3 # energy   -7.82035793 # occ.  2.00000000
 
ion      s      p      d    tot
    1  0.006  0.001  0.000  0.007
    2  0.006  0.001  0.000  0.007
    3  0.006  0.001  0.000  0.007
    4  0.006  0.001  0.000  0.007
    5  0.006  0.001  0.000  0.007
    6  0.006  0.001  0.000  0.007
    7  0.006  0.001  0.000  0.007
    8  0.006  0.001  0.000  0.007
    9  0.006  0.001  0.000  0.007
   10  0.025  0.000  0.000  0.026
   11  0.027  0.000  0.000  0.027
   12  0.025  0.000  0.000  0.026
   13  0.027  0.000  0.000  0.027
   14  0.027  0.000  0.000  0.027
   15  0.025  0.000  0.000  0.026
   16  0.025  0.000  0.000  0.026
   17  0.025  0.000  0.000  0.026
   18  0.025  0.000  0.000  0.026
   19  0.021  0.000  0.000  0.022
   20  0.025  0.000  0.000  0.026
   21  0.025  0.000  0.000  0.026
   22  0.023  0.000  0.000  0.024
   23  0.025  0.000  0.000  0.026
   24  0.023  0.000  0.000  0.024
   25  0.021  0.000  0.000  0.022
   26  0.021  0.000  0.000  0.022
   27  0.023  0.000  0.000  0.024
   28  0.004  0.000  0.000  0.005
   29  0.005  0.000  0.000  0.005
   30  0.005  0.000  0.000  0.005
   31  0.005  0.000  0.000  0.005
   32  0.005  0.000  0.000  0.005
   33  0.005  0.000  0.000  0.005
   34  0.005  0.000  0.000  0.005
   35  0.004  0.000  0.000  0.005
   36  0.002  0.007  0.010  0.018
   37  0.002  0.023  0.000  0.024
   38  0.007  0.001  0.000  0.008
tot    0.546  0.041  0.013  0.600
 
band     4 # energy   -6.69512928 # occ.  2.00000000
 
ion      s      p      d    tot
    1  0.016  0.000  0.001  0.018
    2  0.016  0.000  0.001  0.017
    3  0.016  0.000  0.001  0.017
    4  0.016  0.000  0.001  0.017
    5  0.015  0.000  0.001  0.017
    6  0.016  0.000  0.001  0.017
    7  0.016  0.000  0.001  0.017
    8  0.016  0.000  0.001  0.017
    9  0.016  0.000  0.001  0.018
   10  0.011  0.001  0.002  0.015
   11  0.010  0.001  0.002  0.014
   12  0.011  0.001  0.002  0.015
   13  0.010  0.001  0.002  0.014
   14  0.010  0.001  0.002  0.014
   15  0.011  0.001  0.002  0.015
   16  0.011  0.001  0.002  0.015
   17  0.011  0.001  0.002  0.015
   18  0.011  0.001  0.002  0.015
   19  0.010  0.001  0.003  0.014
   20  0.014  0.002  0.002  0.018
   21  0.014  0.002  0.002  0.018
   22  0.011  0.001  0.003  0.015
   23  0.014  0.002  0.002  0.018
   24  0.011  0.001  0.003  0.015
   25  0.010  0.001  0.003  0.014
   26  0.010  0.001  0.003  0.014
   27  0.011  0.001  0.003  0.015
   28  0.013  0.000  0.001  0.014
   29  0.016  0.001  0.001  0.018
   30  0.016  0.001  0.001  0.018
   31  0.016  0.001  0.001  0.018
   32  0.016  0.001  0.001  0.018
   33  0.016  0.001  0.001  0.018
   34  0.016  0.001  0.001  0.018
   35  0.013  0.000  0.001  0.014
   36  0.018  0.004  0.012  0.035
   37  0.001  0.008  0.000  0.010
   38  0.002  0.000  0.000  0.002
tot    0.493  0.044  0.074  0.611
 
band     5 # energy   -5.79214283 # occ.  2.00000000
 
ion      s      p      d    tot
    1  0.006  0.000  0.001  0.008
    2  0.005  0.000  0.003  0.007
    3  0.005  0.000  0.003  0.007
    4  0.005  0.000  0.003  0.007
    5  0.007  0.000  0.002  0.010
    6  0.005  0.000  0.003  0.007
    7  0.005  0.000  0.003  0.007
    8  0.005  0.000  0.003  0.007
    9  0.002  0.000  0.004  0.005
   10  0.000  0.001  0.003  0.004
   11  0.000  0.001  0.001  0.002
   12  0.000  0.001  0.003  0.004
   13  0.000  0.001  0.001  0.002
   14  0.000  0.001  0.001  0.002
   15  0.003  0.001  0.001  0.005
   16  0.000  0.001  0.003  0.004
   17  0.003  0.001  0.001  0.005
   18  0.003  0.001  0.001  0.005
   19  0.013  0.001  0.012  0.025
   20  0.001  0.001  0.035  0.037
   21  0.001  0.001  0.035  0.037
   22  0.011  0.001  0.012  0.024
   23  0.001  0.001  0.035  0.037
   24  0.011  0.001  0.012  0.024
   25  0.013  0.001  0.012  0.025
   26  0.013  0.001  0.012  0.025
   27  0.011  0.001  0.012  0.024
   28  0.008  0.000  0.015  0.023
   29  0.021  0.001  0.019  0.041
   30  0.021  0.001  0.019  0.041
   31  0.021  0.001  0.019  0.041
   32  0.021  0.001  0.019  0.041
   33  0.021  0.001  0.019  0.041
   34  0.021  0.001  0.019  0.041
   35  0.011  0.000  0.013  0.024
   36  0.041  0.000  0.036  0.077
   37  0.001  0.001  0.000  0.002
   38  0.000  0.000  0.000  0.000
tot    0.315  0.021  0.393  0.730
 
band     6 # energy   -5.75437809 # occ.  2.00000000
 
ion      s      p      d    tot
    1  0.000  0.000  0.007  0.008
    2  0.003  0.001  0.002  0.005
    3  0.000  0.000  0.003  0.003
    4  0.003  0.001  0.002  0.005
    5  0.000  0.001  0.005  0.006
    6  0.005  0.001  0.003  0.009
    7  0.000  0.000  0.003  0.003
    8  0.005  0.001  0.003  0.009
    9  0.000  0.000  0.001  0.001
   10  0.037  0.002  0.006  0.045
   11  0.010  0.003  0.019  0.033
   12  0.009  0.001  0.023  0.033
   13  0.011  0.003  0.019  0.033
   14  0.042  0.001  0.011  0.053
   15  0.000  0.002  0.006  0.008
   16  0.009  0.001  0.023  0.033
   17  0.000  0.002  0.006  0.008
   18  0.000  0.000  0.009  0.010
   19  0.003  0.003  0.005  0.012
   20  0.074  0.001  0.015  0.090
   21  0.019  0.002  0.034  0.054
   22  0.003  0.001  0.019  0.024
   23  0.018  0.002  0.034  0.053
   24  0.013  0.001  0.005  0.020
   25  0.012  0.000  0.013  0.025
   26  0.003  0.003  0.006  0.012
   27  0.003  0.001  0.020  0.024
   28  0.000  0.000  0.001  0.002
   29  0.007  0.001  0.006  0.014
   30  0.002  0.001  0.003  0.006
   31  0.007  0.001  0.006  0.014
   32  0.001  0.000  0.004  0.006
   33  0.002  0.001  0.003  0.006
   34  0.001  0.000  0.004  0.005
   35  0.000  0.000  0.004  0.004
   36  0.000  0.004  0.019  0.023
   37  0.000  0.002  0.000  0.002
   38  0.000  0.000  0.000  0.000
tot    0.303  0.045  0.352  0.699
 
band     7 # energy   -5.75436698 # occ.  2.00000000
 
ion      s      p      d    tot
    1  0.000  0.000  0.007  0.008
    2  0.003  0.001  0.003  0.006
    3  0.005  0.001  0.002  0.008
    4  0.003  0.001  0.003  0.006
    5  0.000  0.001  0.005  0.006
    6  0.000  0.000  0.002  0.003
    7  0.005  0.001  0.002  0.008
    8  0.000  0.000  0.002  0.003
    9  0.000  0.000  0.001  0.001
   10  0.000  0.000  0.029  0.029
   11  0.032  0.001  0.014  0.047
   12  0.027  0.002  0.012  0.041
   13  0.031  0.002  0.014  0.046
   14  0.000  0.004  0.022  0.026
   15  0.000  0.001  0.008  0.009
   16  0.028  0.002  0.012  0.041
   17  0.000  0.001  0.008  0.009
   18  0.000  0.003  0.005  0.008
   19  0.009  0.001  0.011  0.021
   20  0.000  0.002  0.040  0.042
   21  0.054  0.001  0.022  0.077
   22  0.010  0.001  0.010  0.021
   23  0.056  0.001  0.021  0.078
   24  0.000  0.001  0.025  0.025
   25  0.000  0.004  0.003  0.007
   26  0.009  0.001  0.010  0.021
   27  0.010  0.001  0.010  0.021
   28  0.000  0.000  0.001  0.002
   29  0.000  0.000  0.003  0.003
   30  0.005  0.001  0.005  0.011
   31  0.000  0.000  0.003  0.003
   32  0.005  0.001  0.005  0.011
   33  0.005  0.001  0.005  0.011
   34  0.005  0.001  0.005  0.011
   35  0.000  0.000  0.004  0.004
   36  0.000  0.004  0.019  0.023
   37  0.000  0.002  0.000  0.002
   38  0.000  0.000  0.000  0.000
tot    0.303  0.045  0.352  0.699
 
band     8 # energy   -5.74155505 # occ.  2.00000000
 
ion      s      p      d    tot
    1  0.001  0.001  0.006  0.008
    2  0.002  0.000  0.005  0.007
    3  0.002  0.000  0.005  0.007
    4  0.002  0.000  0.005  0.007
    5  0.000  0.000  0.001  0.001
    6  0.002  0.000  0.005  0.007
    7  0.002  0.000  0.005  0.007
    8  0.002  0.000  0.005  0.007
    9  0.020  0.001  0.000  0.021
   10  0.010  0.000  0.023  0.033
   11  0.009  0.003  0.010  0.021
   12  0.010  0.000  0.023  0.033
   13  0.009  0.003  0.010  0.021
   14  0.009  0.003  0.010  0.021
   15  0.017  0.002  0.009  0.028
   16  0.010  0.000  0.023  0.033
   17  0.017  0.002  0.009  0.028
   18  0.017  0.002  0.009  0.028
   19  0.000  0.001  0.021  0.022
   20  0.026  0.001  0.024  0.052
   21  0.026  0.001  0.024  0.052
   22  0.017  0.003  0.003  0.022
   23  0.026  0.001  0.024  0.052
   24  0.017  0.003  0.003  0.022
   25  0.000  0.001  0.021  0.022
   26  0.000  0.001  0.021  0.022
   27  0.017  0.003  0.003  0.022
   28  0.005  0.000  0.000  0.005
   29  0.002  0.000  0.006  0.009
   30  0.002  0.000  0.006  0.009
   31  0.002  0.000  0.006  0.009
   32  0.002  0.000  0.006  0.009
   33  0.002  0.000  0.006  0.009
   34  0.002  0.000  0.006  0.009
   35  0.014  0.001  0.000  0.015
   36  0.005  0.011  0.001  0.016
   37  0.001  0.005  0.000  0.005
   38  0.002  0.000  0.000  0.002
tot    0.309  0.051  0.345  0.704
 
band     9 # energy   -5.69235291 # occ.  2.00000000
 
ion      s      p      d    tot
    1  0.025  0.000  0.015  0.040
    2  0.016  0.000  0.017  0.033
    3  0.016  0.000  0.017  0.033
    4  0.016  0.000  0.017  0.033
    5  0.012  0.000  0.019  0.031
    6  0.016  0.000  0.017  0.033
    7  0.016  0.000  0.017  0.033
    8  0.016  0.000  0.017  0.033
    9  0.012  0.000  0.017  0.029
   10  0.002  0.000  0.031  0.033
   11  0.011  0.000  0.024  0.035
   12  0.002  0.000  0.031  0.033
   13  0.011  0.000  0.024  0.035
   14  0.011  0.000  0.024  0.035
   15  0.013  0.001  0.022  0.035
   16  0.002  0.000  0.031  0.033
   17  0.013  0.001  0.022  0.035
   18  0.013  0.001  0.022  0.035
   19  0.004  0.000  0.007  0.011
   20  0.003  0.000  0.017  0.020
   21  0.003  0.000  0.017  0.020
   22  0.000  0.000  0.009  0.010
   23  0.003  0.000  0.017  0.020
   24  0.000  0.000  0.009  0.010
   25  0.004  0.000  0.007  0.011
   26  0.004  0.000  0.007  0.011
   27  0.000  0.000  0.009  0.010
   28  0.000  0.000  0.000  0.001
   29  0.000  0.000  0.001  0.001
   30  0.000  0.000  0.001  0.001
   31  0.000  0.000  0.001  0.001
   32  0.000  0.000  0.001  0.001
   33  0.000  0.000  0.001  0.001
   34  0.000  0.000  0.001  0.001
   35  0.002  0.000  0.000  0.002
   36  0.000  0.001  0.001  0.003
   37  0.000  0.001  0.000  0.001
   38  0.000  0.000  0.000  0.000
tot    0.246  0.010  0.488  0.743
 
band    10 # energy   -5.64037695 # occ.  2.00000000
 
ion      s      p      d    tot
    1  0.006  0.001  0.002  0.009
    2  0.000  0.001  0.006  0.007
    3  0.000  0.001  0.006  0.007
    4  0.000  0.001  0.006  0.007
    5  0.019  0.002  0.000  0.021
    6  0.000  0.001  0.006  0.007
    7  0.000  0.001  0.006  0.007
    8  0.000  0.001  0.006  0.007
    9  0.000  0.000  0.003  0.003
   10  0.026  0.003  0.001  0.029
   11  0.019  0.001  0.023  0.043
   12  0.025  0.003  0.001  0.029
   13  0.019  0.001  0.023  0.043
   14  0.019  0.001  0.023  0.043
   15  0.001  0.001  0.023  0.025
   16  0.025  0.003  0.001  0.029
   17  0.001  0.001  0.023  0.025
   18  0.001  0.001  0.023  0.025
   19  0.020  0.002  0.007  0.029
   20  0.007  0.003  0.018  0.028
   21  0.007  0.003  0.018  0.027
   22  0.009  0.000  0.026  0.035
   23  0.007  0.003  0.018  0.027
   24  0.009  0.000  0.026  0.035
   25  0.020  0.002  0.007  0.028
   26  0.020  0.002  0.007  0.029
   27  0.009  0.000  0.026  0.035
   28  0.016  0.001  0.000  0.017
   29  0.001  0.000  0.004  0.005
   30  0.001  0.000  0.004  0.005
   31  0.001  0.000  0.004  0.005
   32  0.001  0.000  0.004  0.005
   33  0.001  0.000  0.004  0.005
   34  0.001  0.000  0.004  0.005
   35  0.001  0.001  0.005  0.007
   36  0.000  0.000  0.000  0.000
   37  0.000  0.000  0.000  0.000
   38  0.000  0.000  0.000  0.000
tot    0.291  0.038  0.369  0.697
 
band    11 # energy   -5.62891468 # occ.  2.00000000
 
ion      s      p      d    tot
    1  0.000  0.001  0.003  0.004
    2  0.004  0.001  0.004  0.008
    3  0.008  0.001  0.004  0.013
    4  0.004  0.001  0.004  0.009
    5  0.000  0.000  0.005  0.005
    6  0.001  0.000  0.003  0.005
    7  0.008  0.001  0.004  0.013
    8  0.001  0.000  0.003  0.004
    9  0.000  0.001  0.011  0.012
   10  0.020  0.000  0.016  0.037
   11  0.003  0.001  0.023  0.027
   12  0.005  0.004  0.006  0.014
   13  0.003  0.001  0.023  0.027
   14  0.012  0.001  0.006  0.020
   15  0.017  0.001  0.031  0.049
   16  0.005  0.003  0.006  0.015
   17  0.015  0.001  0.032  0.048
   18  0.064  0.001  0.007  0.072
   19  0.009  0.001  0.026  0.036
   20  0.000  0.001  0.017  0.017
   21  0.000  0.002  0.012  0.014
   22  0.009  0.003  0.017  0.029
   23  0.000  0.002  0.012  0.014
   24  0.038  0.001  0.011  0.050
   25  0.036  0.002  0.003  0.041
   26  0.008  0.001  0.027  0.036
   27  0.010  0.003  0.017  0.030
   28  0.000  0.000  0.006  0.006
   29  0.001  0.000  0.002  0.003
   30  0.002  0.000  0.002  0.004
   31  0.001  0.000  0.002  0.002
   32  0.005  0.001  0.003  0.008
   33  0.002  0.000  0.002  0.004
   34  0.005  0.001  0.003  0.008
   35  0.000  0.001  0.004  0.005
   36  0.000  0.000  0.002  0.002
   37  0.000  0.001  0.000  0.001
   38  0.000  0.000  0.000  0.000
tot    0.295  0.042  0.357  0.694
 
band    12 # energy   -5.62889531 # occ.  2.00000000
 
ion      s      p      d    tot
    1  0.000  0.001  0.003  0.004
    2  0.005  0.001  0.003  0.009
    3  0.000  0.000  0.004  0.004
    4  0.005  0.001  0.003  0.009
    5  0.000  0.000  0.005  0.005
    6  0.008  0.001  0.004  0.013
    7  0.000  0.000  0.004  0.004
    8  0.008  0.001  0.004  0.013
    9  0.000  0.001  0.011  0.012
   10  0.000  0.005  0.002  0.007
   11  0.009  0.001  0.012  0.023
   12  0.016  0.001  0.013  0.030
   13  0.009  0.001  0.012  0.022
   14  0.000  0.001  0.029  0.030
   15  0.047  0.001  0.015  0.064
   16  0.015  0.001  0.013  0.029
   17  0.049  0.001  0.014  0.064
   18  0.000  0.001  0.040  0.041
   19  0.026  0.002  0.011  0.039
   20  0.000  0.002  0.011  0.013
   21  0.000  0.001  0.015  0.016
   22  0.029  0.001  0.013  0.043
   23  0.000  0.001  0.015  0.016
   24  0.000  0.004  0.019  0.022
   25  0.000  0.000  0.035  0.035
   26  0.027  0.002  0.010  0.039
   27  0.028  0.002  0.013  0.042
   28  0.000  0.000  0.006  0.006
   29  0.004  0.001  0.002  0.007
   30  0.003  0.000  0.002  0.005
   31  0.004  0.001  0.002  0.007
   32  0.000  0.000  0.001  0.002
   33  0.003  0.000  0.002  0.006
   34  0.000  0.000  0.001  0.002
   35  0.000  0.001  0.004  0.005
   36  0.000  0.000  0.002  0.002
   37  0.000  0.001  0.000  0.001
   38  0.000  0.000  0.000  0.000
tot    0.295  0.042  0.357  0.694
 
band    13 # energy   -5.26278016 # occ.  2.00000000
 
ion      s      p      d    tot
    1  0.000  0.001  0.004  0.005
    2  0.001  0.001  0.005  0.007
    3  0.009  0.001  0.004  0.015
    4  0.001  0.001  0.005  0.007
    5  0.000  0.001  0.009  0.011
    6  0.004  0.001  0.003  0.008
    7  0.009  0.001  0.004  0.015
    8  0.004  0.001  0.003  0.008
    9  0.000  0.000  0.008  0.008
   10  0.000  0.001  0.050  0.051
   11  0.019  0.001  0.019  0.039
   12  0.008  0.001  0.018  0.027
   13  0.019  0.001  0.019  0.039
   14  0.000  0.000  0.044  0.045
   15  0.001  0.000  0.018  0.020
   16  0.008  0.001  0.018  0.027
   17  0.001  0.000  0.018  0.020
   18  0.000  0.001  0.012  0.013
   19  0.002  0.000  0.016  0.018
   20  0.000  0.000  0.094  0.094
   21  0.012  0.001  0.028  0.042
   22  0.004  0.001  0.018  0.023
   23  0.012  0.001  0.028  0.042
   24  0.000  0.000  0.028  0.029
   25  0.000  0.001  0.009  0.009
   26  0.002  0.000  0.016  0.018
   27  0.004  0.001  0.018  0.023
   28  0.000  0.000  0.007  0.007
   29  0.005  0.001  0.006  0.012
   30  0.008  0.001  0.007  0.016
   31  0.005  0.001  0.006  0.012
   32  0.000  0.000  0.004  0.004
   33  0.008  0.001  0.007  0.016
   34  0.000  0.000  0.004  0.004
   35  0.000  0.000  0.002  0.002
   36  0.000  0.003  0.018  0.021
   37  0.000  0.002  0.000  0.002
   38  0.000  0.000  0.000  0.000
tot    0.148  0.032  0.576  0.756
 
band    14 # energy   -5.26273746 # occ.  2.00000000
 
ion      s      p      d    tot
    1  0.000  0.001  0.004  0.005
    2  0.008  0.001  0.003  0.013
    3  0.000  0.000  0.004  0.005
    4  0.008  0.001  0.003  0.013
    5  0.000  0.001  0.009  0.011
    6  0.006  0.001  0.005  0.012
    7  0.000  0.000  0.004  0.005
    8  0.006  0.001  0.005  0.012
    9  0.000  0.000  0.008  0.008
   10  0.011  0.002  0.007  0.020
   11  0.006  0.000  0.036  0.043
   12  0.003  0.001  0.039  0.043
   13  0.006  0.000  0.036  0.043
   14  0.026  0.001  0.010  0.037
   15  0.001  0.001  0.014  0.015
   16  0.003  0.001  0.039  0.043
   17  0.000  0.001  0.014  0.015
   18  0.002  0.000  0.021  0.023
   19  0.001  0.000  0.011  0.012
   20  0.017  0.001  0.007  0.025
   21  0.004  0.000  0.072  0.076
   22  0.001  0.001  0.025  0.027
   23  0.004  0.000  0.072  0.076
   24  0.005  0.002  0.015  0.021
   25  0.003  0.000  0.018  0.021
   26  0.001  0.000  0.011  0.012
   27  0.001  0.001  0.025  0.027
   28  0.000  0.000  0.007  0.007
   29  0.004  0.001  0.005  0.010
   30  0.001  0.000  0.004  0.005
   31  0.004  0.001  0.005  0.009
   32  0.008  0.001  0.007  0.017
   33  0.001  0.000  0.004  0.005
   34  0.008  0.001  0.007  0.017
   35  0.000  0.000  0.002  0.002
   36  0.000  0.003  0.018  0.021
   37  0.000  0.002  0.000  0.002
   38  0.000  0.000  0.000  0.000
tot    0.148  0.032  0.576  0.756
 
band    15 # energy   -5.24584546 # occ.  2.00000000
 
ion      s      p      d    tot
    1  0.013  0.001  0.001  0.015
    2  0.000  0.001  0.005  0.006
    3  0.000  0.001  0.005  0.006
    4  0.000  0.001  0.005  0.006
    5  0.005  0.001  0.002  0.007
    6  0.000  0.001  0.005  0.006
    7  0.000  0.001  0.005  0.006
    8  0.000  0.001  0.005  0.006
    9  0.002  0.000  0.000  0.002
   10  0.004  0.001  0.011  0.017
   11  0.009  0.001  0.020  0.030
   12  0.004  0.001  0.011  0.017
   13  0.009  0.001  0.020  0.030
   14  0.009  0.001  0.020  0.030
   15  0.001  0.000  0.032  0.033
   16  0.004  0.001  0.011  0.017
   17  0.001  0.000  0.032  0.033
   18  0.001  0.000  0.032  0.033
   19  0.009  0.002  0.003  0.014
   20  0.001  0.001  0.049  0.050
   21  0.001  0.001  0.049  0.051
   22  0.008  0.001  0.036  0.044
   23  0.001  0.001  0.049  0.051
   24  0.008  0.000  0.036  0.044
   25  0.009  0.002  0.003  0.014
   26  0.009  0.002  0.003  0.014
   27  0.008  0.001  0.036  0.044
   28  0.022  0.002  0.000  0.024
   29  0.000  0.001  0.013  0.014
   30  0.000  0.001  0.013  0.014
   31  0.000  0.001  0.013  0.014
   32  0.000  0.001  0.013  0.014
   33  0.000  0.001  0.013  0.014
   34  0.000  0.001  0.013  0.014
   35  0.000  0.000  0.004  0.005
   36  0.012  0.003  0.002  0.017
   37  0.000  0.001  0.000  0.001
   38  0.000  0.000  0.000  0.000
tot    0.152  0.032  0.573  0.756
 
band    16 # energy   -5.19825838 # occ.  2.00000000
 
ion      s      p      d    tot
    1  0.001  0.000  0.002  0.004
    2  0.000  0.001  0.009  0.010
    3  0.000  0.001  0.009  0.010
    4  0.000  0.001  0.009  0.010
    5  0.013  0.001  0.000  0.014
    6  0.000  0.001  0.009  0.010
    7  0.000  0.001  0.009  0.010
    8  0.000  0.001  0.009  0.010
    9  0.019  0.002  0.002  0.023
   10  0.006  0.000  0.040  0.047
   11  0.002  0.001  0.031  0.033
   12  0.006  0.000  0.041  0.047
   13  0.002  0.001  0.031  0.033
   14  0.002  0.001  0.031  0.033
   15  0.015  0.002  0.007  0.025
   16  0.006  0.000  0.041  0.047
   17  0.015  0.002  0.007  0.025
   18  0.015  0.002  0.007  0.025
   19  0.002  0.000  0.030  0.032
   20  0.007  0.002  0.026  0.036
   21  0.007  0.002  0.026  0.036
   22  0.004  0.001  0.016  0.021
   23  0.007  0.002  0.026  0.036
   24  0.004  0.001  0.016  0.021
   25  0.002  0.000  0.030  0.032
   26  0.002  0.000  0.030  0.032
   27  0.004  0.001  0.016  0.021
   28  0.000  0.000  0.001  0.001
   29  0.000  0.000  0.006  0.006
   30  0.000  0.000  0.006  0.006
   31  0.000  0.000  0.006  0.006
   32  0.000  0.000  0.006  0.006
   33  0.000  0.000  0.006  0.006
   34  0.000  0.000  0.006  0.006
   35  0.011  0.001  0.001  0.013
   36  0.010  0.007  0.000  0.017
   37  0.001  0.003  0.000  0.004
   38  0.001  0.000  0.000  0.001
tot    0.166  0.043  0.547  0.755
 
band    17 # energy   -5.15045885 # occ.  2.00000000
 
ion      s      p      d    tot
    1  0.000  0.001  0.013  0.014
    2  0.009  0.001  0.004  0.014
    3  0.001  0.000  0.005  0.006
    4  0.008  0.001  0.004  0.014
    5  0.000  0.000  0.006  0.006
    6  0.005  0.001  0.005  0.010
    7  0.001  0.000  0.005  0.006
    8  0.005  0.001  0.005  0.010
    9  0.000  0.001  0.005  0.006
   10  0.000  0.000  0.034  0.034
   11  0.000  0.001  0.020  0.021
   12  0.009  0.000  0.021  0.030
   13  0.000  0.001  0.020  0.021
   14  0.000  0.001  0.015  0.016
   15  0.009  0.002  0.019  0.030
   16  0.009  0.000  0.021  0.030
   17  0.009  0.002  0.019  0.030
   18  0.000  0.000  0.059  0.059
   19  0.015  0.001  0.019  0.035
   20  0.000  0.002  0.023  0.025
   21  0.000  0.001  0.026  0.027
   22  0.016  0.001  0.020  0.037
   23  0.000  0.001  0.026  0.027
   24  0.000  0.001  0.028  0.028
   25  0.000  0.000  0.066  0.066
   26  0.015  0.001  0.019  0.035
   27  0.016  0.001  0.020  0.037
   28  0.000  0.001  0.005  0.006
   29  0.005  0.001  0.004  0.010
   30  0.000  0.001  0.007  0.007
   31  0.005  0.001  0.004  0.010
   32  0.006  0.001  0.004  0.010
   33  0.000  0.001  0.007  0.007
   34  0.006  0.001  0.003  0.010
   35  0.000  0.001  0.009  0.010
   36  0.000  0.000  0.005  0.005
   37  0.000  0.000  0.000  0.000
   38  0.000  0.000  0.000  0.000
tot    0.149  0.029  0.572  0.750
 
band    18 # energy   -5.15043579 # occ.  2.00000000
 
ion      s      p      d    tot
    1  0.000  0.001  0.013  0.014
    2  0.001  0.001  0.005  0.006
    3  0.008  0.001  0.004  0.014
    4  0.001  0.001  0.005  0.006
    5  0.000  0.000  0.006  0.006
    6  0.005  0.001  0.004  0.009
    7  0.008  0.001  0.004  0.014
    8  0.005  0.001  0.004  0.009
    9  0.000  0.001  0.005  0.006
   10  0.012  0.000  0.016  0.029
   11  0.000  0.001  0.017  0.018
   12  0.003  0.000  0.029  0.033
   13  0.000  0.001  0.017  0.018
   14  0.000  0.001  0.021  0.022
   15  0.003  0.001  0.046  0.049
   16  0.003  0.000  0.029  0.033
   17  0.003  0.001  0.046  0.050
   18  0.012  0.002  0.006  0.021
   19  0.005  0.001  0.050  0.056
   20  0.000  0.000  0.027  0.028
   21  0.000  0.002  0.024  0.026
   22  0.005  0.001  0.025  0.031
   23  0.000  0.002  0.024  0.026
   24  0.022  0.001  0.017  0.040
   25  0.020  0.001  0.004  0.025
   26  0.005  0.001  0.051  0.056
   27  0.005  0.001  0.025  0.031
   28  0.000  0.001  0.005  0.006
   29  0.002  0.001  0.005  0.008
   30  0.007  0.001  0.003  0.011
   31  0.002  0.001  0.005  0.008
   32  0.002  0.001  0.006  0.008
   33  0.007  0.001  0.003  0.011
   34  0.002  0.001  0.006  0.008
   35  0.000  0.001  0.009  0.010
   36  0.000  0.000  0.005  0.005
   37  0.000  0.000  0.000  0.000
   38  0.000  0.000  0.000  0.000
tot    0.149  0.029  0.572  0.750
 
band    19 # energy   -4.89824453 # occ.  2.00000000
 
ion      s      p      d    tot
    1  0.000  0.000  0.019  0.019
    2  0.004  0.001  0.006  0.011
    3  0.001  0.000  0.009  0.010
    4  0.004  0.001  0.006  0.011
    5  0.000  0.001  0.012  0.013
    6  0.010  0.001  0.007  0.017
    7  0.001  0.000  0.009  0.010
    8  0.010  0.001  0.007  0.017
    9  0.000  0.001  0.006  0.006
   10  0.000  0.001  0.024  0.024
   11  0.000  0.000  0.040  0.041
   12  0.000  0.000  0.010  0.010
   13  0.000  0.000  0.040  0.041
   14  0.002  0.001  0.038  0.040
   15  0.000  0.000  0.008  0.008
   16  0.000  0.000  0.010  0.010
   17  0.000  0.000  0.008  0.008
   18  0.001  0.000  0.010  0.010
   19  0.000  0.000  0.007  0.007
   20  0.002  0.001  0.107  0.109
   21  0.000  0.001  0.062  0.063
   22  0.000  0.000  0.018  0.018
   23  0.000  0.001  0.062  0.063
   24  0.002  0.000  0.012  0.014
   25  0.000  0.000  0.014  0.015
   26  0.000  0.000  0.007  0.007
   27  0.000  0.000  0.018  0.018
   28  0.000  0.001  0.002  0.002
   29  0.012  0.002  0.027  0.041
   30  0.004  0.000  0.015  0.020
   31  0.012  0.002  0.027  0.041
   32  0.002  0.001  0.011  0.014
   33  0.004  0.000  0.015  0.020
   34  0.002  0.001  0.011  0.014
   35  0.000  0.000  0.020  0.020
   36  0.000  0.004  0.028  0.033
   37  0.000  0.000  0.000  0.000
   38  0.000  0.000  0.000  0.000
tot    0.074  0.021  0.731  0.827
 
band    20 # energy   -4.89821070 # occ.  2.00000000
 
ion      s      p      d    tot
    1  0.000  0.000  0.019  0.019
    2  0.006  0.000  0.008  0.015
    3  0.009  0.001  0.006  0.016
    4  0.006  0.000  0.008  0.015
    5  0.000  0.001  0.012  0.013
    6  0.000  0.000  0.008  0.009
    7  0.009  0.001  0.006  0.016
    8  0.000  0.000  0.008  0.009
    9  0.000  0.001  0.006  0.006
   10  0.000  0.000  0.006  0.006
   11  0.001  0.001  0.039  0.041
   12  0.000  0.000  0.019  0.020
   13  0.001  0.001  0.039  0.041
   14  0.000  0.000  0.041  0.041
   15  0.000  0.000  0.009  0.010
   16  0.000  0.000  0.019  0.020
   17  0.000  0.000  0.009  0.010
   18  0.000  0.000  0.007  0.007
   19  0.000  0.000  0.012  0.012
   20  0.000  0.001  0.047  0.048
   21  0.001  0.001  0.092  0.093
   22  0.001  0.000  0.014  0.015
   23  0.001  0.001  0.092  0.093
   24  0.000  0.000  0.020  0.020
   25  0.000  0.000  0.005  0.005
   26  0.000  0.000  0.012  0.012
   27  0.001  0.000  0.014  0.015
   28  0.000  0.001  0.002  0.002
   29  0.000  0.000  0.008  0.009
   30  0.008  0.001  0.020  0.029
   31  0.000  0.000  0.008  0.009
   32  0.010  0.001  0.025  0.036
   33  0.008  0.001  0.020  0.029
   34  0.010  0.001  0.025  0.036
   35  0.000  0.000  0.020  0.020
   36  0.000  0.004  0.028  0.033
   37  0.000  0.000  0.000  0.000
   38  0.000  0.000  0.000  0.000
tot    0.074  0.021  0.731  0.827
 
band    21 # energy   -4.89409720 # occ.  2.00000000
 
ion      s      p      d    tot
    1  0.013  0.000  0.005  0.018
    2  0.000  0.001  0.017  0.018
    3  0.000  0.001  0.017  0.018
    4  0.000  0.001  0.017  0.018
    5  0.001  0.000  0.001  0.002
    6  0.000  0.001  0.017  0.018
    7  0.000  0.001  0.017  0.018
    8  0.000  0.001  0.017  0.018
    9  0.022  0.001  0.002  0.025
   10  0.001  0.001  0.015  0.016
   11  0.000  0.000  0.013  0.013
   12  0.001  0.001  0.015  0.017
   13  0.000  0.000  0.013  0.013
   14  0.000  0.000  0.013  0.014
   15  0.000  0.000  0.032  0.032
   16  0.001  0.001  0.015  0.017