 vasp.6.2.0 18Jan21 (build Jun 12 2021 23:27:24) complex                        
  
 executed on             LinuxIFC date 2022.05.26  19:54:27
 running on   28 total cores
 distrk:  each k-point on   28 cores,    1 groups
 distr:  one band on NCORE=   1 cores,   28 groups


--------------------------------------------------------------------------------------------------------


 INCAR:
   ISMEAR = -5
   SIGMA = 0.1
   ISPIN = 1
   EDIFF = 1.d-5
   EDIFFG = -0.01
   NSW = 0
   NELM = 150
   ENCUT = 500
   ISIF = 2
   IBRION = 2
   LREAL = Auto
   ALGO = Fast
   ICHARG = 11
   LORBIT = 10
   LCHARG = .F.
   LWAVE = .F.

 POTCAR:    PAW_PBE Ag 02Apr2005                  
 POTCAR:    PAW_PBE Os 17Jan2003                  
 POTCAR:    PAW_PBE O 08Apr2002                   
 -----------------------------------------------------------------------------
|                                                                             |
|           W    W    AA    RRRRR   N    N  II  N    N   GGGG   !!!           |
|           W    W   A  A   R    R  NN   N  II  NN   N  G    G  !!!           |
|           W    W  A    A  R    R  N N  N  II  N N  N  G       !!!           |
|           W WW W  AAAAAA  RRRRR   N  N N  II  N  N N  G  GGG   !            |
|           WW  WW  A    A  R   R   N   NN  II  N   NN  G    G                |
|           W    W  A    A  R    R  N    N  II  N    N   GGGG   !!!           |
|                                                                             |
|     For optimal performance we recommend to set                             |
|       NCORE = 2 up to number-of-cores-per-socket                            |
|     NCORE specifies how many cores store one orbital (NPAR=cpu/NCORE).      |
|     This setting can greatly improve the performance of VASP for DFT.       |
|     The default, NCORE=1 might be grossly inefficient on modern             |
|     multi-core architectures or massively parallel machines. Do your        |
|     own testing! More info at https://www.vasp.at/wiki/index.php/NCORE      |
|     Unfortunately you need to use the default for GW and RPA                |
|     calculations (for HF NCORE is supported but not extensively tested      |
|     yet).                                                                   |
|                                                                             |
 -----------------------------------------------------------------------------

 POTCAR:    PAW_PBE Ag 02Apr2005                  
   VRHFIN =Ag : s1 d10                                                                              
   LEXCH  = PE                                                                                      
   EATOM  =  1037.2675 eV,   76.2370 Ry                                                             
                                                                                                    
   TITEL  = PAW_PBE Ag 02Apr2005                                                                    
   LULTRA =        F    use ultrasoft PP ?                                                          
   IUNSCR =        1    unscreen: 0-lin 1-nonlin 2-no                                               
   RPACOR =    2.000    partial core radius                                                         
   POMASS =  107.868; ZVAL   =   11.000    mass and valenz                                          
   RCORE  =    2.500    outmost cutoff radius                                                       
   RWIGS  =    2.840; RWIGS  =    1.503    wigner-seitz radius (au A)                               
   ENMAX  =  249.844; ENMIN  =  187.383 eV                                                          
   ICORE  =        3    local potential                                                             
   LCOR   =        T    correct aug charges                                                         
   LPAW   =        T    paw PP                                                                      
   EAUG   =  412.496                                                                                
   DEXC   =    0.000                                                                                
   RMAX   =    2.560    core radius for proj-oper                                                   
   RAUG   =    1.300    factor for augmentation sphere                                              
   RDEP   =    2.576    radius for radial grids                                                     
   RDEPT  =    2.072    core radius for aug-charge                                                  
                                                                                                    
   Atomic configuration                                                                             
   12 entries                                                                                       
     n  l   j            E        occ.                                                              
     1  0  0.50    -25324.9161   2.0000                                                             
     2  0  0.50     -3728.5341   2.0000                                                             
     2  1  1.50     -3344.0404   6.0000                                                             
     3  0  0.50      -683.5581   2.0000                                                             
     3  1  1.50      -557.3225   6.0000                                                             
     3  2  2.50      -358.3853  10.0000                                                             
     4  0  0.50       -95.0341   2.0000                                                             
     4  1  1.50       -58.5511   6.0000                                                             
     4  2  2.50        -7.4440  10.0000                                                             
     5  0  0.50        -4.4045   1.0000                                                             
     5  1  0.50        -1.3606   0.0000                                                             
     4  3  2.50        -1.3606   0.0000                                                             
   Description                                                                                      
     l       E           TYP  RCUT    TYP  RCUT                                                     
     2     -7.4439781     23  2.400                                                                 
     2     -8.8045607     23  2.400                                                                 
     0     -4.4044681     23  2.400                                                                 
     0      1.9520038     23  2.400                                                                 
     1     -1.3605826     23  2.500                                                                 
     1     27.2116520     23  2.500                                                                 
     3     -4.0817478     23  2.400                                                                 
  local pseudopotential read in
  partial core-charges read in
  partial kinetic energy density read in
  atomic valenz-charges read in
  non local Contribution for L=           2  read in
    real space projection operators read in
  non local Contribution for L=           2  read in
    real space projection operators read in
  non local Contribution for L=           0  read in
    real space projection operators read in
  non local Contribution for L=           0  read in
    real space projection operators read in
  non local Contribution for L=           1  read in
    real space projection operators read in
  non local Contribution for L=           1  read in
    real space projection operators read in
    PAW grid and wavefunctions read in
 
   number of l-projection  operators is LMAX  =           6
   number of lm-projection operators is LMMAX =          18
 
 POTCAR:    PAW_PBE Os 17Jan2003                  
   VRHFIN =Os: 6s5d                                                                                 
   LEXCH  = PE                                                                                      
   EATOM  =   417.5999 eV,   30.6927 Ry                                                             
                                                                                                    
   TITEL  = PAW_PBE Os 17Jan2003                                                                    
   LULTRA =        F    use ultrasoft PP ?                                                          
   IUNSCR =        1    unscreen: 0-lin 1-nonlin 2-no                                               
   RPACOR =    2.250    partial core radius                                                         
   POMASS =  190.200; ZVAL   =    8.000    mass and valenz                                          
   RCORE  =    2.700    outmost cutoff radius                                                       
   RWIGS  =    2.670; RWIGS  =    1.413    wigner-seitz radius (au A)                               
   ENMAX  =  228.022; ENMIN  =  171.017 eV                                                          
   RCLOC  =    2.004    cutoff for local pot                                                        
   LCOR   =        T    correct aug charges                                                         
   LPAW   =        T    paw PP                                                                      
   EAUG   =  365.080                                                                                
   DEXC   =    0.000                                                                                
   RMAX   =    2.766    core radius for proj-oper                                                   
   RAUG   =    1.300    factor for augmentation sphere                                              
   RDEP   =    2.738    radius for radial grids                                                     
   RDEPT  =    2.220    core radius for aug-charge                                                  
                                                                                                    
   Atomic configuration                                                                             
   16 entries                                                                                       
     n  l   j            E        occ.                                                              
     1  0  0.50    -73844.2437   2.0000                                                             
     2  0  0.50    -12856.6893   2.0000                                                             
     2  1  1.50    -11191.7995   6.0000                                                             
     3  0  0.50     -2990.1422   2.0000                                                             
     3  1  1.50     -2501.5221   6.0000                                                             
     3  2  2.50     -1956.5818  10.0000                                                             
     4  0  0.50      -629.1606   2.0000                                                             
     4  1  1.50      -468.9548   6.0000                                                             
     4  2  2.50      -270.2868  10.0000                                                             
     4  3  3.50       -49.5699  14.0000                                                             
     5  0  0.50       -89.1521   2.0000                                                             
     5  1  1.50       -48.6063   6.0000                                                             
     5  2  2.50        -4.7055   7.0000                                                             
     6  0  0.50        -5.4288   1.0000                                                             
     6  1  1.50        -2.7212   0.0000                                                             
     5  3  2.50        -6.8029   0.0000                                                             
   Description                                                                                      
     l       E           TYP  RCUT    TYP  RCUT                                                     
     2     -4.7055230     23  2.500                                                                 
     2     -6.0661056     23  2.500                                                                 
     0     -5.4288441     23  2.500                                                                 
     0      3.7338294     23  2.500                                                                 
     1     -2.7211652     23  2.700                                                                 
     1     27.2116520     23  2.700                                                                 
  local pseudopotential read in
  partial core-charges read in
  partial kinetic energy density read in
  atomic valenz-charges read in
  non local Contribution for L=           2  read in
    real space projection operators read in
  non local Contribution for L=           2  read in
    real space projection operators read in
  non local Contribution for L=           0  read in
    real space projection operators read in
  non local Contribution for L=           0  read in
    real space projection operators read in
  non local Contribution for L=           1  read in
    real space projection operators read in
  non local Contribution for L=           1  read in
    real space projection operators read in
    PAW grid and wavefunctions read in
 
   number of l-projection  operators is LMAX  =           6
   number of lm-projection operators is LMMAX =          18
 
 POTCAR:    PAW_PBE O 08Apr2002                   
   VRHFIN =O: s2p4                                                                                  
   LEXCH  = PE                                                                                      
   EATOM  =   432.3788 eV,   31.7789 Ry                                                             
                                                                                                    
   TITEL  = PAW_PBE O 08Apr2002                                                                     
   LULTRA =        F    use ultrasoft PP ?                                                          
   IUNSCR =        1    unscreen: 0-lin 1-nonlin 2-no                                               
   RPACOR =    1.200    partial core radius                                                         
   POMASS =   16.000; ZVAL   =    6.000    mass and valenz                                          
   RCORE  =    1.520    outmost cutoff radius                                                       
   RWIGS  =    1.550; RWIGS  =    0.820    wigner-seitz radius (au A)                               
   ENMAX  =  400.000; ENMIN  =  300.000 eV                                                          
   ICORE  =        2    local potential                                                             
   LCOR   =        T    correct aug charges                                                         
   LPAW   =        T    paw PP                                                                      
   EAUG   =  605.392                                                                                
   DEXC   =    0.000                                                                                
   RMAX   =    1.553    core radius for proj-oper                                                   
   RAUG   =    1.300    factor for augmentation sphere                                              
   RDEP   =    1.550    radius for radial grids                                                     
   RDEPT  =    1.329    core radius for aug-charge                                                  
                                                                                                    
   Atomic configuration                                                                             
    4 entries                                                                                       
     n  l   j            E        occ.                                                              
     1  0  0.50      -514.6923   2.0000                                                             
     2  0  0.50       -23.9615   2.0000                                                             
     2  1  0.50        -9.0305   4.0000                                                             
     3  2  1.50        -9.5241   0.0000                                                             
   Description                                                                                      
     l       E           TYP  RCUT    TYP  RCUT                                                     
     0    -23.9615318     23  1.200                                                                 
     0     -9.5240782     23  1.200                                                                 
     1     -9.0304911     23  1.520                                                                 
     1      8.1634956     23  1.520                                                                 
     2     -9.5240782      7  1.500                                                                 
  local pseudopotential read in
  partial core-charges read in
  partial kinetic energy density read in
  kinetic energy density of atom read in
  atomic valenz-charges read in
  non local Contribution for L=           0  read in
    real space projection operators read in
  non local Contribution for L=           0  read in
    real space projection operators read in
  non local Contribution for L=           1  read in
    real space projection operators read in
  non local Contribution for L=           1  read in
    real space projection operators read in
    PAW grid and wavefunctions read in
 
   number of l-projection  operators is LMAX  =           4
   number of lm-projection operators is LMMAX =           8
 
 Optimization of the real space projectors (new method)

 maximal supplied QI-value         = 15.12
 optimisation between [QCUT,QGAM] = [ 11.34, 22.83] = [ 36.00,145.93] Ry 
 Optimized for a Real-space Cutoff    1.43 Angstroem

   l    n(q)    QCUT    max X(q) W(low)/X(q) W(high)/X(q)  e(spline) 
   2      9    11.338    53.897    0.16E-03    0.20E-03    0.28E-06
   2      9    11.338    52.416    0.16E-03    0.20E-03    0.29E-06
   0     10    11.338   122.045    0.31E-04    0.76E-04    0.15E-06
   0     10    11.338    73.629    0.30E-04    0.72E-04    0.15E-06
   1      9    11.338    15.255    0.20E-03    0.19E-04    0.17E-06
   1      9    11.338     9.562    0.16E-03    0.15E-04    0.14E-06
 Optimization of the real space projectors (new method)

 maximal supplied QI-value         = 13.98
 optimisation between [QCUT,QGAM] = [ 11.33, 22.79] = [ 35.93,145.49] Ry 
 Optimized for a Real-space Cutoff    1.56 Angstroem

   l    n(q)    QCUT    max X(q) W(low)/X(q) W(high)/X(q)  e(spline) 
   2     10    11.327   152.873    0.32E-03    0.72E-03    0.11E-05
   2     10    11.327   151.010    0.32E-03    0.72E-03    0.11E-05
   0     11    11.327    72.114    0.43E-04    0.61E-04    0.13E-06
   0     11    11.327    44.596    0.40E-04    0.57E-04    0.12E-06
   1     10    11.327    13.742    0.16E-03    0.10E-03    0.19E-06
   1     10    11.327     8.461    0.12E-03    0.78E-04    0.15E-06
 Optimization of the real space projectors (new method)

 maximal supplied QI-value         = 24.76
 optimisation between [QCUT,QGAM] = [ 11.39, 22.77] = [ 36.31,145.25] Ry 
 Optimized for a Real-space Cutoff    1.00 Angstroem

   l    n(q)    QCUT    max X(q) W(low)/X(q) W(high)/X(q)  e(spline) 
   0      7    11.387    20.381    0.39E-03    0.13E-02    0.15E-06
   0      7    11.387    15.268    0.42E-03    0.14E-02    0.17E-06
   1      6    11.387     5.964    0.41E-03    0.11E-02    0.17E-06
   1      6    11.387     5.382    0.39E-03    0.87E-03    0.15E-06
  PAW_PBE Ag 02Apr2005                  :
 energy of atom  1       EATOM=-1037.2675
 kinetic energy error for atom=    0.0052 (will be added to EATOM!!)
  PAW_PBE Os 17Jan2003                  :
 energy of atom  2       EATOM= -417.5999
 kinetic energy error for atom=    0.0029 (will be added to EATOM!!)
  PAW_PBE O 08Apr2002                   :
 energy of atom  3       EATOM= -432.3788
 kinetic energy error for atom=    0.0224 (will be added to EATOM!!)
 
 
 POSCAR: Ag-Os-O
  positions in direct lattice
  velocities in cartesian coordinates
 exchange correlation table for  LEXCH =        8
   RHO(1)=    0.500       N(1)  =     2000
   RHO(2)=  100.500       N(2)  =     4000

 VTST: version 3.2, (02/03/18)

 CHAIN: initializing optimizer
 
 OPT: Using VASP Conjugate-Gradient optimizer
 CHAIN: Read ICHAIN            0
 
 POSCAR: Ag-Os-O
  positions in direct lattice
  velocities in cartesian coordinates
 


--------------------------------------------------------------------------------------------------------


 ion  position               nearest neighbor table
   1  0.000  0.000  0.238-   2 2.93   8 2.93   7 2.93   6 2.93   4 2.93  12 2.93  16 2.93  10 2.93
                             3 2.93
   2  0.333  0.000  0.238-   1 2.93   8 2.93   9 2.93   3 2.93   4 2.93   5 2.93  10 2.93  17 2.93
                            11 2.93
   3  0.667  0.000  0.238-   9 2.93   2 2.93   5 2.93  11 2.93   7 2.93  18 2.93   1 2.93   6 2.93
                            12 2.93
   4  0.000  0.333  0.238-   5 2.93   6 2.93   2 2.93   1 2.93   7 2.93  13 2.93  15 2.93   9 2.93
                            10 2.93
   5  0.333  0.333  0.238-   4 2.93   3 2.93   7 2.93   2 2.93   8 2.93  14 2.93  13 2.93  11 2.93
                             6 2.93
   6  0.667  0.333  0.238-   4 2.93   9 2.93   1 2.93  15 2.93   8 2.93  12 2.93   3 2.93   5 2.93
                            14 2.93
   7  0.000  0.667  0.238-   8 2.93   1 2.93   5 2.93   3 2.93   4 2.93  16 2.93  18 2.93  13 2.93
                             9 2.93
   8  0.333  0.667  0.238-   7 2.93   1 2.93   2 2.93   9 2.93   5 2.93  16 2.93   6 2.93  17 2.93
                            14 2.93
   9  0.667  0.667  0.238-   3 2.93   2 2.93   8 2.93   6 2.93  17 2.93   4 2.93  15 2.93   7 2.93
                            18 2.93
  10  0.111  0.111  0.346-  20 2.89  12 2.93  16 2.93  15 2.93  17 2.93  13 2.93  11 2.93   2 2.93
                             1 2.93   4 2.93  19 2.93  26 2.93
  11  0.444  0.111  0.346-  21 2.89  20 2.89  27 2.92  14 2.93  17 2.93  18 2.93   3 2.93  12 2.93
                            13 2.93  10 2.93   5 2.93   2 2.93
  12  0.778  0.111  0.346-  21 2.89  10 2.93  16 2.93  18 2.93  15 2.93  11 2.93   1 2.93  14 2.93
                             6 2.93   3 2.93  25 2.93  19 2.93
  13  0.111  0.444  0.346-  20 2.89  23 2.89  22 2.92  15 2.93  14 2.93  18 2.93  10 2.93  11 2.93
                            16 2.93   4 2.93   5 2.93   7 2.93
  14  0.444  0.444  0.346-  23 2.89  21 2.89  24 2.92  13 2.93  11 2.93  16 2.93   5 2.93  12 2.93
                            17 2.93   8 2.93  15 2.93   6 2.93
  15  0.778  0.444  0.346-  24 2.92  22 2.92  19 2.93  13 2.93  10 2.93  12 2.93  17 2.93  18 2.93
                             4 2.93   6 2.93   9 2.93  14 2.93
  16  0.111  0.778  0.346-  23 2.89  18 2.93  12 2.93  10 2.93  14 2.93  17 2.93  13 2.93   7 2.93
                             8 2.93   1 2.93  26 2.93  25 2.93
  17  0.444  0.778  0.346-  27 2.92  24 2.92  26 2.93  11 2.93  10 2.93   9 2.93  18 2.93  15 2.93
                            16 2.93   2 2.93  14 2.93   8 2.93
  18  0.778  0.778  0.346-  22 2.92  27 2.92  25 2.93  16 2.93  12 2.93  13 2.93  11 2.93  17 2.93
                            15 2.93   7 2.93   3 2.93   9 2.93
  19  0.888  0.223  0.454-  28 2.90  24 2.93  22 2.93  15 2.93  20 2.93  21 2.93  10 2.93  12 2.93
                            26 2.94  25 2.94  32 2.95  31 2.95
  20  0.222  0.222  0.452-  36 2.76  13 2.89  11 2.89  10 2.89  31 2.93  29 2.93  21 2.93  23 2.93
                            19 2.93  26 2.93  27 2.94  22 2.94
  21  0.556  0.222  0.452-  36 2.76  11 2.89  14 2.89  12 2.89  30 2.93  32 2.93  20 2.93  23 2.93
                            25 2.93  19 2.93  27 2.94  24 2.94
  22  0.888  0.556  0.453-  35 2.90  18 2.92  15 2.92  24 2.92  27 2.92  13 2.92  25 2.93  19 2.93
                            33 2.94  31 2.94  23 2.94  20 2.94
  23  0.222  0.556  0.452-  36 2.76  14 2.89  13 2.89  16 2.89  34 2.93  33 2.93  21 2.93  20 2.93
                            26 2.93  25 2.93  22 2.94  24 2.94
  24  0.556  0.556  0.453-  35 2.90  15 2.92  17 2.92  27 2.92  22 2.92  14 2.92  19 2.93  26 2.93
                            32 2.94  34 2.94  23 2.94  21 2.94
  25  0.888  0.888  0.454-  28 2.90  22 2.93  27 2.93  18 2.93  23 2.93  21 2.93  16 2.93  12 2.93
                            26 2.94  19 2.94  33 2.95  30 2.95
  26  0.223  0.888  0.454-  28 2.90  27 2.93  24 2.93  17 2.93  23 2.93  20 2.93  16 2.93  10 2.93
                            25 2.94  19 2.94  34 2.95  29 2.95
  27  0.556  0.888  0.453-  35 2.90  17 2.92  18 2.92  24 2.92  22 2.92  11 2.92  26 2.93  25 2.93
                            29 2.94  30 2.94  20 2.94  21 2.94
  28  0.000  0.000  0.560-  26 2.90  25 2.90  19 2.90  29 2.96  34 2.96  33 2.96  32 2.96  31 2.96
                            30 2.96
  29  0.333  0.008  0.561-  31 2.86  30 2.87  36 2.88  20 2.93  27 2.94  26 2.95  28 2.96  35 2.97
                            34 3.06
  30  0.659  0.008  0.561-  32 2.86  29 2.87  36 2.88  21 2.93  27 2.94  25 2.95  28 2.96  35 2.97
                            33 3.06
  31  0.008  0.333  0.561-  29 2.86  33 2.87  36 2.88  20 2.93  22 2.94  19 2.95  28 2.96  35 2.97
                            32 3.06
  32  0.659  0.333  0.561-  30 2.86  34 2.87  36 2.88  21 2.93  24 2.94  19 2.95  28 2.96  35 2.97
                            31 3.06
  33  0.008  0.659  0.561-  34 2.86  31 2.87  36 2.88  23 2.93  22 2.94  25 2.95  28 2.96  35 2.97
                            30 3.06
  34  0.333  0.659  0.561-  33 2.86  32 2.87  36 2.88  23 2.93  24 2.94  26 2.95  28 2.96  35 2.97
                            29 3.06
  35  0.667  0.667  0.560-  24 2.90  27 2.90  22 2.90  30 2.97  32 2.97  29 2.97  34 2.97  31 2.97
                            33 2.97
  36  0.333  0.333  0.550-  37 1.74  21 2.76  20 2.76  23 2.76  31 2.88  30 2.88  33 2.88  29 2.88
                            34 2.88  32 2.88
  37  0.333  0.333  0.629-  36 1.74
 
  LATTYP: Found a hexagonal cell.
 ALAT       =     8.7913665772
 C/A-ratio  =     2.5227160501
  
  Lattice vectors:
  
 A1 = (  -4.3956832886,  -7.6135467898,   0.0000000000)
 A2 = (   8.7913665771,   0.0000000000,   0.0000000000)
 A3 = (   0.0000000000,   0.0000000000,  22.1781215668)


Analysis of symmetry for initial positions (statically):
=====================================================================
 Subroutine PRICEL returns:
 Original cell was already a primitive cell.
 

 Routine SETGRP: Setting up the symmetry group for a 
 hexagonal supercell.


 Subroutine GETGRP returns: Found  6 space group operations
 (whereof  6 operations were pure point group operations)
 out of a pool of 24 trial point group operations.


The static configuration has the point symmetry C_3v.


Analysis of symmetry for dynamics (positions and initial velocities):
=====================================================================
 Subroutine PRICEL returns:
 Original cell was already a primitive cell.
 

 Routine SETGRP: Setting up the symmetry group for a 
 hexagonal supercell.


 Subroutine GETGRP returns: Found  6 space group operations
 (whereof  6 operations were pure point group operations)
 out of a pool of 24 trial point group operations.


The dynamic configuration has the point symmetry C_3v.


Analysis of constrained symmetry for selective dynamics:
=====================================================================
 Subroutine PRICEL returns:
 Original cell was already a primitive cell.
 

 Routine SETGRP: Setting up the symmetry group for a 
 hexagonal supercell.


 Subroutine GETGRP returns: Found  6 space group operations
 (whereof  6 operations were pure point group operations)
 out of a pool of 24 trial point group operations.


The constrained configuration has the point symmetry C_3v.


 Subroutine INISYM returns: Found  6 space group operations
 (whereof  6 operations are pure point group operations),
 and found     1 'primitive' translations


----------------------------------------------------------------------------------------

                                     Primitive cell                                     

  volume of cell :    1484.4589

  direct lattice vectors                    reciprocal lattice vectors
     8.791366577  0.000000000  0.000000000     0.113747958 -0.065672414  0.000000000
     4.395683289  7.613546790  0.000000000     0.000000000  0.131344829  0.000000000
     0.000000000  0.000000000 22.178121567     0.000000000  0.000000000  0.045089481

  length of vectors
     8.791366577  8.791366577 22.178121567     0.131344829  0.131344829  0.045089481

  position of ions in fractional coordinates (direct lattice)
     0.000000000  0.000000000  0.238171124
     0.333333313  0.000000000  0.238171124
     0.666666627  0.000000000  0.238171124
     0.000000000  0.333333343  0.238171124
     0.333333313  0.333333343  0.238171124
     0.666666687  0.333333343  0.238171124
     0.000000000  0.666666687  0.238171124
     0.333333313  0.666666687  0.238171124
     0.666666627  0.666666687  0.238171124
     0.111111104  0.111111112  0.346057051
     0.444444448  0.111111112  0.346057051
     0.777777791  0.111111112  0.346057051
     0.111111097  0.444444448  0.346057051
     0.444444418  0.444444448  0.346057051
     0.777777791  0.444444448  0.346057051
     0.111111104  0.777777791  0.346057051
     0.444444448  0.777777791  0.346057051
     0.777777791  0.777777791  0.346057051
     0.888472583  0.223054850  0.454070997
     0.222244894  0.222244909  0.451887289
     0.555510152  0.222244909  0.451887289
     0.887954736  0.556022662  0.453364862
     0.222244909  0.555510212  0.451887289
     0.556022662  0.556022662  0.453364862
     0.888472583  0.888472583  0.454070997
     0.223054820  0.888472583  0.454070997
     0.556022602  0.887954736  0.453364862
     0.000000000  0.000000000  0.560339504
     0.333023651  0.007549730  0.561293130
     0.659426559  0.007549730  0.561293130
     0.007549730  0.333023681  0.561293130
     0.659426619  0.333023681  0.561293130
     0.007549730  0.659426619  0.561293130
     0.333023651  0.659426619  0.561293130
     0.666666627  0.666666687  0.560066152
     0.333333313  0.333333343  0.550232144
     0.333333313  0.333333343  0.628641562

  ion indices of the primitive-cell ions
   primitive index   ion index
                 1           1
                 2           2
                 3           3
                 4           4
                 5           5
                 6           6
                 7           7
                 8           8
                 9           9
                10          10
                11          11
                12          12
                13          13
                14          14
                15          15
                16          16
                17          17
                18          18
                19          19
                20          20
                21          21
                22          22
                23          23
                24          24
                25          25
                26          26
                27          27
                28          28
                29          29
                30          30
                31          31
                32          32
                33          33
                34          34
                35          35
                36          36
                37          37

----------------------------------------------------------------------------------------

 
 
 KPOINTS: Automatic mesh                          

Automatic generation of k-mesh.
 Grid dimensions read from file:
 generate k-points for:    8    8    1

 Generating k-lattice:

  Cartesian coordinates                     Fractional coordinates (reciprocal lattice)
     0.014218495 -0.008209052  0.000000000     0.125000000  0.000000000  0.000000000
     0.000000000  0.016418104  0.000000000     0.000000000  0.125000000  0.000000000
     0.000000000  0.000000000  0.045089481     0.000000000  0.000000000  1.000000000

  Length of vectors
     0.016418104  0.016418104  0.045089481

  Shift w.r.t. Gamma in fractional coordinates (k-lattice)
     0.000000000  0.000000000  0.000000000

 TETIRR: Found     36 inequivalent tetrahedra from      384
 
 Subroutine IBZKPT returns following result:
 ===========================================
 
 Found     10 irreducible k-points:
 
 Following reciprocal coordinates:
            Coordinates               Weight
  0.000000  0.000000  0.000000      1.000000
  0.125000 -0.000000  0.000000      6.000000
  0.250000 -0.000000  0.000000      6.000000
  0.375000 -0.000000  0.000000      6.000000
  0.500000 -0.000000  0.000000      3.000000
  0.250000  0.125000  0.000000      6.000000
  0.375000  0.125000  0.000000     12.000000
  0.500000  0.125000  0.000000     12.000000
  0.500000  0.250000  0.000000      6.000000
 -0.375000  0.250000  0.000000      6.000000
 
 Following cartesian coordinates:
            Coordinates               Weight
  0.000000  0.000000  0.000000      1.000000
  0.014218 -0.008209  0.000000      6.000000
  0.028437 -0.016418  0.000000      6.000000
  0.042655 -0.024627  0.000000      6.000000
  0.056874 -0.032836  0.000000      3.000000
  0.028437 -0.000000  0.000000      6.000000
  0.042655 -0.008209  0.000000     12.000000
  0.056874 -0.016418  0.000000     12.000000
  0.056874 -0.000000  0.000000      6.000000
 -0.042655  0.057463  0.000000      6.000000
 


--------------------------------------------------------------------------------------------------------




 Dimension of arrays:
   k-points           NKPTS =     10   k-points in BZ     NKDIM =     10   number of bands    NBANDS=    252
   number of dos      NEDOS =    301   number of ions     NIONS =     37
   non local maximal  LDIM  =      6   non local SUM 2l+1 LMDIM =     18
   total plane-waves  NPLWV = 290304
   max r-space proj   IRMAX =   3185   max aug-charges    IRDMAX=  11747
   dimension x,y,z NGX =    48 NGY =   48 NGZ =  126
   dimension x,y,z NGXF=    96 NGYF=   96 NGZF=  252
   support grid    NGXF=    96 NGYF=   96 NGZF=  252
   ions per type =              35   1   1
   NGX,Y,Z   is equivalent  to a cutoff of   9.08,  9.08,  9.44 a.u.
   NGXF,Y,Z  is equivalent  to a cutoff of  18.15, 18.15, 18.89 a.u.

 SYSTEM =  unknown system                          
 POSCAR =  Ag-Os-O                                 

 Startparameter for this run:
   NWRITE =      2    write-flag & timer
   PREC   = normal    normal or accurate (medium, high low for compatibility)
   ISTART =      0    job   : 0-new  1-cont  2-samecut
   ICHARG =     11    charge: 1-file 2-atom 10-const
   ISPIN  =      1    spin polarized calculation?
   LNONCOLLINEAR =      F non collinear calculations
   LSORBIT =      F    spin-orbit coupling
   INIWAV =      1    electr: 0-lowe 1-rand  2-diag
   LASPH  =      F    aspherical Exc in radial PAW
   METAGGA=      F    non-selfconsistent MetaGGA calc.

 Electronic Relaxation 1
   ENCUT  =  500.0 eV  36.75 Ry    6.06 a.u.  16.03 16.03 40.44*2*pi/ulx,y,z
   ENINI  =  500.0     initial cutoff
   ENAUG  =  605.4 eV  augmentation charge cutoff
   NELM   =    150;   NELMIN=  2; NELMDL= -5     # of ELM steps 
   EDIFF  = 0.1E-04   stopping-criterion for ELM
   LREAL  =      T    real-space projection
   NLSPLINE    = F    spline interpolate recip. space projectors
   LCOMPAT=      F    compatible to vasp.4.4
   GGA_COMPAT  = T    GGA compatible to vasp.4.4-vasp.4.6
   LMAXPAW     = -100 max onsite density
   LMAXMIX     =    2 max onsite mixed and CHGCAR
   VOSKOWN=      0    Vosko Wilk Nusair interpolation
   ROPT   =   -0.00050  -0.00050  -0.00050
 Ionic relaxation
   EDIFFG = -.1E-01   stopping-criterion for IOM
   NSW    =      0    number of steps for IOM
   NBLOCK =      1;   KBLOCK =      1    inner block; outer block 
   IBRION =     -1    ionic relax: 0-MD 1-quasi-New 2-CG
   NFREE  =      1    steps in history (QN), initial steepest desc. (CG)
   ISIF   =      2    stress and relaxation
   IWAVPR =     10    prediction:  0-non 1-charg 2-wave 3-comb
   ISYM   =      2    0-nonsym 1-usesym 2-fastsym
   LCORR  =      T    Harris-Foulkes like correction to forces

   POTIM  = 0.5000    time-step for ionic-motion
   TEIN   =    0.0    initial temperature
   TEBEG  =    0.0;   TEEND  =   0.0 temperature during run
   SMASS  =  -3.00    Nose mass-parameter (am)
   estimated Nose-frequenzy (Omega)   =  0.10E-29 period in steps = 0.13E+47 mass=  -0.177E-26a.u.
   SCALEE = 1.0000    scale energy and forces
   NPACO  =    256;   APACO  = 16.0  distance and # of slots for P.C.
   PSTRESS=    0.0 pullay stress

  Mass of Ions in am
   POMASS = 107.87190.20 16.00
  Ionic Valenz
   ZVAL   =  11.00  8.00  6.00
  Atomic Wigner-Seitz radii
   RWIGS  =  -1.00 -1.00 -1.00
  virtual crystal weights 
   VCA    =   1.00  1.00  1.00
   NELECT =     399.0000    total number of electrons
   NUPDOWN=      -1.0000    fix difference up-down

 DOS related values:
   EMIN   =  10.00;   EMAX   =-10.00  energy-range for DOS
   EFERMI =   0.00
   ISMEAR =    -5;   SIGMA  =   0.10  broadening in eV -4-tet -1-fermi 0-gaus

 Electronic relaxation 2 (details)
   IALGO  =     68    algorithm
   LDIAG  =      T    sub-space diagonalisation (order eigenvalues)
   LSUBROT=      F    optimize rotation matrix (better conditioning)
   TURBO    =      0    0=normal 1=particle mesh
   IRESTART =      0    0=no restart 2=restart with 2 vectors
   NREBOOT  =      0    no. of reboots
   NMIN     =      0    reboot dimension
   EREF     =   0.00    reference energy to select bands
   IMIX   =      4    mixing-type and parameters
     AMIX     =   0.40;   BMIX     =  1.00
     AMIX_MAG =   1.60;   BMIX_MAG =  1.00
     AMIN     =   0.10
     WC   =   100.;   INIMIX=   1;  MIXPRE=   1;  MAXMIX= -45

 Intra band minimization:
   WEIMIN = 0.0000     energy-eigenvalue tresh-hold
   EBREAK =  0.99E-08  absolut break condition
   DEPER  =   0.30     relativ break condition  

   TIME   =   0.40     timestep for ELM

  volume/ion in A,a.u.               =      40.12       270.75
  Fermi-wavevector in a.u.,A,eV,Ry     =   1.056517  1.996527 15.187200  1.116228
  Thomas-Fermi vector in A             =   2.191755
 
 Write flags
   LWAVE        =      F    write WAVECAR
   LDOWNSAMPLE  =      F    k-point downsampling of WAVECAR
   LCHARG       =      F    write CHGCAR
   LVTOT        =      F    write LOCPOT, total local potential
   LVHAR        =      F    write LOCPOT, Hartree potential only
   LELF         =      F    write electronic localiz. function (ELF)
   LORBIT       =     10    0 simple, 1 ext, 2 COOP (PROOUT), +10 PAW based schemes


 Dipole corrections
   LMONO  =      F    monopole corrections only (constant potential shift)
   LDIPOL =      F    correct potential (dipole corrections)
   IDIPOL =      0    1-x, 2-y, 3-z, 4-all directions 
   EPSILON=  1.0000000 bulk dielectric constant

 Exchange correlation treatment:
   GGA     =    --    GGA type
   LEXCH   =     8    internal setting for exchange type
   VOSKOWN=      0    Vosko Wilk Nusair interpolation
   LHFCALC =     F    Hartree Fock is set to
   LHFONE  =     F    Hartree Fock one center treatment
   AEXX    =    0.0000 exact exchange contribution

 Linear response parameters
   LEPSILON=     F    determine dielectric tensor
   LRPA    =     F    only Hartree local field effects (RPA)
   LNABLA  =     F    use nabla operator in PAW spheres
   LVEL    =     F    velocity operator in full k-point grid
   LINTERFAST=   F  fast interpolation
   KINTER  =     0    interpolate to denser k-point grid
   CSHIFT  =0.1000    complex shift for real part using Kramers Kronig
   OMEGAMAX=  -1.0    maximum frequency
   DEG_THRESHOLD= 0.2000000E-02 threshold for treating states as degnerate
   RTIME   =   -0.100 relaxation time in fs
  (WPLASMAI=    0.000 imaginary part of plasma frequency in eV, 0.658/RTIME)
   DFIELD  = 0.0000000 0.0000000 0.0000000 field for delta impulse in time
 
 Orbital magnetization related:
   ORBITALMAG=     F  switch on orbital magnetization
   LCHIMAG   =     F  perturbation theory with respect to B field
   DQ        =  0.001000  dq finite difference perturbation B field
   LLRAUG    =     F  two centre corrections for induced B field



--------------------------------------------------------------------------------------------------------


 Static calculation
 charge density and potential remain constant during run
 non-spin polarized calculation
 RMM-DIIS sequential band-by-band and
  variant of blocked Davidson during initial phase
 perform sub-space diagonalisation
    before iterative eigenvector-optimisation
 no mixing
 using additional bands           52
 real space projection scheme for non local part
 use partial core corrections
 calculate Harris-corrections to forces 
   (improved forces if not selfconsistent)
 use gradient corrections 
 WARNING: stress and forces are not correct
  (second derivative of E(xc) not defined)
 use of overlap-Matrix (Vanderbilt PP)
 Fermi weights with tetrahedron method with Bloechl corrections


--------------------------------------------------------------------------------------------------------


  energy-cutoff  :      500.00
  volume of cell :     1484.46
      direct lattice vectors                 reciprocal lattice vectors
     8.791366577  0.000000000  0.000000000     0.113747958 -0.065672414  0.000000000
     4.395683289  7.613546790  0.000000000     0.000000000  0.131344829  0.000000000
     0.000000000  0.000000000 22.178121567     0.000000000  0.000000000  0.045089481

  length of vectors
     8.791366577  8.791366577 22.178121567     0.131344829  0.131344829  0.045089481


 
 k-points in units of 2pi/SCALE and weight: Automatic mesh                          
   0.00000000  0.00000000  0.00000000       0.016
   0.01421849 -0.00820905  0.00000000       0.094
   0.02843699 -0.01641810  0.00000000       0.094
   0.04265548 -0.02462716  0.00000000       0.094
   0.05687398 -0.03283621  0.00000000       0.047
   0.02843699 -0.00000000  0.00000000       0.094
   0.04265548 -0.00820905  0.00000000       0.188
   0.05687398 -0.01641810  0.00000000       0.188
   0.05687398 -0.00000000  0.00000000       0.094
  -0.04265548  0.05746336  0.00000000       0.094
 
 k-points in reciprocal lattice and weights: Automatic mesh                          
   0.00000000  0.00000000  0.00000000       0.016
   0.12500000 -0.00000000  0.00000000       0.094
   0.25000000 -0.00000000  0.00000000       0.094
   0.37500000 -0.00000000  0.00000000       0.094
   0.50000000 -0.00000000  0.00000000       0.047
   0.25000000  0.12500000  0.00000000       0.094
   0.37500000  0.12500000  0.00000000       0.188
   0.50000000  0.12500000  0.00000000       0.188
   0.50000000  0.25000000  0.00000000       0.094
  -0.37500000  0.25000000  0.00000000       0.094
 
 position of ions in fractional coordinates (direct lattice) 
   0.00000000  0.00000000  0.23817112
   0.33333331  0.00000000  0.23817112
   0.66666663  0.00000000  0.23817112
   0.00000000  0.33333334  0.23817112
   0.33333331  0.33333334  0.23817112
   0.66666669  0.33333334  0.23817112
   0.00000000  0.66666669  0.23817112
   0.33333331  0.66666669  0.23817112
   0.66666663  0.66666669  0.23817112
   0.11111110  0.11111111  0.34605705
   0.44444445  0.11111111  0.34605705
   0.77777779  0.11111111  0.34605705
   0.11111110  0.44444445  0.34605705
   0.44444442  0.44444445  0.34605705
   0.77777779  0.44444445  0.34605705
   0.11111110  0.77777779  0.34605705
   0.44444445  0.77777779  0.34605705
   0.77777779  0.77777779  0.34605705
   0.88847258  0.22305485  0.45407100
   0.22224489  0.22224491  0.45188729
   0.55551015  0.22224491  0.45188729
   0.88795474  0.55602266  0.45336486
   0.22224491  0.55551021  0.45188729
   0.55602266  0.55602266  0.45336486
   0.88847258  0.88847258  0.45407100
   0.22305482  0.88847258  0.45407100
   0.55602260  0.88795474  0.45336486
   0.00000000  0.00000000  0.56033950
   0.33302365  0.00754973  0.56129313
   0.65942656  0.00754973  0.56129313
   0.00754973  0.33302368  0.56129313
   0.65942662  0.33302368  0.56129313
   0.00754973  0.65942662  0.56129313
   0.33302365  0.65942662  0.56129313
   0.66666663  0.66666669  0.56006615
   0.33333331  0.33333334  0.55023214
   0.33333331  0.33333334  0.62864156
 
 position of ions in cartesian coordinates  (Angst):
   0.00000000  0.00000000  5.28218814
   2.93045535  0.00000000  5.28218814
   5.86091070  0.00000000  5.28218814
   1.46522781  2.53784900  5.28218814
   4.39568315  2.53784900  5.28218814
   7.32613904  2.53784900  5.28218814
   2.93045562  5.07569801  5.28218814
   5.86091096  5.07569801  5.28218814
   8.79136632  5.07569801  5.28218814
   1.46522770  0.84594965  7.67489535
   4.39568332  0.84594965  7.67489535
   7.32613893  0.84594965  7.67489535
   2.93045542  3.38379860  7.67489535
   5.86091083  3.38379860  7.67489535
   8.79136671  3.38379860  7.67489535
   4.39568328  5.92164760  7.67489535
   7.32613890  5.92164760  7.67489535
  10.25659451  5.92164760  7.67489535
   8.79136665  1.69823853 10.07044178
   2.93075457  1.69207201 10.02201122
   5.86061162  1.69207201 10.02201122
  10.25043511  4.23330455 10.05478103
   4.39568342  4.22940299 10.02201122
   7.33229857  4.23330455 10.05478103
  11.71633226  6.76442758 10.07044178
   5.86640077  6.76442758 10.07044178
   8.79136631  6.76048493 10.05478103
   0.00000000  0.00000000 12.42727764
   2.96091922  0.05748023 12.44842727
   5.83044683  0.05748023 12.44842727
   1.53023908  2.53549138 12.44842727
   7.26112776  2.53549138 12.44842727
   2.96500301  5.02057542 12.44842727
   5.82636356  5.02057542 12.44842727
   8.79136632  5.07569801 12.42121520
   4.39568315  2.53784900 12.20311537
   4.39568315  2.53784900 13.94208898
 


--------------------------------------------------------------------------------------------------------


 k-point   1 :   0.0000 0.0000 0.0000  plane waves:   37683
 k-point   2 :   0.1250-0.0000 0.0000  plane waves:   37658
 k-point   3 :   0.2500-0.0000 0.0000  plane waves:   37682
 k-point   4 :   0.3750-0.0000 0.0000  plane waves:   37686
 k-point   5 :   0.5000-0.0000 0.0000  plane waves:   37668
 k-point   6 :   0.2500 0.1250 0.0000  plane waves:   37666
 k-point   7 :   0.3750 0.1250 0.0000  plane waves:   37708
 k-point   8 :   0.5000 0.1250 0.0000  plane waves:   37726
 k-point   9 :   0.5000 0.2500 0.0000  plane waves:   37706
 k-point  10 :  -0.3750 0.2500 0.0000  plane waves:   37686

 maximum and minimum number of plane-waves per node :     37726    37658

 maximum number of plane-waves:     37726
 maximum index in each direction: 
   IXMAX=   16   IYMAX=   16   IZMAX=   40
   IXMIN=  -16   IYMIN=  -16   IZMIN=  -40


 serial   3D FFT for wavefunctions
 parallel 3D FFT for charge:
    minimum data exchange during FFTs selected (reduces bandwidth)


 total amount of memory used by VASP MPI-rank0   123501. kBytes
=======================================================================

   base      :      30000. kBytes
   nonlr-proj:      15398. kBytes
   fftplans  :       4330. kBytes
   grid      :      17879. kBytes
   one-center:        575. kBytes
   wavefun   :      55319. kBytes
 
     INWAV:  cpu time    0.0000: real time    0.0000
 initial charge density was supplied:
 number of electron     399.0000018 magnetization 
 keeping initial charge density in first step


--------------------------------------------------------------------------------------------------------


 Maximum index for non-local projection operator         3042
 Maximum index for augmentation-charges          701 (set IRDMAX)


--------------------------------------------------------------------------------------------------------


 First call to EWALD:  gamma=   0.155
 Maximum number of real-space cells 4x 4x 2
 Maximum number of reciprocal cells 2x 2x 5

    FEWALD:  cpu time    0.0013: real time    0.0014


--------------------------------------- Iteration      1(   1)  ---------------------------------------


    POTLOK:  cpu time    0.0437: real time    0.0441
    SETDIJ:  cpu time    0.0046: real time    0.0047
     EDDAV:  cpu time    7.1779: real time    7.1799
 BZINTS: Fermi energy:    9.573290;  399.000000 electrons
         Band energy: 0.122072E+04;  BLOECHL correction:   -0.019565
       DOS:  cpu time    0.0103: real time    0.0128
    --------------------------------------------
      LOOP:  cpu time    7.2365: real time    7.2416

 eigenvalue-minimisations  :  5040
 total energy-change (2. order) : 0.2450212E+04  (-0.1847629E+05)
 number of electron     399.0000018 magnetization 
 augmentation part      399.0000018 magnetization 

 Free energy of the ion-electron system (eV)
  ---------------------------------------------------
  alpha Z        PSCENC =       770.02755749
  Ewald energy   TEWEN  =     98117.38847867
  -Hartree energ DENC   =   -136001.94889129
  -exchange      EXHF   =         0.00000000
  -V(xc)+E(xc)   XCENC  =      -393.25221107
  PAW double counting   =     39510.67296147   -37927.52747798
  entropy T*S    EENTRO =         0.00000000
  eigenvalues    EBANDS =      1220.71737368
  atomic energy  EATOM  =     37154.13428382
  Solvation  Ediel_sol  =         0.00000000
  ---------------------------------------------------
  free energy    TOTEN  =      2450.21207480 eV

  energy without entropy =     2450.21207480  energy(sigma->0) =     2450.21207480


--------------------------------------------------------------------------------------------------------




--------------------------------------- Iteration      1(   2)  ---------------------------------------


     EDDAV:  cpu time    7.4473: real time    7.4480
 BZINTS: Fermi energy:    1.387790;  399.000000 electrons
         Band energy:-0.124272E+04;  BLOECHL correction:   -0.029697
       DOS:  cpu time    0.0099: real time    0.0099
    --------------------------------------------
      LOOP:  cpu time    7.4571: real time    7.4579

 eigenvalue-minimisations  :  5320
 total energy-change (2. order) :-0.2463434E+04  (-0.2346563E+04)
 number of electron     399.0000018 magnetization 
 augmentation part      399.0000018 magnetization 

 Free energy of the ion-electron system (eV)
  ---------------------------------------------------
  alpha Z        PSCENC =       770.02755749
  Ewald energy   TEWEN  =     98117.38847867
  -Hartree energ DENC   =   -136001.94889129
  -exchange      EXHF   =         0.00000000
  -V(xc)+E(xc)   XCENC  =      -393.25221107
  PAW double counting   =     39510.67296147   -37927.52747798
  entropy T*S    EENTRO =         0.00000000
  eigenvalues    EBANDS =     -1242.71711361
  atomic energy  EATOM  =     37154.13428382
  Solvation  Ediel_sol  =         0.00000000
  ---------------------------------------------------
  free energy    TOTEN  =       -13.22241249 eV

  energy without entropy =      -13.22241249  energy(sigma->0) =      -13.22241249


--------------------------------------------------------------------------------------------------------




--------------------------------------- Iteration      1(   3)  ---------------------------------------


     EDDAV:  cpu time    8.2168: real time    8.2176
 BZINTS: Fermi energy:    0.847448;  399.000000 electrons
         Band energy:-0.133226E+04;  BLOECHL correction:   -0.049411
       DOS:  cpu time    0.0099: real time    0.0099
    --------------------------------------------
      LOOP:  cpu time    8.2267: real time    8.2275

 eigenvalue-minimisations  :  5992
 total energy-change (2. order) :-0.8954540E+02  (-0.8740901E+02)
 number of electron     399.0000018 magnetization 
 augmentation part      399.0000018 magnetization 

 Free energy of the ion-electron system (eV)
  ---------------------------------------------------
  alpha Z        PSCENC =       770.02755749
  Ewald energy   TEWEN  =     98117.38847867
  -Hartree energ DENC   =   -136001.94889129
  -exchange      EXHF   =         0.00000000
  -V(xc)+E(xc)   XCENC  =      -393.25221107
  PAW double counting   =     39510.67296147   -37927.52747798
  entropy T*S    EENTRO =         0.00000000
  eigenvalues    EBANDS =     -1332.26251326
  atomic energy  EATOM  =     37154.13428382
  Solvation  Ediel_sol  =         0.00000000
  ---------------------------------------------------
  free energy    TOTEN  =      -102.76781214 eV

  energy without entropy =     -102.76781214  energy(sigma->0) =     -102.76781214


--------------------------------------------------------------------------------------------------------




--------------------------------------- Iteration      1(   4)  ---------------------------------------


     EDDAV:  cpu time    7.7073: real time    7.7081
 BZINTS: Fermi energy:    0.826055;  399.000000 electrons
         Band energy:-0.133368E+04;  BLOECHL correction:   -0.046507
       DOS:  cpu time    0.0099: real time    0.0099
    --------------------------------------------
      LOOP:  cpu time    7.7171: real time    7.7179

 eigenvalue-minimisations  :  5544
 total energy-change (2. order) :-0.1418102E+01  (-0.1413244E+01)
 number of electron     399.0000018 magnetization 
 augmentation part      399.0000018 magnetization 

 Free energy of the ion-electron system (eV)
  ---------------------------------------------------
  alpha Z        PSCENC =       770.02755749
  Ewald energy   TEWEN  =     98117.38847867
  -Hartree energ DENC   =   -136001.94889129
  -exchange      EXHF   =         0.00000000
  -V(xc)+E(xc)   XCENC  =      -393.25221107
  PAW double counting   =     39510.67296147   -37927.52747798
  entropy T*S    EENTRO =         0.00000000
  eigenvalues    EBANDS =     -1333.68061478
  atomic energy  EATOM  =     37154.13428382
  Solvation  Ediel_sol  =         0.00000000
  ---------------------------------------------------
  free energy    TOTEN  =      -104.18591366 eV

  energy without entropy =     -104.18591366  energy(sigma->0) =     -104.18591366


--------------------------------------------------------------------------------------------------------




--------------------------------------- Iteration      1(   5)  ---------------------------------------


     EDDAV:  cpu time    8.5052: real time    8.5058
 BZINTS: Fermi energy:    0.825744;  399.000000 electrons
         Band energy:-0.133371E+04;  BLOECHL correction:   -0.046456
       DOS:  cpu time    0.0101: real time    0.0101
    --------------------------------------------
      LOOP:  cpu time    8.5153: real time    8.5158

 eigenvalue-minimisations  :  6244
 total energy-change (2. order) :-0.3071007E-01  (-0.3071473E-01)
 number of electron     399.0000018 magnetization 
 augmentation part      399.0000018 magnetization 

 Free energy of the ion-electron system (eV)
  ---------------------------------------------------
  alpha Z        PSCENC =       770.02755749
  Ewald energy   TEWEN  =     98117.38847867
  -Hartree energ DENC   =   -136001.94889129
  -exchange      EXHF   =         0.00000000
  -V(xc)+E(xc)   XCENC  =      -393.25221107
  PAW double counting   =     39510.67296147   -37927.52747798
  entropy T*S    EENTRO =         0.00000000
  eigenvalues    EBANDS =     -1333.71132485
  atomic energy  EATOM  =     37154.13428382
  Solvation  Ediel_sol  =         0.00000000
  ---------------------------------------------------
  free energy    TOTEN  =      -104.21662373 eV

  energy without entropy =     -104.21662373  energy(sigma->0) =     -104.21662373


--------------------------------------------------------------------------------------------------------




--------------------------------------- Iteration      1(   6)  ---------------------------------------


    EDDIAG:  cpu time    1.4047: real time    1.4051
  RMM-DIIS:  cpu time    3.9895: real time    3.9898
    ORTHCH:  cpu time    0.2618: real time    0.2619
 BZINTS: Fermi energy:    0.825741;  399.000000 electrons
         Band energy:-0.133371E+04;  BLOECHL correction:   -0.046456
       DOS:  cpu time    0.0098: real time    0.0098
    --------------------------------------------
      LOOP:  cpu time    5.6659: real time    5.6665

 eigenvalue-minimisations  :  5113
 total energy-change (2. order) :-0.6409199E-03  (-0.6409924E-03)
 number of electron     399.0000018 magnetization 
 augmentation part      399.0000018 magnetization 

 Free energy of the ion-electron system (eV)
  ---------------------------------------------------
  alpha Z        PSCENC =       770.02755749
  Ewald energy   TEWEN  =     98117.38847867
  -Hartree energ DENC   =   -136001.94889129
  -exchange      EXHF   =         0.00000000
  -V(xc)+E(xc)   XCENC  =      -393.25221107
  PAW double counting   =     39510.67296147   -37927.52747798
  entropy T*S    EENTRO =         0.00000000
  eigenvalues    EBANDS =     -1333.71196577
  atomic energy  EATOM  =     37154.13428382
  Solvation  Ediel_sol  =         0.00000000
  ---------------------------------------------------
  free energy    TOTEN  =      -104.21726465 eV

  energy without entropy =     -104.21726465  energy(sigma->0) =     -104.21726465


--------------------------------------------------------------------------------------------------------




--------------------------------------- Iteration      1(   7)  ---------------------------------------


    EDDIAG:  cpu time    1.4061: real time    1.4062
  RMM-DIIS:  cpu time    5.5626: real time    5.5629
    ORTHCH:  cpu time    0.2613: real time    0.2613
 BZINTS: Fermi energy:    0.825741;  399.000000 electrons
         Band energy:-0.133371E+04;  BLOECHL correction:   -0.046456
       DOS:  cpu time    0.0098: real time    0.0098
    --------------------------------------------
      LOOP:  cpu time    7.2398: real time    7.2404

 eigenvalue-minimisations  :  7113
 total energy-change (2. order) :-0.2087833E-03  (-0.2086108E-03)
 number of electron     399.0000018 magnetization 
 augmentation part      399.0000018 magnetization 

 Free energy of the ion-electron system (eV)
  ---------------------------------------------------
  alpha Z        PSCENC =       770.02755749
  Ewald energy   TEWEN  =     98117.38847867
  -Hartree energ DENC   =   -136001.94889129
  -exchange      EXHF   =         0.00000000
  -V(xc)+E(xc)   XCENC  =      -393.25221107
  PAW double counting   =     39510.67296147   -37927.52747798
  entropy T*S    EENTRO =         0.00000000
  eigenvalues    EBANDS =     -1333.71217455
  atomic energy  EATOM  =     37154.13428382
  Solvation  Ediel_sol  =         0.00000000
  ---------------------------------------------------
  free energy    TOTEN  =      -104.21747344 eV

  energy without entropy =     -104.21747344  energy(sigma->0) =     -104.21747344


--------------------------------------------------------------------------------------------------------




--------------------------------------- Iteration      1(   8)  ---------------------------------------


    EDDIAG:  cpu time    1.4078: real time    1.4081
  RMM-DIIS:  cpu time    3.7814: real time    3.7817
    ORTHCH:  cpu time    0.2616: real time    0.2616
 BZINTS: Fermi energy:    0.825741;  399.000000 electrons
         Band energy:-0.133371E+04;  BLOECHL correction:   -0.046456
       DOS:  cpu time    0.0099: real time    0.0099
    --------------------------------------------
      LOOP:  cpu time    5.4608: real time    5.4613

 eigenvalue-minimisations  :  4322
 total energy-change (2. order) :-0.9031355E-05  (-0.9247140E-05)
 number of electron     399.0000018 magnetization 
 augmentation part      399.0000018 magnetization 

 Free energy of the ion-electron system (eV)
  ---------------------------------------------------
  alpha Z        PSCENC =       770.02755749
  Ewald energy   TEWEN  =     98117.38847867
  -Hartree energ DENC   =   -136001.94889129
  -exchange      EXHF   =         0.00000000
  -V(xc)+E(xc)   XCENC  =      -393.25221107
  PAW double counting   =     39510.67296147   -37927.52747798
  entropy T*S    EENTRO =         0.00000000
  eigenvalues    EBANDS =     -1333.71218359
  atomic energy  EATOM  =     37154.13428382
  Solvation  Ediel_sol  =         0.00000000
  ---------------------------------------------------
  free energy    TOTEN  =      -104.21748247 eV

  energy without entropy =     -104.21748247  energy(sigma->0) =     -104.21748247


--------------------------------------------------------------------------------------------------------




 average (electrostatic) potential at core
  the test charge radii are     1.1249  1.1957  0.7215
  (the norm of the test charge is              1.0000)
       1 -78.0815       2 -78.0543       3 -78.0542       4 -78.0543       5 -78.0416
       6 -78.0540       7 -78.0542       8 -78.0540       9 -78.0875      10 -78.2931
      11 -78.2781      12 -78.2928      13 -78.2781      14 -78.2777      15 -78.2937
      16 -78.2928      17 -78.2937      18 -78.2938      19 -78.2746      20 -78.4079
      21 -78.4075      22 -78.3026      23 -78.4075      24 -78.3022      25 -78.2746
      26 -78.2746      27 -78.3026      28 -78.0119      29 -78.0438      30 -78.0437
      31 -78.0438      32 -78.0435      33 -78.0437      34 -78.0435      35 -78.0146
      36 -51.8482      37 -76.2274
 
 
 
 E-fermi :   0.8257     XC(G=0):  -5.9399     alpha+bet : -5.6068

 Fermi energy:         0.8257405632

 k-point     1 :       0.0000    0.0000    0.0000
  band No.  band energies     occupation 
      1     -18.4001      2.00000
      2      -6.3633      2.00000
      3      -5.5843      2.00000
      4      -5.3624      2.00000
      5      -5.2412      2.00000
      6      -5.1097      2.00000
      7      -5.1097      2.00000
      8      -5.0622      2.00000
      9      -5.0283      2.00000
     10      -5.0283      2.00000
     11      -5.0212      2.00000
     12      -5.0096      2.00000
     13      -4.9892      2.00000
     14      -4.9867      2.00000
     15      -4.9866      2.00000
     16      -4.9793      2.00000
     17      -4.9793      2.00000
     18      -4.9099      2.00000
     19      -4.9099      2.00000
     20      -4.9034      2.00000
     21      -4.8190      2.00000
     22      -4.8035      2.00000
     23      -4.8034      2.00000
     24      -4.7302      2.00000
     25      -4.6832      2.00000
     26      -4.6831      2.00000
     27      -4.6703      2.00000
     28      -4.6158      2.00000
     29      -4.6140      2.00000
     30      -4.6139      2.00000
     31      -4.6125      2.00000
     32      -4.6125      2.00000
     33      -4.5995      2.00000
     34      -4.5661      2.00000
     35      -4.5661      2.00000
     36      -4.5596      2.00000
     37      -4.5110      2.00000
     38      -4.5110      2.00000
     39      -4.4967      2.00000
     40      -4.4438      2.00000
     41      -4.4423      2.00000
     42      -4.4423      2.00000
     43      -4.4126      2.00000
     44      -4.4126      2.00000
     45      -4.2408      2.00000
     46      -4.2408      2.00000
     47      -4.2200      2.00000
     48      -4.2199      2.00000
     49      -4.2165      2.00000
     50      -4.2160      2.00000
     51      -4.2160      2.00000
     52      -4.1968      2.00000
     53      -4.1114      2.00000
     54      -4.1114      2.00000
     55      -4.0704      2.00000
     56      -4.0655      2.00000
     57      -4.0413      2.00000
     58      -4.0018      2.00000
     59      -3.8472      2.00000
     60      -3.8396      2.00000
     61      -3.8396      2.00000
     62      -3.8377      2.00000
     63      -3.8265      2.00000
     64      -3.8264      2.00000
     65      -3.8186      2.00000
     66      -3.8073      2.00000
     67      -3.8073      2.00000
     68      -3.7750      2.00000
     69      -3.7750      2.00000
     70      -3.6796      2.00000
     71      -3.6796      2.00000
     72      -3.6684      2.00000
     73      -3.6644      2.00000
     74      -3.6644      2.00000
     75      -3.6592      2.00000
     76      -3.6459      2.00000
     77      -3.6459      2.00000
     78      -3.6290      2.00000
     79      -3.6289      2.00000
     80      -3.6223      2.00000
     81      -3.6100      2.00000
     82      -3.6099      2.00000
     83      -3.5919      2.00000
     84      -3.5860      2.00000
     85      -3.5860      2.00000
     86      -3.5704      2.00000
     87      -3.5153      2.00000
     88      -3.5153      2.00000
     89      -3.4489      2.00000
     90      -3.4465      2.00000
     91      -3.4465      2.00000
     92      -3.4364      2.00000
     93      -3.4364      2.00000
     94      -3.4166      2.00000
     95      -3.4166      2.00000
     96      -3.3639      2.00000
     97      -3.3639      2.00000
     98      -3.3387      2.00000
     99      -3.3387      2.00000
    100      -3.3377      2.00000
    101      -3.1692      2.00000
    102      -3.1692      2.00000
    103      -3.1461      2.00000
    104      -3.1461      2.00000
    105      -3.1240      2.00000
    106      -3.1221      2.00000
    107      -3.1220      2.00000
    108      -3.1007      2.00000
    109      -3.1006      2.00000
    110      -3.0987      2.00000
    111      -3.0606      2.00000
    112      -3.0405      2.00000
    113      -3.0405      2.00000
    114      -3.0049      2.00000
    115      -2.9953      2.00000
    116      -2.9086      2.00000
    117      -2.9086      2.00000
    118      -2.8893      2.00000
    119      -2.8669      2.00000
    120      -2.8669      2.00000
    121      -2.8302      2.00000
    122      -2.8302      2.00000
    123      -2.8014      2.00000
    124      -2.8014      2.00000
    125      -2.7682      2.00000
    126      -2.7536      2.00000
    127      -2.7535      2.00000
    128      -2.7410      2.00000
    129      -2.7409      2.00000
    130      -2.7383      2.00000
    131      -2.7382      2.00000
    132      -2.7323      2.00000
    133      -2.7323      2.00000
    134      -2.7201      2.00000
    135      -2.7110      2.00000
    136      -2.7109      2.00000
    137      -2.5662      2.00000
    138      -2.5662      2.00000
    139      -2.5426      2.00000
    140      -2.5426      2.00000
    141      -2.5379      2.00000
    142      -2.5325      2.00000
    143      -2.5218      2.00000
    144      -2.5217      2.00000
    145      -2.5177      2.00000
    146      -2.5177      2.00000
    147      -2.5064      2.00000
    148      -2.5003      2.00000
    149      -2.4988      2.00000
    150      -2.4988      2.00000
    151      -2.4561      2.00000
    152      -2.4330      2.00000
    153      -2.4267      2.00000
    154      -2.4187      2.00000
    155      -2.4187      2.00000
    156      -2.4098      2.00000
    157      -2.4098      2.00000
    158      -2.4082      2.00000
    159      -2.3677      2.00000
    160      -2.3677      2.00000
    161      -2.3427      2.00000
    162      -2.3424      2.00000
    163      -2.3424      2.00000
    164      -2.3365      2.00000
    165      -2.3264      2.00000
    166      -2.3167      2.00000
    167      -2.3158      2.00000
    168      -2.3158      2.00000
    169      -2.2857      2.00000
    170      -2.2797      2.00000
    171      -2.2796      2.00000
    172      -2.2691      2.00000
    173      -2.2634      2.00000
    174      -2.2634      2.00000
    175      -2.2224      2.00000
    176      -2.2224      2.00000
    177      -2.1663      2.00000
    178      -2.1663      2.00000
    179      -2.1336      2.00000
    180      -2.1335      2.00000
    181      -2.1297      2.00000
    182      -2.1207      2.00000
    183      -2.0611      2.00000
    184      -2.0327      2.00000
    185      -2.0327      2.00000
    186      -2.0270      2.00000
    187      -2.0070      2.00000
    188      -2.0070      2.00000
    189      -1.3196      2.00000
    190      -1.3195      2.00000
    191      -1.3169      2.00000
    192      -1.2571      2.00000
    193      -1.2539      2.00000
    194      -1.2538      2.00000
    195      -0.1418      2.00000
    196      -0.1121      2.00000
    197      -0.1121      2.00000
    198       0.1029      2.00000
    199       0.4797      2.00000
    200       0.5152      2.00000
    201       0.5153      2.00000
    202       0.5406      2.88686
    203       0.5406      2.06159
    204       1.1057      0.00000
    205       1.1057      0.00000
    206       1.2378      0.00000
    207       2.0207      0.00000
    208       2.6930      0.00000
    209       2.7362      0.00000
    210       2.7362      0.00000
    211       2.8933      0.00000
    212       2.8933      0.00000
    213       4.0481      0.00000
    214       4.0634      0.00000
    215       4.2891      0.00000
    216       4.2892      0.00000
    217       4.3341      0.00000
    218       4.3341      0.00000
    219       4.3562      0.00000
    220       5.0531      0.00000
    221       5.0683      0.00000
    222       5.0901      0.00000
    223       5.0901      0.00000
    224       5.1024      0.00000
    225       5.1024      0.00000
    226       5.1780      0.00000
    227       5.1780      0.00000
    228       5.2903      0.00000
    229       5.3258      0.00000
    230       5.3327      0.00000
    231       5.3327      0.00000
    232       5.3422      0.00000
    233       5.8078      0.00000
    234       6.5818      0.00000
    235       6.6974      0.00000
    236       6.6974      0.00000
    237       6.7222      0.00000
    238       6.8417      0.00000
    239       6.8525      0.00000
    240       6.8525      0.00000
    241       7.0557      0.00000
    242       7.0558      0.00000
    243       7.0664      0.00000
    244       7.1249      0.00000
    245       7.1251      0.00000
    246       7.1585      0.00000
    247       7.2437      0.00000
    248       7.3480      0.00000
    249       7.3592      0.00000
    250       7.3608      0.00000
    251       7.4548      0.00000
    252       7.4602      0.00000

 k-point     2 :       0.1250   -0.0000    0.0000
  band No.  band energies     occupation 
      1     -18.4001      2.00000
      2      -6.3189      2.00000
      3      -5.5660      2.00000
      4      -5.3391      2.00000
      5      -5.2174      2.00000
      6      -5.1344      2.00000
      7      -5.1012      2.00000
      8      -5.0720      2.00000
      9      -5.0445      2.00000
     10      -5.0216      2.00000
     11      -5.0150      2.00000
     12      -5.0089      2.00000
     13      -4.9907      2.00000
     14      -4.9870      2.00000
     15      -4.9624      2.00000
     16      -4.9397      2.00000
     17      -4.9277      2.00000
     18      -4.9140      2.00000
     19      -4.9076      2.00000
     20      -4.8905      2.00000
     21      -4.8083      2.00000
     22      -4.7862      2.00000
     23      -4.7752      2.00000
     24      -4.7202      2.00000
     25      -4.7099      2.00000
     26      -4.7013      2.00000
     27      -4.6817      2.00000
     28      -4.6535      2.00000
     29      -4.6373      2.00000
     30      -4.6212      2.00000
     31      -4.6113      2.00000
     32      -4.5811      2.00000
     33      -4.5779      2.00000
     34      -4.5470      2.00000
     35      -4.5463      2.00000
     36      -4.5298      2.00000
     37      -4.5113      2.00000
     38      -4.4855      2.00000
     39      -4.4676      2.00000
     40      -4.4529      2.00000
     41      -4.4501      2.00000
     42      -4.3993      2.00000
     43      -4.3589      2.00000
     44      -4.3498      2.00000
     45      -4.2993      2.00000
     46      -4.2978      2.00000
     47      -4.2719      2.00000
     48      -4.2496      2.00000
     49      -4.2462      2.00000
     50      -4.2151      2.00000
     51      -4.1973      2.00000
     52      -4.1656      2.00000
     53      -4.1155      2.00000
     54      -4.1096      2.00000
     55      -4.0523      2.00000
     56      -4.0350      2.00000
     57      -4.0293      2.00000
     58      -4.0128      2.00000
     59      -3.8691      2.00000
     60      -3.8562      2.00000
     61      -3.8524      2.00000
     62      -3.8508      2.00000
     63      -3.8304      2.00000
     64      -3.8271      2.00000
     65      -3.8234      2.00000
     66      -3.8204      2.00000
     67      -3.8000      2.00000
     68      -3.7970      2.00000
     69      -3.7583      2.00000
     70      -3.7235      2.00000
     71      -3.6915      2.00000
     72      -3.6910      2.00000
     73      -3.6844      2.00000
     74      -3.6746      2.00000
     75      -3.6559      2.00000
     76      -3.6554      2.00000
     77      -3.6461      2.00000
     78      -3.6460      2.00000
     79      -3.6275      2.00000
     80      -3.6245      2.00000
     81      -3.6078      2.00000
     82      -3.6042      2.00000
     83      -3.6004      2.00000
     84      -3.5731      2.00000
     85      -3.5662      2.00000
     86      -3.5531      2.00000
     87      -3.5401      2.00000
     88      -3.5262      2.00000
     89      -3.5209      2.00000
     90      -3.5178      2.00000
     91      -3.4942      2.00000
     92      -3.4462      2.00000
     93      -3.4428      2.00000
     94      -3.4214      2.00000
     95      -3.4148      2.00000
     96      -3.3777      2.00000
     97      -3.3594      2.00000
     98      -3.2760      2.00000
     99      -3.2464      2.00000
    100      -3.2438      2.00000
    101      -3.2205      2.00000
    102      -3.2185      2.00000
    103      -3.1821      2.00000
    104      -3.1695      2.00000
    105      -3.1550      2.00000
    106      -3.1480      2.00000
    107      -3.1285      2.00000
    108      -3.1195      2.00000
    109      -3.1186      2.00000
    110      -3.0789      2.00000
    111      -3.0600      2.00000
    112      -3.0431      2.00000
    113      -3.0259      2.00000
    114      -3.0134      2.00000
    115      -3.0008      2.00000
    116      -2.9517      2.00000
    117      -2.9352      2.00000
    118      -2.9196      2.00000
    119      -2.9027      2.00000
    120      -2.8935      2.00000
    121      -2.8774      2.00000
    122      -2.8695      2.00000
    123      -2.8358      2.00000
    124      -2.8215      2.00000
    125      -2.8156      2.00000
    126      -2.8125      2.00000
    127      -2.8017      2.00000
    128      -2.7929      2.00000
    129      -2.7889      2.00000
    130      -2.7674      2.00000
    131      -2.7485      2.00000
    132      -2.7349      2.00000
    133      -2.7251      2.00000
    134      -2.7105      2.00000
    135      -2.7069      2.00000
    136      -2.6781      2.00000
    137      -2.6771      2.00000
    138      -2.6631      2.00000
    139      -2.6532      2.00000
    140      -2.6304      2.00000
    141      -2.6190      2.00000
    142      -2.5966      2.00000
    143      -2.5771      2.00000
    144      -2.5433      2.00000
    145      -2.5216      2.00000
    146      -2.5161      2.00000
    147      -2.5061      2.00000
    148      -2.4987      2.00000
    149      -2.4920      2.00000
    150      -2.4727      2.00000
    151      -2.4679      2.00000
    152      -2.4544      2.00000
    153      -2.4510      2.00000
    154      -2.4363      2.00000
    155      -2.4330      2.00000
    156      -2.4248      2.00000
    157      -2.4143      2.00000
    158      -2.4060      2.00000
    159      -2.3986      2.00000
    160      -2.3946      2.00000
    161      -2.3887      2.00000
    162      -2.3744      2.00000
    163      -2.3676      2.00000
    164      -2.3492      2.00000
    165      -2.3481      2.00000
    166      -2.3336      2.00000
    167      -2.3142      2.00000
    168      -2.2938      2.00000
    169      -2.2894      2.00000
    170      -2.2740      2.00000
    171      -2.2588      2.00000
    172      -2.2476      2.00000
    173      -2.2280      2.00000
    174      -2.2156      2.00000
    175      -2.1979      2.00000
    176      -2.1868      2.00000
    177      -2.1784      2.00000
    178      -2.1593      2.00000
    179      -2.1571      2.00000
    180      -2.1501      2.00000
    181      -2.1284      2.00000
    182      -2.1164      2.00000
    183      -2.1131      2.00000
    184      -2.0937      2.00000
    185      -2.0861      2.00000
    186      -1.8286      2.00000
    187      -1.5997      2.00000
    188      -1.5837      2.00000
    189      -1.5267      2.00000
    190      -1.4846      2.00000
    191      -1.3301      2.00000
    192      -0.9349      2.00000
    193      -0.8558      2.00000
    194      -0.6183      2.00000
    195      -0.2538      2.00000
    196      -0.1110      2.00000
    197      -0.0579      2.00000
    198       0.0449      2.00000
    199       0.2089      2.00000
    200       0.2950      2.00000
    201       0.7004      2.00634
    202       0.8311      0.48242
    203       0.9847      0.06867
    204       1.1669      0.00000
    205       1.2253      0.00000
    206       1.3396      0.00000
    207       1.9518      0.00000
    208       2.3093      0.00000
    209       2.5816      0.00000
    210       2.9004      0.00000
    211       3.1318      0.00000
    212       3.2137      0.00000
[...]
  0.000   0.000   0.000   0.000   0.000   0.000   0.000   0.000   0.000   0.000   0.000   0.000   0.000   0.000   0.000   0.000
  0.000   0.000   0.000   0.000   0.000   0.000   0.000   0.000   0.000   0.000   0.000   0.000   0.000   0.000   0.000   0.000
  0.000   0.000   0.000   0.000   0.000   0.000   0.000   0.000   0.000   0.000   0.000   0.000   0.000   0.000   0.000   0.000
  0.000   0.000   0.000   0.000   0.000   0.000   0.000   0.000   0.000   0.000   0.000   0.000   0.000   0.000   0.000   0.000
  0.000   0.000   0.000   0.000   0.000   0.000   0.000   0.000   0.000   0.000   0.000   0.000   0.000   0.000   0.000   0.000
  0.000   0.000   0.000   0.000   0.000   0.000   0.000   0.000   0.000   0.000   1.000   0.000   0.000   0.000   0.000   0.000
  0.000   0.000   0.000   0.000   0.000   0.000   0.000   0.000   0.000   0.000   0.000   0.000   0.000   0.000   0.000   0.000
  0.000   0.000   0.000   0.000   0.000   0.000   0.000   0.000   0.000   0.000   0.000   0.000   0.000   0.000   0.000   0.000
  0.000   0.000   0.000   0.000   0.000   0.000   0.000   0.000   0.000   0.000   0.000   0.000   0.000   0.000   0.000   0.000
  0.000   0.000   0.000   0.000   0.000   0.000   0.000   0.000   0.000   0.000   0.000   0.000   0.000   0.000   0.000   0.000
  0.000   0.000   0.000   0.000   0.000   0.000   0.000   0.000   0.000   0.000   0.000   0.000   0.000   0.000   0.000   0.000
  0.000   0.000   0.000   0.000   0.000   0.000   0.000   0.000   0.000   0.000   0.000   0.000   0.000   0.000   0.000   0.000
  0.000   0.000   0.000   0.000   0.000   0.000   0.000   0.000   0.000   0.000   0.000   0.000   0.000   0.000   0.000   0.000


------------------------ aborting loop because EDIFF is reached ----------------------------------------





 total charge

# of ion       s       p       d       tot
------------------------------------------
    1        0.420   0.200   9.178   9.798
    2        0.416   0.203   9.177   9.797
    3        0.416   0.203   9.177   9.797
    4        0.416   0.203   9.177   9.797
    5        0.419   0.203   9.176   9.798
    6        0.416   0.203   9.177   9.797
    7        0.416   0.203   9.177   9.797
    8        0.416   0.203   9.177   9.797
    9        0.413   0.204   9.177   9.794
   10        0.410   0.268   9.163   9.841
   11        0.406   0.273   9.166   9.844
   12        0.410   0.268   9.163   9.841
   13        0.406   0.273   9.166   9.844
   14        0.406   0.273   9.166   9.844
   15        0.402   0.268   9.167   9.837
   16        0.410   0.268   9.163   9.841
   17        0.402   0.268   9.167   9.837
   18        0.402   0.268   9.167   9.837
   19        0.403   0.265   9.167   9.835
   20        0.437   0.307   9.139   9.882
   21        0.437   0.307   9.139   9.882
   22        0.394   0.272   9.169   9.835
   23        0.437   0.307   9.139   9.882
   24        0.394   0.272   9.169   9.835
   25        0.403   0.265   9.167   9.835
   26        0.403   0.265   9.167   9.835
   27        0.394   0.272   9.169   9.835
   28        0.417   0.196   9.180   9.793
   29        0.404   0.217   9.180   9.801
   30        0.404   0.217   9.180   9.801
   31        0.404   0.217   9.180   9.801
   32        0.404   0.217   9.180   9.801
   33        0.404   0.217   9.180   9.801
   34        0.404   0.217   9.180   9.801
   35        0.410   0.198   9.181   9.788
   36        0.657   0.600   5.980   7.237
   37        1.607   3.268   0.000   4.876
--------------------------------------------------
tot         16.618  12.350 326.927 355.895
 
    CHARGE:  cpu time    0.3356: real time    0.3358
    FORLOC:  cpu time    0.0100: real time    0.0100
    FORNL :  cpu time    1.4868: real time    1.4870
    STRESS:  cpu time    4.4370: real time    4.4376
    FORCOR:  cpu time    0.0437: real time    0.0438
    FORHAR:  cpu time    0.0165: real time    0.0166
    OFIELD:  cpu time    0.0002: real time    0.0002

  FORCE on cell =-STRESS in cart. coord.  units (eV):
  Direction    XX          YY          ZZ          XY          YZ          ZX
  --------------------------------------------------------------------------------------
  Alpha Z   770.02756   770.02756   770.02756
  Ewald  120877.19807120877.19812************     0.00003    -0.00000     0.00004
  Hartree131143.20613131143.20614************     0.00001     0.00000     0.00001
  E(xc)   -2095.64666 -2095.64667 -2100.30816     0.00000     0.00000     0.00000
  Local  ************************263347.25607     0.00043    -0.00005    -0.00016
  n-local  -376.32676  -356.46369  -361.50927    11.91585    -0.17178     0.39977
  augment  3243.84562  3243.84573  3248.99788    -0.00010     0.00002     0.00007
  Kinetic  5020.24704  5022.26245  5015.31753     3.62114     1.03292    -0.17006
  Fock        0.00000     0.00000     0.00000     0.00000     0.00000     0.00000
  -------------------------------------------------------------------------------------
  Total      -6.96863    -6.96863     0.29567    -0.00000    -0.00000    -0.00000
  in kB      -7.52124    -7.52124     0.31912    -0.00000    -0.00000    -0.00000
  external pressure =       -4.91 kB  Pullay stress =        0.00 kB


 VOLUME and BASIS-vectors are now :
 -----------------------------------------------------------------------------
  energy-cutoff  :      500.00
  volume of cell :     1484.46
      direct lattice vectors                 reciprocal lattice vectors
     8.791366577  0.000000000  0.000000000     0.113747958 -0.065672414  0.000000000
     4.395683289  7.613546790  0.000000000     0.000000000  0.131344829  0.000000000
     0.000000000  0.000000000 22.178121567     0.000000000  0.000000000  0.045089481

  length of vectors
     8.791366577  8.791366577 22.178121567     0.131344829  0.131344829  0.045089481


 FORCES acting on ions
    electron-ion (+dipol)            ewald-force                    non-local-force                 convergence-correction
 -----------------------------------------------------------------------------------------------
   0.460E-04 -.282E-04 0.251E+04   -.954E-04 0.593E-04 -.251E+04   0.497E-17 0.257E-17 -.214E+01   -.126E-03 -.180E-03 0.715E-02
   0.534E+00 0.458E+00 0.251E+04   -.580E+00 -.587E+00 -.251E+04   0.582E-01 0.161E+00 -.155E+01   -.116E-01 -.275E-01 0.111E-01
   -.534E+00 0.458E+00 0.251E+04   0.580E+00 -.587E+00 -.251E+04   -.582E-01 0.161E+00 -.155E+01   0.110E-01 -.256E-01 0.118E-01
   0.664E+00 0.233E+00 0.251E+04   -.798E+00 -.208E+00 -.251E+04   0.169E+00 -.303E-01 -.155E+01   -.294E-01 0.394E-02 0.111E-01
   -.583E-05 -.189E-04 0.251E+04   0.980E-04 -.197E-05 -.251E+04   0.205E-17 -.114E-17 -.145E+01   0.630E-02 0.385E-02 -.119E-01
   -.664E+00 0.233E+00 0.251E+04   0.798E+00 -.209E+00 -.251E+04   -.169E+00 -.303E-01 -.155E+01   0.280E-01 0.488E-02 0.120E-01
   0.130E+00 -.692E+00 0.251E+04   -.219E+00 0.796E+00 -.251E+04   0.111E+00 -.131E+00 -.155E+01   -.162E-01 0.229E-01 0.118E-01
   -.130E+00 -.692E+00 0.251E+04   0.219E+00 0.795E+00 -.251E+04   -.111E+00 -.131E+00 -.155E+01   0.178E-01 0.218E-01 0.121E-01
   0.361E-04 -.131E-04 0.251E+04   0.792E-04 -.643E-04 -.251E+04   0.271E-17 -.155E-17 -.183E+01   -.670E-02 -.346E-02 0.128E-01
   0.694E+01 0.400E+01 0.855E+03   -.640E+01 -.369E+01 -.854E+03   -.513E+00 -.296E+00 -.825E+00   -.306E-01 -.176E-01 0.146E+00
   -.286E-04 0.607E+01 0.862E+03   0.410E-04 -.608E+01 -.862E+03   0.699E-12 0.106E+00 -.268E+00   0.644E-02 -.126E+00 0.189E+00
   -.694E+01 0.400E+01 0.855E+03   0.640E+01 -.369E+01 -.854E+03   0.513E+00 -.296E+00 -.825E+00   0.289E-01 -.162E-01 0.147E+00
   0.526E+01 -.303E+01 0.862E+03   -.527E+01 0.304E+01 -.862E+03   0.921E-01 -.532E-01 -.268E+00   -.106E+00 0.685E-01 0.189E+00
   -.526E+01 -.303E+01 0.862E+03   0.527E+01 0.304E+01 -.862E+03   -.921E-01 -.532E-01 -.268E+00   0.117E+00 0.678E-01 0.189E+00
   0.160E-04 0.162E+01 0.855E+03   -.109E-03 -.173E+01 -.855E+03   0.345E-12 0.525E-01 -.680E+00   -.195E-02 0.247E-01 0.147E+00
   -.797E-05 -.801E+01 0.855E+03   0.205E-04 0.739E+01 -.854E+03   0.389E-11 0.592E+00 -.825E+00   0.387E-03 0.330E-01 0.147E+00
   0.140E+01 -.810E+00 0.855E+03   -.150E+01 0.864E+00 -.855E+03   0.455E-01 -.263E-01 -.680E+00   0.204E-01 -.141E-01 0.147E+00
   -.140E+01 -.810E+00 0.855E+03   0.150E+01 0.864E+00 -.855E+03   -.455E-01 -.263E-01 -.680E+00   -.205E-01 -.119E-01 0.147E+00
   0.393E-04 0.218E+01 -.835E+03   -.129E-03 -.230E+01 0.835E+03   0.434E-12 0.661E-01 0.597E+00   -.616E-02 0.256E-01 0.163E+00
   0.136E+02 0.786E+01 -.792E+03   -.123E+02 -.711E+01 0.793E+03   -.142E+01 -.819E+00 -.109E+01   0.834E-01 0.482E-01 0.372E+00
   -.136E+02 0.786E+01 -.792E+03   0.123E+02 -.711E+01 0.793E+03   0.142E+01 -.819E+00 -.109E+01   -.819E-01 0.496E-01 0.373E+00
   0.303E+01 -.175E+01 -.822E+03   -.346E+01 0.200E+01 0.821E+03   0.431E+00 -.249E+00 0.756E+00   0.252E-01 -.194E-01 0.175E+00
   -.542E-04 -.157E+02 -.792E+03   0.433E-04 0.142E+02 0.793E+03   0.108E-10 0.164E+01 -.109E+01   0.231E-02 -.950E-01 0.373E+00
   -.303E+01 -.175E+01 -.822E+03   0.346E+01 0.200E+01 0.821E+03   -.431E+00 -.249E+00 0.756E+00   -.359E-01 -.206E-01 0.175E+00
   -.189E+01 -.109E+01 -.835E+03   0.199E+01 0.115E+01 0.835E+03   -.572E-01 -.330E-01 0.597E+00   -.281E-01 -.164E-01 0.162E+00
   0.189E+01 -.109E+01 -.835E+03   -.199E+01 0.115E+01 0.835E+03   0.572E-01 -.330E-01 0.597E+00   0.188E-01 -.182E-01 0.163E+00
   0.206E-04 0.350E+01 -.822E+03   0.110E-03 -.399E+01 0.821E+03   0.327E-11 0.497E+00 0.756E+00   -.488E-02 0.316E-01 0.175E+00
   0.539E-04 -.364E-04 -.248E+04   -.115E-03 0.779E-04 0.248E+04   0.365E-17 0.412E-17 0.178E+01   0.114E-02 0.522E-03 0.659E-01
   0.261E+02 0.467E+02 -.247E+04   -.262E+02 -.470E+02 0.247E+04   -.273E+00 -.228E+00 0.204E+01   0.119E+00 0.183E+00 0.104E+00
   -.261E+02 0.467E+02 -.247E+04   0.262E+02 -.470E+02 0.247E+04   0.273E+00 -.228E+00 0.204E+01   -.130E+00 0.185E+00 0.104E+00
   0.535E+02 -.733E+00 -.247E+04   -.538E+02 0.862E+00 0.247E+04   -.334E+00 -.123E+00 0.204E+01   0.218E+00 0.119E-01 0.104E+00
   -.535E+02 -.733E+00 -.247E+04   0.538E+02 0.862E+00 0.247E+04   0.334E+00 -.123E+00 0.204E+01   -.230E+00 0.127E-01 0.103E+00
   0.274E+02 -.460E+02 -.247E+04   -.277E+02 0.462E+02 0.247E+04   -.606E-01 0.351E+00 0.204E+01   0.958E-01 -.204E+00 0.104E+00
   -.274E+02 -.460E+02 -.247E+04   0.277E+02 0.462E+02 0.247E+04   0.606E-01 0.351E+00 0.204E+01   -.104E+00 -.205E+00 0.103E+00
   0.220E-04 -.119E-04 -.248E+04   0.106E-03 -.659E-04 0.248E+04   0.341E-17 -.105E-20 0.196E+01   -.552E-02 -.276E-02 0.103E+00
   -.123E-05 -.163E-04 -.153E+04   0.774E-04 0.978E-05 0.153E+04   0.162E-16 0.534E-19 0.183E+01   0.287E-02 0.171E-02 0.156E+00
   0.182E-03 -.990E-04 -.165E+04   0.294E-04 0.427E-06 0.168E+04   -.120E-17 -.164E-17 -.329E+02   0.396E-02 0.241E-02 -.270E+00
 -----------------------------------------------------------------------------------------------
   0.563E-03 -.784E-03 0.302E+02   0.136E-13 -.446E-13 -.273E-11   -.169E-15 -.158E-17 -.344E+02   -.423E-01 -.211E-01 0.433E+01
 
 
 POSITION                                       TOTAL-FORCE (eV/Angst)
 -----------------------------------------------------------------------------------
      0.00000      0.00000      5.28219         0.000000     -0.000000     -0.029402
      2.93046      0.00000      5.28219         0.001762      0.006322      0.031804
      5.86091      0.00000      5.28219        -0.001762      0.006322      0.031804
      1.46523      2.53785      5.28219         0.006356     -0.001636      0.031804
      4.39568      2.53785      5.28219         0.000000      0.000000      0.016130
      7.32614      2.53785      5.28219        -0.006356     -0.001636      0.031804
      2.93046      5.07570      5.28219         0.004595     -0.004687      0.031804
      5.86091      5.07570      5.28219        -0.004595     -0.004687      0.031804
      8.79137      5.07570      5.28219         0.000000     -0.000000     -0.001579
      1.46523      0.84595      7.67490        -0.001608     -0.000928      0.002470
      4.39568      0.84595      7.67490        -0.000000     -0.032557     -0.073247
      7.32614      0.84595      7.67490         0.001608     -0.000928      0.002470
      2.93046      3.38380      7.67490        -0.028196      0.016279     -0.073247
      5.86091      3.38380      7.67490         0.028196      0.016279     -0.073247
      8.79137      3.38380      7.67490        -0.000000     -0.031405      0.004507
      4.39568      5.92165      7.67490         0.000000      0.001856      0.002470
      7.32614      5.92165      7.67490        -0.027197      0.015702      0.004507
     10.25659      5.92165      7.67490         0.027197      0.015702      0.004507
      8.79137      1.69824     10.07044        -0.000000     -0.023385     -0.021601
      2.93075      1.69207     10.02201        -0.032898     -0.018994     -0.143088
      5.86061      1.69207     10.02201         0.032898     -0.018994     -0.143088
     10.25044      4.23330     10.05478         0.031185     -0.018005     -0.021641
      4.39568      4.22940     10.02201         0.000000      0.037987     -0.143088
      7.33230      4.23330     10.05478        -0.031185     -0.018005     -0.021641
     11.71633      6.76443     10.07044         0.020252      0.011692     -0.021601
      5.86640      6.76443     10.07044        -0.020252      0.011692     -0.021601
      8.79137      6.76048     10.05478         0.000000      0.036009     -0.021641
      0.00000      0.00000     12.42728         0.000000     -0.000000      0.031979
      2.96092      0.05748     12.44843        -0.194217     -0.376524     -0.177474
      5.83045      0.05748     12.44843         0.194217     -0.376524     -0.177474
      1.53024      2.53549     12.44843        -0.423188      0.020065     -0.177474
      7.26113      2.53549     12.44843         0.423188      0.020065     -0.177474
      2.96500      5.02058     12.44843        -0.228971      0.356459     -0.177474
      5.82636      5.02058     12.44843         0.228971      0.356459     -0.177474
      8.79137      5.07570     12.42122         0.000000     -0.000000      0.059116
      4.39568      2.53785     12.20312         0.000000     -0.000000      1.613649
      4.39568      2.53785     13.94209         0.000000      0.000000     -0.058077
 -----------------------------------------------------------------------------------
    total drift:                               -0.041735     -0.021875      0.104241


--------------------------------------------------------------------------------------------------------



  FREE ENERGIE OF THE ION-ELECTRON SYSTEM (eV)
  ---------------------------------------------------
  free  energy   TOTEN  =      -104.21748247 eV

  energy  without entropy=     -104.21748247  energy(sigma->0) =     -104.21748247
 


--------------------------------------------------------------------------------------------------------


    POTLOK:  cpu time    0.0430: real time    0.0430


--------------------------------------------------------------------------------------------------------


 stress matrix after NEB project (eV)
     -6.96863     -0.00000     -0.00000
     -0.00000     -6.96863     -0.00000
     -0.00000     -0.00000      0.29567
  FORCES: max atom, RMS     0.058077    0.009548
  FORCE total and by dimension    0.058077    0.058077
  Stress total and by dimension    9.859560    6.968626
     LOOP+:  cpu time   63.9399: real time   63.9559
 -----------------------------------------------------------------------------
|                                                                             |
|           W    W    AA    RRRRR   N    N  II  N    N   GGGG   !!!           |
|           W    W   A  A   R    R  NN   N  II  NN   N  G    G  !!!           |
|           W    W  A    A  R    R  N N  N  II  N N  N  G       !!!           |
|           W WW W  AAAAAA  RRRRR   N  N N  II  N  N N  G  GGG   !            |
|           WW  WW  A    A  R   R   N   NN  II  N   NN  G    G                |
|           W    W  A    A  R    R  N    N  II  N    N   GGGG   !!!           |
|                                                                             |
|     Tetrahedron method does not include variations of the Fermi             |
|     occupations, so forces and stress will be inaccurate. We suggest        |
|     using a different smearing scheme ISMEAR = 1 or 2 for metals in         |
|     relaxations.                                                            |
|                                                                             |
 -----------------------------------------------------------------------------

    4ORBIT:  cpu time    0.0000: real time    0.0000



 total charge

# of ion       s       p       d       tot
------------------------------------------
    1        0.420   0.200   9.178   9.798
    2        0.416   0.203   9.177   9.797
    3        0.416   0.203   9.177   9.797
    4        0.416   0.203   9.177   9.797
    5        0.419   0.203   9.176   9.798
    6        0.416   0.203   9.177   9.797
    7        0.416   0.203   9.177   9.797
    8        0.416   0.203   9.177   9.797
    9        0.413   0.204   9.177   9.794
   10        0.410   0.268   9.163   9.841
   11        0.406   0.273   9.166   9.844
   12        0.410   0.268   9.163   9.841
   13        0.406   0.273   9.166   9.844
   14        0.406   0.273   9.166   9.844
   15        0.402   0.268   9.167   9.837
   16        0.410   0.268   9.163   9.841
   17        0.402   0.268   9.167   9.837
   18        0.402   0.268   9.167   9.837
   19        0.403   0.265   9.167   9.835
   20        0.437   0.307   9.139   9.882
   21        0.437   0.307   9.139   9.882
   22        0.394   0.272   9.169   9.835
   23        0.437   0.307   9.139   9.882
   24        0.394   0.272   9.169   9.835
   25        0.403   0.265   9.167   9.835
   26        0.403   0.265   9.167   9.835
   27        0.394   0.272   9.169   9.835
   28        0.417   0.196   9.180   9.793
   29        0.404   0.217   9.180   9.801
   30        0.404   0.217   9.180   9.801
   31        0.404   0.217   9.180   9.801
   32        0.404   0.217   9.180   9.801
   33        0.404   0.217   9.180   9.801
   34        0.404   0.217   9.180   9.801
   35        0.410   0.198   9.181   9.788
   36        0.657   0.600   5.980   7.237
   37        1.607   3.268   0.000   4.876
--------------------------------------------------
tot         16.618  12.350 326.927 355.895
 
 BZINTS: Fermi energy:    0.825741;  399.000000 electrons
         Band energy:-0.133371E+04;  BLOECHL correction:   -0.046456

 total amount of memory used by VASP MPI-rank0   123501. kBytes
=======================================================================

   base      :      30000. kBytes
   nonlr-proj:      15398. kBytes
   fftplans  :       4330. kBytes
   grid      :      17879. kBytes
   one-center:        575. kBytes
   wavefun   :      55319. kBytes
 
  
  
 General timing and accounting informations for this job:
 ========================================================
  
                  Total CPU time used (sec):       71.250
                            User time (sec):       68.506
                          System time (sec):        2.744
                         Elapsed time (sec):       71.841
  
                   Maximum memory used (kb):      380536.
                   Average memory used (kb):          N/A
  
                          Minor page faults:        62599
                          Major page faults:            0
                 Voluntary context switches:         5691
