PROCAR new format
# of k-points:   10         # of bands:  252         # of ions:   37

 k-point     1 :    0.00000000 0.00000000 0.00000000     weight = 0.01562500

band     1 # energy  -18.40013574 # occ.  2.00000000
 
ion      s      p      d    tot
    1  0.000  0.000  0.000  0.000
    2  0.000  0.000  0.000  0.000
    3  0.000  0.000  0.000  0.000
    4  0.000  0.000  0.000  0.000
    5  0.000  0.000  0.000  0.000
    6  0.000  0.000  0.000  0.000
    7  0.000  0.000  0.000  0.000
    8  0.000  0.000  0.000  0.000
    9  0.000  0.000  0.000  0.000
   10  0.000  0.000  0.000  0.000
   11  0.000  0.000  0.000  0.000
   12  0.000  0.000  0.000  0.000
   13  0.000  0.000  0.000  0.000
   14  0.000  0.000  0.000  0.000
   15  0.000  0.000  0.000  0.000
   16  0.000  0.000  0.000  0.000
   17  0.000  0.000  0.000  0.000
   18  0.000  0.000  0.000  0.000
   19  0.000  0.000  0.000  0.000
   20  0.000  0.000  0.000  0.000
   21  0.000  0.000  0.000  0.000
   22  0.000  0.000  0.000  0.000
   23  0.000  0.000  0.000  0.000
   24  0.000  0.000  0.000  0.000
   25  0.000  0.000  0.000  0.000
   26  0.000  0.000  0.000  0.000
   27  0.000  0.000  0.000  0.000
   28  0.000  0.000  0.000  0.000
   29  0.000  0.000  0.000  0.000
   30  0.000  0.000  0.000  0.000
   31  0.000  0.000  0.000  0.000
   32  0.000  0.000  0.000  0.000
   33  0.000  0.000  0.000  0.000
   34  0.000  0.000  0.000  0.000
   35  0.000  0.000  0.000  0.000
   36  0.045  0.053  0.104  0.202
   37  0.761  0.018  0.000  0.778
tot    0.806  0.071  0.104  0.981
 
band     2 # energy   -6.36334005 # occ.  2.00000000
 
ion      s      p      d    tot
    1  0.005  0.001  0.000  0.006
    2  0.005  0.000  0.000  0.005
    3  0.005  0.000  0.000  0.005
    4  0.005  0.000  0.000  0.005
    5  0.005  0.000  0.000  0.005
    6  0.005  0.000  0.000  0.005
    7  0.005  0.000  0.000  0.005
    8  0.005  0.000  0.000  0.005
    9  0.005  0.000  0.000  0.005
   10  0.020  0.000  0.000  0.021
   11  0.021  0.000  0.000  0.021
   12  0.020  0.000  0.000  0.021
   13  0.021  0.000  0.000  0.021
   14  0.021  0.000  0.000  0.021
   15  0.019  0.000  0.000  0.020
   16  0.020  0.000  0.000  0.021
   17  0.019  0.000  0.000  0.020
   18  0.019  0.000  0.000  0.020
   19  0.021  0.000  0.001  0.022
   20  0.030  0.000  0.002  0.032
   21  0.030  0.000  0.002  0.032
   22  0.022  0.000  0.000  0.023
   23  0.030  0.000  0.002  0.032
   24  0.022  0.000  0.000  0.023
   25  0.021  0.000  0.001  0.022
   26  0.021  0.000  0.001  0.022
   27  0.022  0.000  0.000  0.023
   28  0.006  0.001  0.000  0.006
   29  0.007  0.001  0.000  0.008
   30  0.007  0.001  0.000  0.008
   31  0.007  0.001  0.000  0.008
   32  0.007  0.001  0.000  0.008
   33  0.007  0.001  0.000  0.008
   34  0.007  0.001  0.000  0.008
   35  0.006  0.001  0.000  0.006
   36  0.026  0.002  0.001  0.029
   37  0.002  0.008  0.000  0.010
tot    0.525  0.021  0.012  0.558
 
band     3 # energy   -5.58432840 # occ.  2.00000000
 
ion      s      p      d    tot
    1  0.004  0.000  0.001  0.005
    2  0.007  0.000  0.000  0.007
    3  0.007  0.000  0.000  0.007
    4  0.007  0.000  0.000  0.007
    5  0.007  0.000  0.000  0.008
    6  0.007  0.000  0.000  0.007
    7  0.007  0.000  0.000  0.007
    8  0.007  0.000  0.000  0.007
    9  0.008  0.001  0.000  0.009
   10  0.007  0.001  0.013  0.021
   11  0.011  0.000  0.005  0.016
   12  0.007  0.001  0.013  0.021
   13  0.011  0.000  0.005  0.016
   14  0.011  0.000  0.005  0.016
   15  0.014  0.000  0.004  0.018
   16  0.007  0.001  0.013  0.021
   17  0.014  0.000  0.004  0.018
   18  0.014  0.000  0.004  0.018
   19  0.001  0.000  0.010  0.012
   20  0.013  0.004  0.041  0.058
   21  0.013  0.004  0.041  0.058
   22  0.000  0.001  0.005  0.006
   23  0.013  0.004  0.041  0.058
   24  0.000  0.001  0.005  0.006
   25  0.001  0.000  0.010  0.012
   26  0.001  0.000  0.010  0.012
   27  0.000  0.001  0.005  0.006
   28  0.001  0.000  0.001  0.001
   29  0.002  0.000  0.002  0.004
   30  0.002  0.000  0.002  0.004
   31  0.002  0.000  0.002  0.004
   32  0.002  0.000  0.002  0.004
   33  0.002  0.000  0.002  0.004
   34  0.002  0.000  0.002  0.004
   35  0.000  0.000  0.000  0.001
   36  0.067  0.001  0.063  0.131
   37  0.015  0.111  0.000  0.126
tot    0.295  0.135  0.312  0.742
 
band     4 # energy   -5.36244385 # occ.  2.00000000
 
ion      s      p      d    tot
    1  0.008  0.001  0.000  0.008
    2  0.004  0.000  0.001  0.005
    3  0.004  0.000  0.001  0.005
    4  0.004  0.000  0.001  0.005
    5  0.003  0.000  0.000  0.003
    6  0.004  0.000  0.001  0.005
    7  0.004  0.000  0.001  0.005
    8  0.004  0.000  0.001  0.005
    9  0.003  0.000  0.000  0.003
   10  0.008  0.000  0.003  0.011
   11  0.003  0.001  0.009  0.013
   12  0.008  0.000  0.003  0.011
   13  0.003  0.001  0.009  0.013
   14  0.003  0.001  0.009  0.013
   15  0.002  0.001  0.008  0.011
   16  0.008  0.000  0.003  0.011
   17  0.002  0.001  0.008  0.011
   18  0.002  0.001  0.008  0.011
   19  0.005  0.001  0.010  0.016
   20  0.000  0.001  0.049  0.050
   21  0.000  0.001  0.049  0.050
   22  0.015  0.001  0.006  0.022
   23  0.000  0.001  0.049  0.050
   24  0.015  0.001  0.006  0.022
   25  0.005  0.001  0.010  0.016
   26  0.005  0.001  0.010  0.016
   27  0.015  0.001  0.006  0.022
   28  0.009  0.000  0.000  0.010
   29  0.010  0.000  0.002  0.012
   30  0.010  0.000  0.002  0.012
   31  0.010  0.000  0.002  0.012
   32  0.010  0.000  0.002  0.012
   33  0.010  0.000  0.002  0.012
   34  0.010  0.000  0.002  0.012
   35  0.013  0.001  0.000  0.014
   36  0.002  0.001  0.130  0.132
   37  0.007  0.105  0.000  0.113
tot    0.225  0.123  0.403  0.752
 
band     5 # energy   -5.24115249 # occ.  2.00000000
 
ion      s      p      d    tot
    1  0.001  0.000  0.009  0.010
    2  0.002  0.000  0.005  0.007
    3  0.002  0.000  0.005  0.007
    4  0.002  0.000  0.005  0.007
    5  0.002  0.000  0.003  0.005
    6  0.002  0.000  0.004  0.007
    7  0.002  0.000  0.005  0.007
    8  0.002  0.000  0.004  0.007
    9  0.004  0.000  0.003  0.008
   10  0.001  0.000  0.018  0.019
   11  0.001  0.000  0.015  0.016
   12  0.001  0.000  0.018  0.019
   13  0.001  0.000  0.015  0.016
   14  0.001  0.000  0.015  0.016
   15  0.000  0.000  0.012  0.012
   16  0.001  0.000  0.018  0.019
   17  0.000  0.000  0.012  0.012
   18  0.000  0.000  0.012  0.012
   19  0.006  0.000  0.020  0.026
   20  0.000  0.001  0.057  0.058
   21  0.000  0.001  0.057  0.058
   22  0.004  0.000  0.020  0.023
   23  0.000  0.001  0.057  0.058
   24  0.004  0.000  0.020  0.023
   25  0.006  0.000  0.020  0.026
   26  0.006  0.000  0.020  0.026
   27  0.004  0.000  0.020  0.023
   28  0.002  0.000  0.014  0.016
   29  0.008  0.000  0.023  0.032
   30  0.008  0.000  0.023  0.032
   31  0.008  0.000  0.023  0.032
   32  0.008  0.000  0.023  0.031
   33  0.008  0.000  0.023  0.032
   34  0.008  0.000  0.023  0.031
   35  0.003  0.000  0.012  0.015
   36  0.038  0.001  0.025  0.064
   37  0.000  0.000  0.000  0.001
tot    0.149  0.007  0.656  0.812
 
band     6 # energy   -5.10974883 # occ.  2.00000000
 
ion      s      p      d    tot
    1  0.000  0.000  0.006  0.006
    2  0.000  0.000  0.002  0.002
    3  0.000  0.000  0.002  0.002
    4  0.000  0.000  0.002  0.002
    5  0.000  0.000  0.002  0.002
    6  0.001  0.000  0.001  0.002
    7  0.000  0.000  0.002  0.002
    8  0.001  0.000  0.001  0.002
    9  0.000  0.000  0.001  0.001
   10  0.010  0.001  0.013  0.025
   11  0.001  0.001  0.022  0.023
   12  0.003  0.001  0.014  0.018
   13  0.001  0.001  0.021  0.023
   14  0.002  0.000  0.010  0.013
   15  0.000  0.000  0.008  0.009
   16  0.002  0.001  0.015  0.018
   17  0.000  0.000  0.008  0.009
   18  0.001  0.000  0.007  0.009
   19  0.003  0.001  0.015  0.019
   20  0.034  0.000  0.017  0.051
   21  0.009  0.000  0.088  0.097
   22  0.000  0.001  0.036  0.037
   23  0.008  0.000  0.089  0.098
   24  0.002  0.000  0.017  0.019
   25  0.013  0.000  0.027  0.040
   26  0.003  0.001  0.015  0.019
   27  0.000  0.001  0.037  0.038
   28  0.000  0.000  0.002  0.003
   29  0.000  0.001  0.012  0.013
   30  0.000  0.000  0.006  0.006
   31  0.000  0.001  0.012  0.014
   32  0.000  0.000  0.013  0.013
   33  0.000  0.000  0.006  0.006
   34  0.000  0.000  0.013  0.013
   35  0.000  0.000  0.001  0.001
   36  0.000  0.000  0.093  0.093
   37  0.000  0.056  0.000  0.056
tot    0.097  0.070  0.637  0.804
 
band     7 # energy   -5.10973112 # occ.  2.00000000
 
ion      s      p      d    tot
    1  0.000  0.000  0.006  0.006
    2  0.001  0.000  0.001  0.002
    3  0.000  0.000  0.002  0.002
    4  0.001  0.000  0.001  0.002
    5  0.000  0.000  0.002  0.002
    6  0.000  0.000  0.002  0.002
    7  0.000  0.000  0.002  0.002
    8  0.000  0.000  0.002  0.002
    9  0.000  0.000  0.001  0.001
   10  0.000  0.000  0.015  0.015
   11  0.002  0.000  0.014  0.016
   12  0.007  0.001  0.014  0.022
   13  0.002  0.000  0.014  0.016
   14  0.000  0.001  0.025  0.026
   15  0.001  0.000  0.007  0.009
   16  0.007  0.001  0.014  0.022
   17  0.001  0.000  0.007  0.009
   18  0.000  0.000  0.009  0.009
   19  0.009  0.001  0.023  0.033
   20  0.000  0.000  0.113  0.113
   21  0.026  0.000  0.041  0.067
   22  0.001  0.001  0.024  0.025
   23  0.026  0.000  0.040  0.066
   24  0.000  0.001  0.043  0.043
   25  0.000  0.001  0.011  0.012
   26  0.009  0.001  0.023  0.033
   27  0.001  0.001  0.023  0.025
   28  0.000  0.000  0.002  0.003
   29  0.000  0.000  0.009  0.009
   30  0.000  0.001  0.015  0.016
   31  0.000  0.000  0.008  0.009
   32  0.001  0.001  0.008  0.009
   33  0.000  0.001  0.015  0.016
   34  0.001  0.001  0.008  0.009
   35  0.000  0.000  0.001  0.001
   36  0.000  0.000  0.093  0.093
   37  0.000  0.056  0.000  0.056
tot    0.097  0.070  0.637  0.804
 
band     8 # energy   -5.06222332 # occ.  2.00000000
 
ion      s      p      d    tot
    1  0.018  0.000  0.013  0.031
    2  0.012  0.000  0.026  0.038
    3  0.012  0.000  0.026  0.038
    4  0.012  0.000  0.026  0.038
    5  0.015  0.000  0.034  0.049
    6  0.012  0.000  0.026  0.038
    7  0.012  0.000  0.026  0.038
    8  0.012  0.000  0.026  0.038
    9  0.006  0.000  0.030  0.036
   10  0.000  0.001  0.020  0.021
   11  0.001  0.000  0.032  0.033
   12  0.000  0.001  0.020  0.021
   13  0.001  0.000  0.032  0.033
   14  0.001  0.000  0.032  0.033
   15  0.005  0.000  0.019  0.024
   16  0.000  0.001  0.020  0.021
   17  0.005  0.000  0.019  0.024
   18  0.005  0.000  0.019  0.024
   19  0.005  0.000  0.002  0.007
   20  0.000  0.000  0.020  0.020
   21  0.000  0.000  0.020  0.020
   22  0.000  0.000  0.010  0.011
   23  0.000  0.000  0.020  0.020
   24  0.000  0.000  0.011  0.011
   25  0.005  0.000  0.002  0.007
   26  0.005  0.000  0.002  0.007
   27  0.000  0.000  0.010  0.011
   28  0.001  0.000  0.002  0.004
   29  0.000  0.000  0.010  0.011
   30  0.000  0.000  0.010  0.011
   31  0.000  0.000  0.010  0.011
   32  0.000  0.000  0.010  0.011
   33  0.000  0.000  0.010  0.011
   34  0.000  0.000  0.010  0.011
   35  0.000  0.000  0.000  0.000
   36  0.010  0.001  0.012  0.023
   37  0.000  0.002  0.000  0.002
tot    0.161  0.011  0.615  0.787
 
band     9 # energy   -5.02825951 # occ.  2.00000000
 
ion      s      p      d    tot
    1  0.000  0.000  0.001  0.001
    2  0.001  0.000  0.003  0.004
    3  0.001  0.000  0.003  0.004
    4  0.001  0.000  0.005  0.007
    5  0.000  0.000  0.007  0.008
    6  0.001  0.000  0.005  0.007
    7  0.000  0.000  0.003  0.003
    8  0.000  0.000  0.002  0.003
    9  0.000  0.000  0.004  0.005
   10  0.000  0.001  0.049  0.050
   11  0.024  0.001  0.007  0.032
   12  0.000  0.001  0.051  0.051
   13  0.005  0.000  0.070  0.076
   14  0.007  0.000  0.066  0.073
   15  0.016  0.000  0.033  0.048
   16  0.001  0.000  0.024  0.025
   17  0.003  0.001  0.017  0.021
   18  0.004  0.001  0.018  0.023
   19  0.006  0.001  0.011  0.017
   20  0.001  0.001  0.031  0.033
   21  0.001  0.001  0.030  0.033
   22  0.004  0.001  0.031  0.037
   23  0.005  0.000  0.040  0.045
   24  0.005  0.001  0.030  0.036
   25  0.002  0.000  0.044  0.046
   26  0.001  0.000  0.046  0.048
   27  0.019  0.001  0.015  0.035
   28  0.000  0.000  0.003  0.003
   29  0.001  0.000  0.004  0.004
   30  0.001  0.000  0.003  0.004
   31  0.000  0.000  0.003  0.003
   32  0.000  0.000  0.003  0.003
   33  0.001  0.000  0.004  0.005
   34  0.001  0.000  0.004  0.005
   35  0.000  0.000  0.007  0.007
   36  0.000  0.000  0.003  0.003
   37  0.000  0.000  0.000  0.000
tot    0.113  0.015  0.681  0.809
 
band    10 # energy   -5.02825936 # occ.  2.00000000
 
ion      s      p      d    tot
    1  0.000  0.000  0.001  0.001
    2  0.001  0.000  0.004  0.005
    3  0.001  0.000  0.004  0.005
    4  0.000  0.000  0.002  0.002
    5  0.000  0.000  0.007  0.008
    6  0.000  0.000  0.002  0.002
    7  0.001  0.001  0.005  0.007
    8  0.001  0.001  0.005  0.007
    9  0.000  0.000  0.004  0.005
   10  0.001  0.000  0.034  0.035
   11  0.000  0.000  0.088  0.088
   12  0.001  0.000  0.032  0.033
   13  0.019  0.001  0.025  0.045
   14  0.017  0.001  0.029  0.047
   15  0.000  0.002  0.012  0.014
   16  0.000  0.001  0.058  0.059
   17  0.012  0.001  0.028  0.041
   18  0.011  0.001  0.027  0.039
   19  0.000  0.000  0.057  0.057
   20  0.003  0.001  0.037  0.041
   21  0.004  0.000  0.037  0.041
   22  0.015  0.001  0.020  0.036
   23  0.000  0.001  0.028  0.029
   24  0.014  0.001  0.021  0.036
   25  0.005  0.000  0.023  0.028
   26  0.005  0.000  0.021  0.026
   27  0.000  0.001  0.036  0.037
   28  0.000  0.000  0.003  0.003
   29  0.001  0.000  0.003  0.004
   30  0.001  0.000  0.003  0.004
   31  0.001  0.000  0.004  0.005
   32  0.001  0.000  0.004  0.005
   33  0.000  0.000  0.003  0.003
   34  0.000  0.000  0.003  0.003
   35  0.000  0.000  0.007  0.007
   36  0.000  0.000  0.003  0.003
   37  0.000  0.000  0.000  0.000
tot    0.113  0.015  0.681  0.809
 
band    11 # energy   -5.02118345 # occ.  2.00000000
 
ion      s      p      d    tot
    1  0.001  0.000  0.000  0.002
    2  0.000  0.000  0.006  0.006
    3  0.000  0.000  0.006  0.006
    4  0.000  0.000  0.006  0.006
    5  0.003  0.001  0.006  0.010
    6  0.000  0.000  0.006  0.006
    7  0.000  0.000  0.006  0.006
    8  0.000  0.000  0.006  0.006
    9  0.003  0.000  0.000  0.004
   10  0.005  0.001  0.004  0.010
   11  0.012  0.001  0.031  0.044
   12  0.005  0.001  0.004  0.010
   13  0.012  0.001  0.031  0.044
   14  0.012  0.001  0.031  0.044
   15  0.000  0.000  0.041  0.042
   16  0.005  0.001  0.004  0.010
   17  0.000  0.000  0.041  0.042
   18  0.000  0.000  0.041  0.041
   19  0.012  0.000  0.029  0.042
   20  0.006  0.001  0.017  0.024
   21  0.006  0.001  0.017  0.024
   22  0.002  0.000  0.069  0.071
   23  0.006  0.001  0.017  0.024
   24  0.002  0.000  0.069  0.071
   25  0.013  0.000  0.029  0.042
   26  0.012  0.000  0.029  0.042
   27  0.002  0.000  0.069  0.071
   28  0.007  0.001  0.002  0.010
   29  0.000  0.000  0.004  0.004
   30  0.000  0.000  0.004  0.005
   31  0.000  0.000  0.004  0.004
   32  0.000  0.000  0.004  0.005
   33  0.000  0.000  0.004  0.005
   34  0.000  0.000  0.004  0.005
   35  0.001  0.001  0.013  0.014
   36  0.000  0.000  0.001  0.001
   37  0.000  0.000  0.000  0.000
tot    0.131  0.017  0.653  0.801
 
band    12 # energy   -5.00958416 # occ.  2.00000000
 
ion      s      p      d    tot
    1  0.000  0.000  0.001  0.002
    2  0.001  0.000  0.007  0.008
    3  0.001  0.000  0.007  0.008
    4  0.001  0.000  0.007  0.008
    5  0.001  0.000  0.000  0.001
    6  0.001  0.000  0.007  0.008
    7  0.001  0.000  0.007  0.008
    8  0.001  0.000  0.007  0.008
    9  0.001  0.000  0.014  0.015
   10  0.001  0.000  0.022  0.024
   11  0.003  0.001  0.022  0.026
   12  0.001  0.000  0.022  0.024
   13  0.003  0.001  0.022  0.026
   14  0.003  0.001  0.022  0.026
   15  0.004  0.000  0.060  0.064
   16  0.001  0.000  0.022  0.024
   17  0.004  0.000  0.060  0.064
   18  0.004  0.000  0.060  0.064
   19  0.001  0.001  0.004  0.006
   20  0.000  0.000  0.055  0.056
   21  0.000  0.000  0.055  0.056
   22  0.006  0.001  0.045  0.051
   23  0.000  0.000  0.055  0.056
   24  0.005  0.001  0.045  0.051
   25  0.001  0.001  0.004  0.006
   26  0.001  0.001  0.004  0.006
   27  0.006  0.001  0.045  0.051
   28  0.002  0.000  0.000  0.003
   29  0.001  0.000  0.008  0.010
   30  0.001  0.000  0.008  0.010
   31  0.001  0.000  0.008  0.010
   32  0.001  0.000  0.008  0.010
   33  0.001  0.000  0.008  0.010
   34  0.001  0.000  0.008  0.010
   35  0.001  0.000  0.014  0.016
   36  0.000  0.000  0.004  0.004
   37  0.000  0.005  0.000  0.005
tot    0.068  0.015  0.747  0.830
 
band    13 # energy   -4.98916108 # occ.  2.00000000
 
ion      s      p      d    tot
    1  0.001  0.000  0.029  0.030
    2  0.002  0.000  0.009  0.011
    3  0.002  0.000  0.009  0.011
    4  0.002  0.000  0.009  0.011
    5  0.000  0.000  0.000  0.001
    6  0.002  0.000  0.009  0.011
    7  0.002  0.000  0.009  0.011
    8  0.002  0.000  0.009  0.011
    9  0.007  0.001  0.000  0.008
   10  0.005  0.000  0.080  0.086
   11  0.004  0.000  0.033  0.037
   12  0.005  0.000  0.082  0.087
   13  0.004  0.000  0.033  0.037
   14  0.003  0.000  0.031  0.035
   15  0.006  0.001  0.010  0.016
   16  0.005  0.000  0.082  0.087
   17  0.006  0.001  0.010  0.016
   18  0.007  0.001  0.010  0.017
   19  0.001  0.000  0.025  0.026
   20  0.001  0.001  0.008  0.010
   21  0.001  0.001  0.008  0.010
   22  0.000  0.000  0.025  0.025
   23  0.001  0.001  0.008  0.010
   24  0.000  0.000  0.024  0.024
   25  0.000  0.000  0.026  0.026
   26  0.001  0.000  0.025  0.026
   27  0.000  0.000  0.025  0.025
   28  0.008  0.000  0.011  0.019
   29  0.003  0.000  0.012  0.015
   30  0.003  0.000  0.012  0.015
   31  0.003  0.000  0.012  0.015
   32  0.002  0.000  0.012  0.014
   33  0.003  0.000  0.012  0.015
   34  0.002  0.000  0.012  0.014
   35  0.001  0.000  0.009  0.010
   36  0.001  0.000  0.000  0.001
   37  0.000  0.000  0.000  0.000
tot    0.093  0.009  0.721  0.824
 
band    14 # energy   -4.98667512 # occ.  2.00000000
 
ion      s      p      d    tot
    1  0.000  0.001  0.013  0.014
    2  0.001  0.000  0.007  0.008
    3  0.001  0.001  0.010  0.012
    4  0.001  0.000  0.007  0.008
    5  0.000  0.000  0.007  0.007
    6  0.004  0.001  0.006  0.010
    7  0.001  0.001  0.010  0.012
    8  0.004  0.001  0.006  0.010
    9  0.000  0.000  0.008  0.008
   10  0.000  0.000  0.082  0.083
   11  0.001  0.000  0.036  0.037
   12  0.019  0.000  0.032  0.051
   13  0.001  0.000  0.036  0.038
   14  0.000  0.001  0.007  0.008
   15  0.010  0.000  0.034  0.045
   16  0.018  0.000  0.033  0.051
   17  0.010  0.000  0.033  0.044
   18  0.000  0.000  0.108  0.108
   19  0.002  0.000  0.022  0.024
   20  0.000  0.000  0.026  0.026
   21  0.000  0.001  0.017  0.018
   22  0.005  0.000  0.019  0.023
   23  0.000  0.000  0.017  0.018
   24  0.000  0.000  0.021  0.021
   25  0.000  0.000  0.031  0.031
   26  0.002  0.000  0.022  0.024
   27  0.005  0.000  0.019  0.023
   28  0.000  0.000  0.011  0.011
   29  0.003  0.000  0.004  0.007
   30  0.003  0.001  0.006  0.009
   31  0.003  0.000  0.004  0.007
   32  0.000  0.000  0.004  0.004
   33  0.003  0.001  0.006  0.009
   34  0.000  0.000  0.004  0.004
   35  0.000  0.000  0.003  0.003
   36  0.000  0.000  0.005  0.005
   37  0.000  0.000  0.000  0.000
tot    0.094  0.012  0.716  0.822
 
band    15 # energy   -4.98663790 # occ.  2.00000000
 
ion      s      p      d    tot
    1  0.000  0.001  0.013  0.014
    2  0.003  0.001  0.008  0.012
    3  0.003  0.001  0.005  0.008
    4  0.003  0.001  0.008  0.012
    5  0.000  0.000  0.007  0.007
    6  0.000  0.000  0.010  0.010
    7  0.003  0.001  0.005  0.008
    8  0.000  0.000  0.010  0.010
    9  0.000  0.000  0.008  0.008
   10  0.024  0.000  0.017  0.041
   11  0.000  0.001  0.016  0.017
   12  0.006  0.000  0.066  0.072
   13  0.000  0.001  0.016  0.017
   14  0.002  0.000  0.047  0.049
   15  0.004  0.000  0.083  0.086
   16  0.006  0.000  0.065  0.072
   17  0.003  0.000  0.084  0.087
   18  0.013  0.000  0.009  0.022
   19  0.001  0.000  0.028  0.029
   20  0.001  0.001  0.014  0.015
   21  0.000  0.000  0.023  0.024
   22  0.001  0.000  0.020  0.022
   23  0.000  0.000  0.023  0.024
   24  0.006  0.000  0.018  0.024
   25  0.002  0.000  0.019  0.021
   26  0.000  0.000  0.028  0.029
   27  0.002  0.000  0.020  0.022
   28  0.000  0.000  0.011  0.011
   29  0.001  0.000  0.005  0.006
   30  0.001  0.000  0.003  0.004
   31  0.001  0.000  0.005  0.006
   32  0.003  0.001  0.005  0.009
   33  0.001  0.000  0.003  0.004
   34  0.003  0.001  0.005  0.009
   35  0.000  0.000  0.003  0.003
   36  0.000  0.000  0.005  0.005
   37  0.000  0.000  0.000  0.000
tot    0.094  0.012  0.716  0.822
 
band    16 # energy   -4.97933678 # occ.  2.00000000
 
ion      s      p      d    tot
    1  0.000  0.000  0.006  0.006
    2  0.001  0.000  0.007  0.009
    3  0.000  0.000  0.008  0.008
    4  0.001  0.000  0.007  0.009
    5  0.000  0.000  0.004  0.005
    6  0.002  0.000  0.005  0.007
    7  0.000  0.000  0.008  0.008
    8  0.002  0.000  0.005  0.007
    9  0.000  0.000  0.017  0.017
   10  0.000  0.000  0.037  0.037
   11  0.001  0.000  0.054  0.055
   12  0.000  0.000  0.016  0.016
   13  0.001  0.000  0.053  0.054
   14  0.005  0.000  0.008  0.013
   15  0.001  0.000  0.046  0.047
   16  0.000  0.000  0.016  0.016
   17  0.001  0.000  0.046  0.047
   18  0.004  0.000  0.034  0.038
   19  0.002  0.000  0.065  0.067
   20  0.000  0.000  0.051  0.051
   21  0.000  0.000  0.021  0.021
   22  0.002  0.000  0.052  0.054
   23  0.000  0.000  0.020  0.020
   24  0.008  0.000  0.033  0.041
   25  0.006  0.000  0.006  0.012
   26  0.002  0.000  0.063  0.065
   27  0.002  0.000  0.052  0.054
   28  0.000  0.000  0.005  0.005
   29  0.001  0.000  0.008  0.009
   30  0.002  0.000  0.003  0.005
   31  0.001  0.000  0.008  0.009
   32  0.000  0.000  0.008  0.009
   33  0.002  0.000  0.003  0.005
   34  0.000  0.000  0.008  0.009
   35  0.000  0.000  0.012  0.013
   36  0.000  0.000  0.003  0.003
   37  0.000  0.000  0.000  0.000
tot    0.046  0.006  0.799  0.851
 
band    17 # energy   -4.97928511 # occ.  2.00000000
 
ion      s      p      d    tot
    1  0.000  0.000  0.006  0.006
    2  0.001  0.000  0.006  0.007
    3  0.002  0.000  0.005  0.008
    4  0.001  0.000  0.006  0.007
    5  0.000  0.000  0.004  0.005
    6  0.000  0.000  0.009  0.009
    7  0.002  0.000  0.005  0.008
    8  0.000  0.000  0.009  0.009
    9  0.000  0.000  0.017  0.017
   10  0.000  0.000  0.009  0.009
   11  0.004  0.000  0.022  0.026
   12  0.000  0.000  0.030  0.030
   13  0.004  0.000  0.024  0.027
   14  0.000  0.000  0.069  0.069
   15  0.003  0.000  0.037  0.041
   16  0.000  0.000  0.030  0.030
   17  0.003  0.000  0.038  0.041
   18  0.000  0.000  0.050  0.050
   19  0.005  0.000  0.024  0.029
   20  0.000  0.000  0.010  0.011
   21  0.000  0.000  0.040  0.040
   22  0.006  0.000  0.040  0.045
   23  0.000  0.000  0.041  0.041
   24  0.000  0.000  0.058  0.059
   25  0.000  0.000  0.084  0.084
   26  0.005  0.000  0.026  0.031
   27  0.006  0.000  0.039  0.045
   28  0.000  0.000  0.005  0.005
   29  0.001  0.000  0.005  0.006
   30  0.000  0.000  0.010  0.010
   31  0.001  0.000  0.005  0.006
   32  0.002  0.000  0.005  0.006
   33  0.000  0.000  0.010  0.010
   34  0.002  0.000  0.005  0.007
   35  0.000  0.000  0.012  0.013
   36  0.000  0.000  0.003  0.003
   37  0.000  0.000  0.000  0.000
tot    0.046  0.006  0.799  0.851
 
band    18 # energy   -4.90994669 # occ.  2.00000000
 
ion      s      p      d    tot
    1  0.000  0.000  0.004  0.004
    2  0.002  0.000  0.003  0.005
    3  0.002  0.001  0.004  0.007
    4  0.002  0.000  0.003  0.005
    5  0.000  0.000  0.011  0.011
    6  0.000  0.000  0.004  0.004
    7  0.002  0.001  0.004  0.007
    8  0.000  0.000  0.004  0.004
    9  0.000  0.000  0.004  0.004
   10  0.000  0.000  0.003  0.003
   11  0.003  0.000  0.039  0.042
   12  0.000  0.000  0.012  0.012
   13  0.003  0.000  0.038  0.041
   14  0.000  0.000  0.020  0.020
   15  0.000  0.000  0.016  0.017
   16  0.000  0.000  0.012  0.012
   17  0.000  0.000  0.017  0.017
   18  0.000  0.000  0.021  0.021
   19  0.002  0.000  0.021  0.023
   20  0.000  0.000  0.111  0.111
   21  0.000  0.000  0.083  0.084
   22  0.000  0.000  0.033  0.033
   23  0.000  0.000  0.083  0.083
   24  0.000  0.000  0.054  0.054
   25  0.000  0.000  0.004  0.004
   26  0.002  0.000  0.021  0.023
   27  0.000  0.000  0.032  0.032
   28  0.000  0.000  0.001  0.001
   29  0.001  0.001  0.011  0.013
   30  0.000  0.000  0.009  0.010
   31  0.001  0.001  0.011  0.013
   32  0.001  0.000  0.008  0.010
   33  0.000  0.000  0.009  0.010
   34  0.001  0.000  0.008  0.009
   35  0.000  0.000  0.000  0.000
   36  0.000  0.000  0.063  0.063
   37  0.000  0.051  0.000  0.051
tot    0.022  0.059  0.783  0.865
 
band    19 # energy   -4.90993264 # occ.  2.00000000
 
ion      s      p      d    tot
    1  0.000  0.000  0.004  0.004
    2  0.001  0.000  0.005  0.006
    3  0.000  0.000  0.004  0.004
    4  0.001  0.000  0.005  0.006
    5  0.000  0.000  0.011  0.011
    6  0.002  0.001  0.004  0.007
    7  0.001  0.000  0.004  0.004
    8  0.002  0.001  0.004  0.007
    9  0.000  0.000  0.004  0.004
   10  0.000  0.000  0.015  0.015
   11  0.001  0.000  0.026  0.027
   12  0.000  0.000  0.006  0.006
   13  0.001  0.000  0.027  0.028
   14  0.004  0.000  0.044  0.048
   15  0.000  0.000  0.020  0.020
   16  0.000  0.000  0.006  0.006
   17  0.000  0.000  0.020  0.020
   18  0.000  0.000  0.015  0.015
   19  0.001  0.000  0.010  0.010
   20  0.000  0.000  0.074  0.074
   21  0.000  0.000  0.101  0.101
   22  0.000  0.000  0.047  0.047
   23  0.000  0.000  0.102  0.102
   24  0.000  0.000  0.025  0.025
   25  0.003  0.000  0.026  0.029
   26  0.001  0.000  0.010  0.011
   27  0.000  0.000  0.047  0.047
   28  0.000  0.000  0.001  0.001
   29  0.001  0.000  0.008  0.009
   30  0.001  0.001  0.010  0.012
   31  0.001  0.000  0.008  0.009
   32  0.000  0.001  0.011  0.012
   33  0.001  0.001  0.010  0.012
   34  0.000  0.001  0.011  0.012
   35  0.000  0.000  0.000  0.000
   36  0.000  0.000  0.063  0.063
   37  0.000  0.051  0.000  0.051
tot    0.023  0.059  0.783  0.865
 
band    20 # energy   -4.90339429 # occ.  2.00000000
 
ion      s      p      d    tot
    1  0.002  0.000  0.000  0.002
    2  0.000  0.000  0.008  0.008
    3  0.000  0.000  0.008  0.008
    4  0.000  0.000  0.008  0.008
    5  0.003  0.001  0.006  0.009
    6  0.000  0.000  0.008  0.008
    7  0.000  0.000  0.008  0.008
    8  0.000  0.000  0.008  0.008
    9  0.001  0.000  0.011  0.012
   10  0.003  0.000  0.002  0.005
   11  0.000  0.001  0.058  0.058
   12  0.003  0.000  0.002  0.005
   13  0.000  0.001  0.058  0.058
   14  0.000  0.001  0.058  0.059
   15  0.001  0.001  0.038  0.039
   16  0.003  0.000  0.002  0.005
   17  0.001  0.001  0.038  0.040
   18  0.001  0.001  0.038  0.040
   19  0.001  0.000  0.037  0.038
   20  0.006  0.000  0.030  0.037
   21  0.006  0.000  0.031  0.037
   22  0.006  0.000  0.018  0.025
   23  0.006  0.000  0.031  0.037
   24  0.006  0.000  0.018  0.025
   25  0.001  0.000  0.038  0.039
   26  0.001  0.000  0.037  0.038
   27  0.006  0.000  0.018  0.025
   28  0.001  0.000  0.003  0.004
   29  0.000  0.001  0.015  0.016
   30  0.000  0.001  0.015  0.016
   31  0.000  0.001  0.015  0.016
   32  0.000  0.001  0.015  0.016
   33  0.000  0.001  0.015  0.016
   34  0.000  0.001  0.015  0.016
   35  0.007  0.001  0.002  0.009
   36  0.002  0.001  0.017  0.021
   37  0.002  0.029  0.000  0.031
tot    0.071  0.042  0.730  0.844
 
band    21 # energy   -4.81904172 # occ.  2.00000000
 
ion      s      p      d    tot
    1  0.000  0.000  0.004  0.004
    2  0.000  0.001  0.013  0.013
    3  0.000  0.001  0.013  0.013
    4  0.000  0.001  0.013  0.013
    5  0.004  0.001  0.000  0.005
    6  0.000  0.001  0.012  0.013
    7  0.000  0.001  0.013  0.013
    8  0.000  0.001  0.012  0.013
    9  0.003  0.001  0.001  0.005
   10  0.003  0.001  0.037  0.040
   11  0.000  0.000  0.036  0.036
   12  0.003  0.001  0.037  0.040
   13  0.000  0.000  0.036  0.036
   14  0.000  0.000  0.035  0.036
   15  0.003  0.000  0.015  0.019
   16  0.003  0.001  0.037  0.040
   17  0.003  0.000  0.015  0.019
   18  0.003  0.000  0.015  0.019
   19  0.001  0.000  0.055  0.056
   20  0.001  0.000  0.013  0.014
   21  0.001  0.000  0.013  0.014
   22  0.000  0.001  0.043  0.044
   23  0.001  0.000  0.013  0.014
   24  0.000  0.001  0.043  0.044
   25  0.001  0.000  0.055  0.056
   26  0.001  0.000  0.055  0.056
   27  0.000  0.001  0.043  0.044
   28  0.001  0.000  0.021  0.022
   29  0.001  0.001  0.013  0.014
   30  0.001  0.001  0.013  0.014
   31  0.001  0.001  0.013  0.014
   32  0.001  0.000  0.013  0.014
   33  0.001  0.001  0.013  0.014
   34  0.001  0.000  0.013  0.014
   35  0.009  0.001  0.000  0.011
   36  0.002  0.000  0.001  0.003