PROCAR new format
# of k-points:   10         # of bands:  252         # of ions:   37

 k-point     1 :    0.00000000 0.00000000 0.00000000     weight = 0.01562500

band     1 # energy  -13.01229244 # occ.  2.00000000
 
ion      s      p      d    tot
    1  0.000  0.000  0.000  0.000
    2  0.000  0.000  0.000  0.000
    3  0.000  0.000  0.000  0.000
    4  0.000  0.000  0.000  0.000
    5  0.000  0.000  0.000  0.000
    6  0.000  0.000  0.000  0.000
    7  0.000  0.000  0.000  0.000
    8  0.000  0.000  0.000  0.000
    9  0.000  0.000  0.000  0.000
   10  0.000  0.000  0.000  0.000
   11  0.000  0.000  0.000  0.000
   12  0.000  0.000  0.000  0.000
   13  0.000  0.000  0.000  0.000
   14  0.000  0.000  0.000  0.000
   15  0.000  0.000  0.000  0.000
   16  0.000  0.000  0.000  0.000
   17  0.000  0.000  0.000  0.000
   18  0.000  0.000  0.000  0.000
   19  0.000  0.000  0.000  0.000
   20  0.000  0.000  0.000  0.000
   21  0.000  0.000  0.000  0.000
   22  0.000  0.000  0.000  0.000
   23  0.000  0.000  0.000  0.000
   24  0.000  0.000  0.000  0.000
   25  0.000  0.000  0.000  0.000
   26  0.000  0.000  0.000  0.000
   27  0.000  0.000  0.000  0.000
   28  0.000  0.000  0.000  0.000
   29  0.000  0.000  0.000  0.001
   30  0.000  0.000  0.000  0.001
   31  0.000  0.000  0.000  0.001
   32  0.000  0.000  0.000  0.001
   33  0.000  0.000  0.000  0.001
   34  0.000  0.000  0.000  0.001
   35  0.000  0.000  0.000  0.000
   36  0.082  0.085  0.127  0.294
   37  0.634  0.013  0.000  0.647
tot    0.719  0.100  0.128  0.947
 
band     2 # energy   -8.78393639 # occ.  2.00000000
 
ion      s      p      d    tot
    1  0.007  0.001  0.000  0.008
    2  0.007  0.001  0.000  0.008
    3  0.007  0.001  0.000  0.008
    4  0.007  0.001  0.000  0.008
    5  0.007  0.001  0.000  0.008
    6  0.007  0.001  0.000  0.008
    7  0.007  0.001  0.000  0.008
    8  0.007  0.001  0.000  0.008
    9  0.007  0.001  0.000  0.008
   10  0.025  0.000  0.000  0.025
   11  0.025  0.000  0.000  0.025
   12  0.025  0.000  0.000  0.025
   13  0.025  0.000  0.000  0.025
   14  0.025  0.000  0.000  0.025
   15  0.025  0.000  0.000  0.025
   16  0.025  0.000  0.000  0.025
   17  0.025  0.000  0.000  0.025
   18  0.025  0.000  0.000  0.025
   19  0.025  0.000  0.000  0.025
   20  0.025  0.000  0.000  0.025
   21  0.025  0.000  0.000  0.025
   22  0.024  0.000  0.000  0.025
   23  0.025  0.000  0.000  0.025
   24  0.024  0.000  0.000  0.025
   25  0.025  0.000  0.000  0.025
   26  0.025  0.000  0.000  0.025
   27  0.024  0.000  0.000  0.025
   28  0.006  0.001  0.000  0.007
   29  0.006  0.001  0.000  0.007
   30  0.006  0.001  0.000  0.007
   31  0.006  0.001  0.000  0.007
   32  0.006  0.001  0.000  0.007
   33  0.006  0.001  0.000  0.007
   34  0.006  0.001  0.000  0.007
   35  0.006  0.001  0.000  0.007
   36  0.005  0.003  0.000  0.008
   37  0.002  0.000  0.000  0.002
tot    0.563  0.019  0.001  0.583
 
band     3 # energy   -7.45587717 # occ.  2.00000000
 
ion      s      p      d    tot
    1  0.018  0.001  0.001  0.020
    2  0.018  0.001  0.001  0.020
    3  0.018  0.001  0.001  0.020
    4  0.018  0.001  0.001  0.020
    5  0.018  0.001  0.001  0.020
    6  0.018  0.001  0.001  0.020
    7  0.018  0.001  0.001  0.020
    8  0.018  0.001  0.001  0.020
    9  0.018  0.001  0.001  0.020
   10  0.009  0.002  0.001  0.012
   11  0.010  0.002  0.001  0.012
   12  0.009  0.002  0.001  0.012
   13  0.010  0.002  0.001  0.012
   14  0.010  0.002  0.001  0.012
   15  0.009  0.002  0.001  0.012
   16  0.009  0.002  0.001  0.012
   17  0.009  0.002  0.001  0.012
   18  0.009  0.002  0.001  0.012
   19  0.012  0.002  0.001  0.015
   20  0.010  0.002  0.001  0.013
   21  0.010  0.002  0.001  0.013
   22  0.012  0.002  0.001  0.014
   23  0.010  0.002  0.001  0.013
   24  0.012  0.002  0.001  0.014
   25  0.012  0.002  0.001  0.015
   26  0.012  0.002  0.001  0.015
   27  0.012  0.002  0.001  0.014
   28  0.019  0.001  0.000  0.020
   29  0.017  0.001  0.000  0.018
   30  0.017  0.001  0.000  0.018
   31  0.017  0.001  0.000  0.018
   32  0.017  0.001  0.000  0.018
   33  0.017  0.001  0.000  0.018
   34  0.017  0.001  0.000  0.018
   35  0.019  0.001  0.000  0.020
   36  0.011  0.003  0.003  0.017
   37  0.003  0.000  0.000  0.003
tot    0.505  0.058  0.022  0.585
 
band     4 # energy   -5.87092090 # occ.  2.00000000
 
ion      s      p      d    tot
    1  0.014  0.000  0.004  0.018
    2  0.011  0.000  0.005  0.016
    3  0.011  0.000  0.005  0.016
    4  0.011  0.000  0.005  0.016
    5  0.001  0.001  0.006  0.008
    6  0.011  0.000  0.005  0.016
    7  0.011  0.000  0.005  0.016
    8  0.011  0.000  0.005  0.016
    9  0.025  0.000  0.002  0.028
   10  0.002  0.003  0.004  0.009
   11  0.019  0.006  0.001  0.026
   12  0.002  0.003  0.004  0.009
   13  0.019  0.006  0.001  0.026
   14  0.019  0.006  0.001  0.026
   15  0.001  0.002  0.006  0.008
   16  0.002  0.003  0.004  0.009
   17  0.001  0.002  0.006  0.008
   18  0.001  0.002  0.006  0.008
   19  0.000  0.002  0.007  0.009
   20  0.027  0.006  0.003  0.035
   21  0.027  0.006  0.003  0.035
   22  0.000  0.004  0.004  0.009
   23  0.027  0.006  0.003  0.035
   24  0.000  0.004  0.004  0.009
   25  0.000  0.002  0.007  0.009
   26  0.000  0.002  0.007  0.009
   27  0.000  0.004  0.004  0.009
   28  0.021  0.000  0.003  0.025
   29  0.012  0.001  0.006  0.019
   30  0.012  0.001  0.006  0.019
   31  0.012  0.001  0.006  0.019
   32  0.012  0.001  0.006  0.019
   33  0.012  0.001  0.006  0.019
   34  0.012  0.001  0.006  0.019
   35  0.027  0.000  0.004  0.031
   36  0.000  0.002  0.016  0.019
   37  0.000  0.001  0.000  0.001
tot    0.372  0.083  0.178  0.633
 
band     5 # energy   -5.82036082 # occ.  2.00000000
 
ion      s      p      d    tot
    1  0.000  0.002  0.005  0.007
    2  0.001  0.001  0.002  0.004
    3  0.009  0.002  0.002  0.013
    4  0.001  0.001  0.002  0.003
    5  0.000  0.003  0.004  0.007
    6  0.004  0.001  0.002  0.008
    7  0.009  0.002  0.002  0.013
    8  0.005  0.002  0.002  0.008
    9  0.000  0.000  0.002  0.002
   10  0.000  0.000  0.016  0.016
   11  0.028  0.004  0.006  0.038
   12  0.038  0.004  0.006  0.048
   13  0.028  0.004  0.006  0.037
   14  0.000  0.012  0.005  0.017
   15  0.001  0.003  0.004  0.008
   16  0.039  0.004  0.006  0.049
   17  0.001  0.003  0.004  0.009
   18  0.000  0.008  0.006  0.014
   19  0.013  0.003  0.005  0.022
   20  0.000  0.004  0.016  0.020
   21  0.050  0.004  0.008  0.062
   22  0.011  0.004  0.005  0.020
   23  0.051  0.004  0.008  0.063
   24  0.000  0.003  0.013  0.016
   25  0.000  0.014  0.001  0.015
   26  0.012  0.004  0.005  0.021
   27  0.012  0.004  0.005  0.020
   28  0.000  0.002  0.003  0.005
   29  0.000  0.001  0.002  0.003
   30  0.009  0.002  0.003  0.015
   31  0.000  0.001  0.002  0.003
   32  0.007  0.002  0.003  0.012
   33  0.009  0.002  0.003  0.015
   34  0.007  0.002  0.003  0.012
   35  0.000  0.000  0.003  0.004
   36  0.000  0.006  0.007  0.013
   37  0.000  0.000  0.000  0.000
tot    0.346  0.117  0.181  0.644
 
band     6 # energy   -5.82027433 # occ.  2.00000000
 
ion      s      p      d    tot
    1  0.000  0.002  0.005  0.007
    2  0.009  0.002  0.002  0.013
    3  0.001  0.001  0.002  0.003
    4  0.009  0.002  0.002  0.013
    5  0.000  0.003  0.004  0.007
    6  0.005  0.002  0.002  0.009
    7  0.001  0.001  0.002  0.003
    8  0.005  0.002  0.002  0.008
    9  0.000  0.000  0.002  0.002
   10  0.052  0.005  0.003  0.060
   11  0.009  0.009  0.005  0.023
   12  0.014  0.002  0.012  0.028
   13  0.010  0.009  0.005  0.024
   14  0.037  0.001  0.007  0.044
   15  0.000  0.006  0.006  0.012
   16  0.013  0.001  0.013  0.027
   17  0.000  0.006  0.006  0.012
   18  0.001  0.002  0.004  0.007
   19  0.004  0.011  0.003  0.017
   20  0.068  0.004  0.005  0.077
   21  0.018  0.004  0.013  0.035
   22  0.004  0.003  0.010  0.017
   23  0.016  0.004  0.014  0.034
   24  0.015  0.004  0.003  0.021
   25  0.017  0.000  0.007  0.024
   26  0.004  0.010  0.003  0.017
   27  0.004  0.003  0.010  0.017
   28  0.000  0.002  0.003  0.005
   29  0.011  0.003  0.003  0.017
   30  0.002  0.001  0.002  0.006
   31  0.011  0.003  0.003  0.017
   32  0.004  0.002  0.003  0.008
   33  0.002  0.001  0.002  0.005
   34  0.004  0.001  0.003  0.008
   35  0.000  0.000  0.003  0.004
   36  0.000  0.006  0.007  0.013
   37  0.000  0.000  0.000  0.000
tot    0.346  0.117  0.181  0.644
 
band     7 # energy   -5.78922301 # occ.  2.00000000
 
ion      s      p      d    tot
    1  0.020  0.003  0.001  0.024
    2  0.000  0.002  0.004  0.006
    3  0.000  0.002  0.004  0.006
    4  0.000  0.002  0.004  0.006
    5  0.002  0.000  0.000  0.003
    6  0.000  0.002  0.004  0.006
    7  0.000  0.002  0.004  0.006
    8  0.000  0.002  0.004  0.006
    9  0.009  0.001  0.000  0.011
   10  0.031  0.006  0.005  0.043
   11  0.006  0.000  0.012  0.017
   12  0.031  0.006  0.005  0.042
   13  0.006  0.000  0.012  0.017
   14  0.005  0.000  0.012  0.017
   15  0.010  0.008  0.004  0.022
   16  0.031  0.006  0.005  0.042
   17  0.010  0.008  0.004  0.022
   18  0.011  0.008  0.004  0.022
   19  0.024  0.009  0.002  0.035
   20  0.000  0.003  0.011  0.014
   21  0.000  0.003  0.011  0.014
   22  0.024  0.002  0.009  0.035
   23  0.000  0.003  0.011  0.014
   24  0.023  0.002  0.010  0.035
   25  0.023  0.009  0.002  0.035
   26  0.024  0.009  0.002  0.035
   27  0.024  0.002  0.009  0.035
   28  0.018  0.003  0.001  0.021
   29  0.000  0.002  0.004  0.006
   30  0.000  0.002  0.004  0.006
   31  0.000  0.002  0.004  0.006
   32  0.000  0.002  0.004  0.006
   33  0.000  0.002  0.004  0.006
   34  0.000  0.002  0.004  0.006
   35  0.013  0.002  0.001  0.016
   36  0.000  0.000  0.000  0.000
   37  0.000  0.000  0.000  0.000
tot    0.344  0.114  0.181  0.640
 
band     8 # energy   -5.78359473 # occ.  2.00000000
 
ion      s      p      d    tot
    1  0.000  0.001  0.003  0.004
    2  0.001  0.001  0.002  0.004
    3  0.009  0.002  0.002  0.014
    4  0.001  0.001  0.002  0.004
    5  0.000  0.000  0.004  0.004
    6  0.005  0.002  0.002  0.009
    7  0.009  0.002  0.002  0.014
    8  0.005  0.002  0.002  0.009
    9  0.000  0.003  0.006  0.009
   10  0.009  0.000  0.006  0.015
   11  0.006  0.002  0.011  0.019
   12  0.002  0.010  0.003  0.015
   13  0.006  0.002  0.011  0.019
   14  0.024  0.004  0.002  0.030
   15  0.015  0.005  0.010  0.030
   16  0.002  0.010  0.003  0.015
   17  0.015  0.005  0.010  0.031
   18  0.060  0.003  0.005  0.068
   19  0.011  0.001  0.014  0.026
   20  0.000  0.001  0.005  0.007
   21  0.000  0.008  0.005  0.013
   22  0.012  0.008  0.006  0.027
   23  0.000  0.008  0.005  0.013
   24  0.049  0.002  0.006  0.057
   25  0.047  0.005  0.002  0.054
   26  0.012  0.001  0.014  0.026
   27  0.012  0.008  0.006  0.026
   28  0.000  0.002  0.005  0.007
   29  0.000  0.001  0.002  0.003
   30  0.009  0.002  0.002  0.013
   31  0.000  0.001  0.002  0.003
   32  0.007  0.002  0.003  0.012
   33  0.009  0.002  0.002  0.013
   34  0.007  0.002  0.003  0.012
   35  0.000  0.003  0.005  0.008
   36  0.000  0.001  0.002  0.003
   37  0.000  0.000  0.000  0.000
tot    0.344  0.116  0.178  0.638
 
band     9 # energy   -5.78350304 # occ.  2.00000000
 
ion      s      p      d    tot
    1  0.000  0.001  0.003  0.004
    2  0.009  0.002  0.002  0.014
    3  0.001  0.001  0.002  0.004
    4  0.009  0.002  0.002  0.014
    5  0.000  0.000  0.004  0.004
    6  0.005  0.002  0.002  0.009
    7  0.001  0.001  0.002  0.004
    8  0.005  0.002  0.002  0.009
    9  0.000  0.003  0.006  0.009
   10  0.000  0.013  0.002  0.015
   11  0.018  0.004  0.005  0.026
   12  0.007  0.003  0.005  0.015
   13  0.017  0.003  0.005  0.026
   14  0.000  0.002  0.014  0.016
   15  0.046  0.004  0.007  0.056
   16  0.007  0.003  0.005  0.015
   17  0.045  0.004  0.007  0.056
   18  0.000  0.006  0.012  0.018
   19  0.035  0.004  0.006  0.045
   20  0.000  0.010  0.005  0.015
   21  0.000  0.004  0.005  0.009
   22  0.036  0.004  0.006  0.046
   23  0.000  0.004  0.005  0.009
   24  0.000  0.010  0.006  0.017
   25  0.000  0.000  0.017  0.017
   26  0.035  0.004  0.006  0.045
   27  0.036  0.004  0.006  0.046
   28  0.000  0.002  0.005  0.007
   29  0.011  0.003  0.003  0.016
   30  0.002  0.001  0.003  0.006
   31  0.011  0.003  0.003  0.016
   32  0.004  0.001  0.002  0.007
   33  0.002  0.001  0.003  0.006
   34  0.004  0.001  0.002  0.007
   35  0.000  0.003  0.005  0.008
   36  0.000  0.001  0.002  0.003
   37  0.000  0.000  0.000  0.000
tot    0.344  0.116  0.178  0.638
 
band    10 # energy   -5.72583734 # occ.  2.00000000
 
ion      s      p      d    tot
    1  0.002  0.000  0.003  0.005
    2  0.006  0.001  0.006  0.013
    3  0.006  0.001  0.006  0.013
    4  0.006  0.001  0.006  0.013
    5  0.041  0.002  0.001  0.043
    6  0.006  0.001  0.006  0.013
    7  0.006  0.001  0.006  0.013
    8  0.006  0.001  0.006  0.013
    9  0.000  0.002  0.006  0.008
   10  0.004  0.004  0.008  0.015
   11  0.010  0.007  0.005  0.022
   12  0.004  0.004  0.008  0.015
   13  0.010  0.007  0.005  0.022
   14  0.010  0.007  0.005  0.022
   15  0.028  0.003  0.008  0.039
   16  0.004  0.004  0.008  0.015
   17  0.028  0.003  0.008  0.039
   18  0.028  0.003  0.008  0.039
   19  0.008  0.002  0.007  0.018
   20  0.012  0.004  0.006  0.022
   21  0.012  0.004  0.006  0.022
   22  0.010  0.007  0.003  0.020
   23  0.012  0.004  0.006  0.022
   24  0.010  0.007  0.003  0.020
   25  0.008  0.002  0.007  0.018
   26  0.008  0.002  0.007  0.018
   27  0.010  0.007  0.003  0.020
   28  0.003  0.000  0.005  0.008
   29  0.006  0.001  0.004  0.011
   30  0.006  0.001  0.004  0.011
   31  0.006  0.001  0.004  0.011
   32  0.006  0.001  0.004  0.011
   33  0.006  0.001  0.004  0.011
   34  0.006  0.001  0.004  0.011
   35  0.001  0.001  0.003  0.005
   36  0.020  0.004  0.002  0.026
   37  0.002  0.000  0.000  0.003
tot    0.356  0.101  0.193  0.650
 
band    11 # energy   -5.06684938 # occ.  2.00000000
 
ion      s      p      d    tot
    1  0.008  0.000  0.008  0.016
    2  0.005  0.001  0.009  0.015
    3  0.005  0.001  0.009  0.015
    4  0.005  0.001  0.009  0.015
    5  0.000  0.002  0.009  0.012
    6  0.005  0.001  0.009  0.015
    7  0.005  0.001  0.009  0.015
    8  0.005  0.001  0.009  0.015
    9  0.018  0.000  0.006  0.023
   10  0.006  0.000  0.025  0.030
   11  0.014  0.001  0.020  0.035
   12  0.006  0.000  0.025  0.030
   13  0.014  0.001  0.020  0.035
   14  0.014  0.001  0.020  0.035
   15  0.001  0.000  0.020  0.021
   16  0.006  0.000  0.025  0.030
   17  0.001  0.000  0.020  0.021
   18  0.001  0.000  0.020  0.021
   19  0.002  0.000  0.018  0.020
   20  0.012  0.001  0.028  0.041
   21  0.012  0.001  0.028  0.041
   22  0.002  0.000  0.020  0.023
   23  0.012  0.001  0.028  0.041
   24  0.002  0.000  0.020  0.023
   25  0.002  0.000  0.018  0.020
   26  0.002  0.000  0.018  0.020
   27  0.002  0.000  0.020  0.023
   28  0.005  0.000  0.005  0.010
   29  0.003  0.001  0.008  0.011
   30  0.003  0.001  0.008  0.012
   31  0.003  0.001  0.008  0.011
   32  0.003  0.001  0.008  0.011
   33  0.003  0.001  0.008  0.012
   34  0.003  0.001  0.008  0.011
   35  0.012  0.000  0.005  0.017
   36  0.001  0.003  0.016  0.020
   37  0.000  0.003  0.000  0.003
tot    0.203  0.027  0.541  0.771
 
band    12 # energy   -5.04145488 # occ.  2.00000000
 
ion      s      p      d    tot
    1  0.000  0.001  0.010  0.011
    2  0.007  0.002  0.005  0.014
    3  0.021  0.004  0.005  0.030
    4  0.006  0.002  0.005  0.014
    5  0.000  0.006  0.009  0.015
    6  0.004  0.002  0.005  0.011
    7  0.021  0.004  0.005  0.030
    8  0.004  0.002  0.005  0.011
    9  0.000  0.002  0.012  0.014
   10  0.000  0.001  0.016  0.017
   11  0.018  0.004  0.010  0.031
   12  0.008  0.003  0.011  0.021
   13  0.017  0.004  0.010  0.031
   14  0.000  0.001  0.026  0.027
   15  0.002  0.001  0.010  0.013
   16  0.008  0.003  0.010  0.022
   17  0.002  0.001  0.010  0.013
   18  0.000  0.004  0.019  0.023
   19  0.000  0.001  0.011  0.012
   20  0.000  0.002  0.036  0.038
   21  0.012  0.004  0.013  0.029
   22  0.009  0.004  0.011  0.024
   23  0.013  0.004  0.012  0.029
   24  0.000  0.000  0.014  0.014
   25  0.000  0.003  0.019  0.022
   26  0.000  0.001  0.011  0.012
   27  0.009  0.004  0.011  0.024
   28  0.000  0.001  0.013  0.014
   29  0.009  0.002  0.006  0.017
   30  0.021  0.004  0.006  0.031
   31  0.008  0.002  0.006  0.016
   32  0.003  0.002  0.005  0.010
   33  0.021  0.004  0.006  0.031
   34  0.003  0.002  0.005  0.010
   35  0.000  0.002  0.009  0.011
   36  0.000  0.011  0.005  0.016
   37  0.000  0.000  0.000  0.000
tot    0.227  0.098  0.383  0.708
 
band    13 # energy   -5.04137958 # occ.  2.00000000
 
ion      s      p      d    tot
    1  0.000  0.001  0.010  0.011
    2  0.015  0.003  0.005  0.023
    3  0.000  0.002  0.005  0.007
    4  0.015  0.003  0.005  0.023
    5  0.000  0.006  0.009  0.015
    6  0.017  0.003  0.005  0.026
    7  0.000  0.002  0.005  0.007
    8  0.017  0.003  0.005  0.025
    9  0.000  0.002  0.012  0.014
   10  0.011  0.003  0.009  0.023
   11  0.006  0.002  0.021  0.028
   12  0.003  0.002  0.014  0.019
   13  0.006  0.002  0.020  0.028
   14  0.023  0.005  0.005  0.033
   15  0.001  0.003  0.016  0.020
   16  0.003  0.002  0.015  0.019
   17  0.001  0.003  0.016  0.020
   18  0.002  0.000  0.007  0.010
   19  0.000  0.002  0.017  0.019
   20  0.017  0.004  0.005  0.026
   21  0.004  0.002  0.028  0.035
   22  0.003  0.001  0.013  0.018
   23  0.004  0.002  0.028  0.035
   24  0.012  0.005  0.010  0.027
   25  0.000  0.000  0.008  0.008
   26  0.000  0.002  0.016  0.019
   27  0.003  0.001  0.013  0.017
   28  0.000  0.001  0.013  0.014
   29  0.013  0.003  0.006  0.021
   30  0.000  0.002  0.005  0.007
   31  0.013  0.003  0.006  0.022
   32  0.019  0.003  0.006  0.028
   33  0.001  0.002  0.005  0.008
   34  0.019  0.003  0.006  0.028
   35  0.000  0.002  0.009  0.011
   36  0.000  0.011  0.005  0.016
   37  0.000  0.000  0.000  0.000
tot    0.227  0.098  0.383  0.708
 
band    14 # energy   -5.02286431 # occ.  2.00000000
 
ion      s      p      d    tot
    1  0.035  0.003  0.000  0.039
    2  0.000  0.003  0.010  0.013
    3  0.000  0.003  0.010  0.013
    4  0.000  0.003  0.010  0.013
    5  0.000  0.000  0.000  0.001
    6  0.000  0.003  0.010  0.013
    7  0.000  0.003  0.010  0.013
    8  0.000  0.003  0.010  0.013
    9  0.028  0.003  0.001  0.032
   10  0.009  0.004  0.010  0.023
   11  0.001  0.000  0.016  0.017
   12  0.008  0.004  0.011  0.023
   13  0.001  0.000  0.016  0.017
   14  0.001  0.000  0.015  0.016
   15  0.007  0.003  0.017  0.027
   16  0.008  0.004  0.011  0.023
   17  0.007  0.003  0.017  0.027
   18  0.008  0.003  0.016  0.027
   19  0.005  0.004  0.017  0.026
   20  0.000  0.000  0.018  0.018
   21  0.000  0.000  0.017  0.017
   22  0.011  0.003  0.010  0.024
   23  0.000  0.000  0.017  0.017
   24  0.011  0.003  0.010  0.024
   25  0.004  0.004  0.018  0.026
   26  0.005  0.004  0.017  0.026
   27  0.011  0.003  0.010  0.024
   28  0.037  0.003  0.000  0.040
   29  0.000  0.003  0.010  0.014
   30  0.000  0.003  0.011  0.014
   31  0.000  0.003  0.010  0.014
   32  0.000  0.003  0.011  0.013
   33  0.000  0.003  0.011  0.014
   34  0.000  0.003  0.011  0.013
   35  0.025  0.003  0.001  0.030
   36  0.000  0.000  0.000  0.000
   37  0.000  0.000  0.000  0.000
tot    0.225  0.091  0.390  0.706
 
band    15 # energy   -5.02180602 # occ.  2.00000000
 
ion      s      p      d    tot
    1  0.000  0.005  0.010  0.015
    2  0.007  0.002  0.005  0.014
    3  0.021  0.004  0.005  0.030
    4  0.007  0.002  0.005  0.014
    5  0.000  0.000  0.012  0.012
    6  0.004  0.002  0.005  0.011
    7  0.021  0.004  0.005  0.030
    8  0.004  0.002  0.005  0.011
    9  0.000  0.004  0.008  0.013
   10  0.013  0.002  0.006  0.020
   11  0.000  0.002  0.014  0.016
   12  0.004  0.003  0.021  0.027
   13  0.000  0.002  0.013  0.016
   14  0.001  0.001  0.010  0.012
   15  0.005  0.001  0.017  0.024
   16  0.004  0.003  0.021  0.027
   17  0.005  0.001  0.017  0.024
   18  0.020  0.005  0.007  0.032
   19  0.005  0.001  0.019  0.025
   20  0.003  0.002  0.011  0.016
   21  0.001  0.002  0.015  0.018
   22  0.002  0.003  0.021  0.025
   23  0.001  0.002  0.015  0.018
   24  0.009  0.002  0.005  0.015
   25  0.020  0.006  0.006  0.032
   26  0.005  0.002  0.019  0.025
   27  0.002  0.003  0.021  0.025
   28  0.000  0.005  0.008  0.013
   29  0.008  0.002  0.006  0.017
   30  0.021  0.004  0.005  0.030
   31  0.008  0.002  0.006  0.016
   32  0.003  0.002  0.006  0.011
   33  0.021  0.004  0.005  0.030
   34  0.003  0.002  0.006  0.011
   35  0.000  0.004  0.011  0.015
   36  0.000  0.000  0.009  0.010
   37  0.000  0.000  0.000  0.000
tot    0.227  0.094  0.381  0.702
 
band    16 # energy   -5.02171680 # occ.  2.00000000
 
ion      s      p      d    tot
    1  0.000  0.005  0.010  0.015
    2  0.015  0.003  0.005  0.023
    3  0.000  0.002  0.005  0.007
    4  0.015  0.003  0.005  0.023
    5  0.000  0.000  0.012  0.012
    6  0.017  0.003  0.005  0.026
    7  0.000  0.002  0.005  0.007
    8  0.017  0.003  0.005  0.026
    9  0.000  0.004  0.008  0.013
   10  0.000  0.003  0.026  0.029
   11  0.001  0.001  0.011  0.013
   12  0.010  0.002  0.010  0.023
   13  0.001  0.001  0.011  0.013
   14  0.000  0.003  0.015  0.018
   15  0.015  0.004  0.010  0.030
   16  0.010  0.002  0.010  0.023
   17  0.015  0.004  0.010  0.030
   18  0.000  0.000  0.021  0.021
   19  0.015  0.004  0.010  0.030
   20  0.000  0.002  0.015  0.018
   21  0.002  0.002  0.013  0.017
   22  0.006  0.002  0.010  0.018
   23  0.002  0.002  0.013  0.017
   24  0.000  0.003  0.026  0.029
   25  0.000  0.000  0.023  0.023
   26  0.015  0.004  0.010  0.030
   27  0.006  0.002  0.010  0.018
   28  0.000  0.005  0.008  0.013
   29  0.014  0.003  0.006  0.022
   30  0.000  0.002  0.006  0.008
   31  0.014  0.003  0.006  0.022
   32  0.019  0.003  0.006  0.028
   33  0.000  0.002  0.006  0.008
   34  0.019  0.003  0.006  0.028
   35  0.000  0.004  0.011  0.015
   36  0.000  0.000  0.009  0.010
   37  0.000  0.000  0.000  0.000
tot    0.227  0.094  0.381  0.702
 
band    17 # energy   -4.90721796 # occ.  2.00000000
 
ion      s      p      d    tot
    1  0.008  0.002  0.001  0.011
    2  0.000  0.003  0.010  0.013
    3  0.000  0.003  0.010  0.013
    4  0.000  0.003  0.010  0.013
    5  0.044  0.003  0.000  0.047
    6  0.000  0.003  0.010  0.013
    7  0.000  0.003  0.010  0.013
    8  0.000  0.003  0.010  0.013
    9  0.004  0.001  0.002  0.007
   10  0.002  0.001  0.022  0.026
   11  0.003  0.003  0.019  0.025
   12  0.002  0.001  0.022  0.026
   13  0.003  0.003  0.019  0.025
   14  0.003  0.003  0.019  0.025
   15  0.006  0.001  0.012  0.019
   16  0.002  0.001  0.022  0.026
   17  0.006  0.001  0.012  0.019
   18  0.006  0.001  0.012  0.019
   19  0.012  0.001  0.021  0.033
   20  0.006  0.004  0.014  0.024
   21  0.006  0.004  0.014  0.024
   22  0.004  0.001  0.019  0.024
   23  0.006  0.004  0.014  0.024
   24  0.004  0.001  0.019  0.024
   25  0.012  0.001  0.021  0.033
   26  0.012  0.001  0.021  0.033
   27  0.004  0.001  0.019  0.024
   28  0.001  0.002  0.007  0.010
   29  0.002  0.002  0.011  0.014
   30  0.002  0.002  0.011  0.014
   31  0.002  0.002  0.011  0.014
   32  0.002  0.002  0.011  0.014
   33  0.002  0.002  0.011  0.014
   34  0.002  0.002  0.011  0.014
   35  0.002  0.001  0.004  0.007
   36  0.036  0.007  0.001  0.044
   37  0.003  0.002  0.000  0.005
tot    0.211  0.078  0.464  0.753
 
band    18 # energy   -4.36591636 # occ.  2.00000000
 
ion      s      p      d    tot
    1  0.000  0.003  0.002  0.005
    2  0.008  0.001  0.008  0.017
    3  0.012  0.001  0.008  0.021
    4  0.008  0.001  0.008  0.017
    5  0.000  0.001  0.027  0.028
    6  0.000  0.001  0.007  0.008
    7  0.012  0.001  0.008  0.021
    8  0.000  0.001  0.007  0.008
    9  0.000  0.001  0.015  0.016
   10  0.001  0.006  0.013  0.020
   11  0.000  0.000  0.040  0.040
   12  0.000  0.002  0.018  0.020
   13  0.000  0.000  0.039  0.039
   14  0.000  0.000  0.003  0.003
   15  0.000  0.001  0.013  0.013
   16  0.000  0.002  0.018  0.020
   17  0.000  0.001  0.013  0.014
   18  0.000  0.004  0.016  0.020
   19  0.000  0.001  0.034  0.035
   20  0.002  0.005  0.031  0.037
   21  0.000  0.001  0.019  0.020
   22  0.000  0.000  0.034  0.034
   23  0.000  0.001  0.018  0.020
   24  0.000  0.000  0.007  0.008
   25  0.001  0.003  0.007  0.011
   26  0.000  0.001  0.034  0.035
   27  0.000  0.000  0.034  0.034
   28  0.000  0.003  0.017  0.019
   29  0.019  0.001  0.014  0.034
   30  0.003  0.001  0.012  0.016
   31  0.019  0.001  0.014  0.034
   32  0.007  0.001  0.011  0.018
   33  0.003  0.001  0.012  0.016
   34  0.007  0.001  0.010  0.018
   35  0.000  0.000  0.038  0.038
   36  0.000  0.006  0.015  0.021
   37  0.000  0.013  0.000  0.013
tot    0.104  0.065  0.622  0.791
 
band    19 # energy   -4.36590262 # occ.  2.00000000
 
ion      s      p      d    tot
    1  0.000  0.003  0.002  0.005
    2  0.005  0.001  0.007  0.013
    3  0.002  0.001  0.008  0.010
    4  0.005  0.001  0.007  0.014
    5  0.000  0.001  0.027  0.028
    6  0.013  0.001  0.008  0.023
    7  0.002  0.001  0.008  0.010
    8  0.013  0.001  0.008  0.022
    9  0.000  0.001  0.015  0.016
   10  0.000  0.000  0.019  0.019
   11  0.000  0.000  0.015  0.015
   12  0.001  0.005  0.015  0.020
   13  0.000  0.000  0.015  0.016
   14  0.000  0.000  0.052  0.052
   15  0.000  0.003  0.015  0.018
   16  0.001  0.005  0.014  0.020
   17  0.000  0.003  0.015  0.018
   18  0.000  0.000  0.011  0.012
   19  0.001  0.002  0.016  0.019
   20  0.000  0.000  0.014  0.014
   21  0.001  0.004  0.026  0.032
   22  0.000  0.000  0.016  0.017
   23  0.001  0.004  0.027  0.032
   24  0.000  0.000  0.042  0.042
   25  0.000  0.000  0.043  0.043
   26  0.001  0.002  0.016  0.019
   27  0.000  0.000  0.016  0.016
   28  0.000  0.003  0.017  0.019
   29  0.000  0.001  0.010  0.011
   30  0.016  0.001  0.012  0.029
   31  0.000  0.001  0.010  0.011
   32  0.012  0.001  0.014  0.027
   33  0.016  0.001  0.012  0.030
   34  0.012  0.001  0.014  0.027
   35  0.000  0.000  0.038  0.038
   36  0.000  0.006  0.015  0.021
   37  0.000  0.013  0.000  0.013
tot    0.104  0.065  0.622  0.791
 
band    20 # energy   -4.35073801 # occ.  2.00000000
 
ion      s      p      d    tot
    1  0.000  0.000  0.033  0.033
    2  0.010  0.001  0.010  0.021
    3  0.015  0.001  0.010  0.026
    4  0.009  0.001  0.010  0.020
    5  0.000  0.002  0.003  0.005
    6  0.000  0.001  0.009  0.010
    7  0.014  0.001  0.010  0.025
    8  0.001  0.001  0.009  0.011
    9  0.000  0.002  0.018  0.021
   10  0.000  0.000  0.043  0.043
   11  0.001  0.006  0.017  0.024
   12  0.000  0.001  0.021  0.022
   13  0.001  0.005  0.017  0.023
   14  0.000  0.000  0.007  0.007
   15  0.001  0.002  0.015  0.018
   16  0.000  0.001  0.019  0.020
   17  0.001  0.002  0.018  0.021
   18  0.000  0.000  0.052  0.052
   19  0.000  0.002  0.016  0.018
   20  0.000  0.000  0.074  0.074
   21  0.001  0.000  0.025  0.026
   22  0.001  0.005  0.018  0.024
   23  0.001  0.000  0.021  0.022
   24  0.000  0.000  0.016  0.016
   25  0.000  0.000  0.022  0.022
   26  0.000  0.002  0.016  0.019
   27  0.001  0.005  0.018  0.024
   28  0.000  0.000  0.021  0.021
   29  0.014  0.001  0.011  0.027
   30  0.003  0.001  0.012  0.015
   31  0.014  0.001  0.011  0.027
   32  0.005  0.001  0.009  0.015
   33  0.002  0.001  0.011  0.014
   34  0.004  0.001  0.009  0.014
   35  0.000  0.002  0.001  0.003
   36  0.000  0.002  0.018  0.020
   37  0.000  0.000  0.000  0.000
tot    0.099  0.053  0.648  0.800
 
band    21 # energy   -4.35072232 # occ.  2.00000000
 
ion      s      p      d    tot
    1  0.000  0.000  0.033  0.033
    2  0.006  0.001  0.009  0.017
    3  0.001  0.001  0.009  0.012
    4  0.007  0.001  0.009  0.018
    5  0.000  0.002  0.003  0.005
    6  0.016  0.001  0.010  0.027
    7  0.002  0.001  0.010  0.013
    8  0.015  0.001  0.010  0.027
    9  0.000  0.002  0.019  0.021
   10  0.000  0.001  0.013  0.013
   11  0.000  0.002  0.010  0.012
   12  0.000  0.000  0.034  0.035
   13  0.000  0.002  0.011  0.013
   14  0.001  0.007  0.020  0.029
   15  0.000  0.001  0.041  0.042
   16  0.000  0.000  0.036  0.037
   17  0.000  0.001  0.039  0.040
   18  0.001  0.003  0.005  0.009
   19  0.000  0.001  0.020  0.021
   20  0.001  0.001  0.006  0.008
   21  0.000  0.000  0.055  0.055
   22  0.000  0.002  0.016  0.019
   23  0.000  0.000  0.059  0.059
   24  0.002  0.006  0.019  0.027
   25  0.000  0.003  0.014  0.017
   26  0.000  0.001  0.020  0.021
   27  0.000  0.001  0.016  0.018
   28  0.000  0.000  0.021  0.021
   29  0.000  0.001  0.010  0.011
   30  0.012  0.001  0.010  0.022
   31  0.000  0.001  0.010  0.011
   32  0.009  0.001  0.012  0.023
   33  0.012  0.001  0.010  0.023
   34  0.010  0.001  0.012  0.024
   35  0.000  0.002  0.001  0.003
   36  0.000  0.002  0.018  0.020