PROCAR new format
# of k-points:   10         # of bands:  252         # of ions:   38

 k-point     1 :    0.00000000 0.00000000 0.00000000     weight = 0.01562500

band     1 # energy  -22.97407206 # occ.  2.00000000
 
ion      s      p      d    tot
    1  0.000  0.000  0.000  0.000
    2  0.000  0.000  0.000  0.000
    3  0.000  0.000  0.000  0.000
    4  0.000  0.000  0.000  0.000
    5  0.000  0.000  0.000  0.000
    6  0.000  0.000  0.000  0.000
    7  0.000  0.000  0.000  0.000
    8  0.000  0.000  0.000  0.000
    9  0.000  0.000  0.000  0.000
   10  0.000  0.000  0.000  0.000
   11  0.000  0.000  0.000  0.000
   12  0.000  0.000  0.000  0.000
   13  0.000  0.000  0.000  0.000
   14  0.000  0.000  0.000  0.000
   15  0.000  0.000  0.000  0.000
   16  0.000  0.000  0.000  0.000
   17  0.000  0.000  0.000  0.000
   18  0.000  0.000  0.000  0.000
   19  0.000  0.000  0.000  0.000
   20  0.000  0.000  0.000  0.000
   21  0.000  0.000  0.000  0.000
   22  0.000  0.000  0.000  0.000
   23  0.000  0.000  0.000  0.000
   24  0.000  0.000  0.000  0.000
   25  0.000  0.000  0.000  0.000
   26  0.000  0.000  0.000  0.000
   27  0.000  0.000  0.000  0.000
   28  0.000  0.000  0.000  0.000
   29  0.000  0.000  0.000  0.000
   30  0.000  0.000  0.000  0.000
   31  0.000  0.000  0.000  0.000
   32  0.000  0.000  0.000  0.000
   33  0.000  0.000  0.000  0.000
   34  0.000  0.000  0.000  0.000
   35  0.000  0.000  0.000  0.000
   36  0.000  0.000  0.000  0.001
   37  0.157  0.113  0.000  0.269
   38  0.636  0.093  0.000  0.729
tot    0.793  0.206  0.000  0.999
 
band     2 # energy   -9.09017175 # occ.  2.00000000
 
ion      s      p      d    tot
    1  0.000  0.000  0.000  0.000
    2  0.000  0.000  0.000  0.000
    3  0.000  0.000  0.000  0.000
    4  0.000  0.000  0.000  0.000
    5  0.000  0.000  0.000  0.000
    6  0.000  0.000  0.000  0.000
    7  0.000  0.000  0.000  0.000
    8  0.000  0.000  0.000  0.000
    9  0.000  0.000  0.000  0.000
   10  0.002  0.000  0.000  0.002
   11  0.002  0.000  0.000  0.002
   12  0.002  0.000  0.000  0.002
   13  0.002  0.000  0.000  0.002
   14  0.002  0.000  0.000  0.002
   15  0.002  0.000  0.000  0.002
   16  0.002  0.000  0.000  0.002
   17  0.002  0.000  0.000  0.002
   18  0.002  0.000  0.000  0.002
   19  0.004  0.000  0.000  0.004
   20  0.006  0.000  0.000  0.007
   21  0.006  0.000  0.000  0.007
   22  0.004  0.000  0.000  0.004
   23  0.006  0.000  0.000  0.007
   24  0.004  0.000  0.000  0.004
   25  0.004  0.000  0.000  0.004
   26  0.004  0.000  0.000  0.004
   27  0.004  0.000  0.000  0.004
   28  0.002  0.000  0.000  0.002
   29  0.005  0.000  0.000  0.006
   30  0.005  0.000  0.000  0.006
   31  0.005  0.000  0.000  0.006
   32  0.005  0.000  0.000  0.006
   33  0.005  0.000  0.000  0.006
   34  0.005  0.000  0.000  0.006
   35  0.002  0.000  0.000  0.002
   36  0.072  0.025  0.044  0.141
   37  0.241  0.014  0.000  0.255
   38  0.106  0.130  0.000  0.236
tot    0.516  0.174  0.048  0.737
 
band     3 # energy   -8.61037517 # occ.  2.00000000
 
ion      s      p      d    tot
    1  0.007  0.001  0.000  0.008
    2  0.007  0.001  0.000  0.008
    3  0.007  0.001  0.000  0.008
    4  0.007  0.001  0.000  0.008
    5  0.007  0.001  0.000  0.008
    6  0.007  0.001  0.000  0.008
    7  0.007  0.001  0.000  0.008
    8  0.007  0.001  0.000  0.008
    9  0.007  0.001  0.000  0.008
   10  0.024  0.000  0.000  0.024
   11  0.024  0.000  0.000  0.024
   12  0.024  0.000  0.000  0.024
   13  0.024  0.000  0.000  0.024
   14  0.024  0.000  0.000  0.024
   15  0.024  0.000  0.000  0.024
   16  0.024  0.000  0.000  0.024
   17  0.024  0.000  0.000  0.024
   18  0.024  0.000  0.000  0.024
   19  0.020  0.000  0.000  0.021
   20  0.018  0.000  0.000  0.019
   21  0.018  0.000  0.000  0.019
   22  0.020  0.000  0.000  0.020
   23  0.018  0.000  0.000  0.019
   24  0.020  0.000  0.000  0.020
   25  0.020  0.000  0.000  0.021
   26  0.020  0.000  0.000  0.021
   27  0.020  0.000  0.000  0.020
   28  0.004  0.001  0.000  0.005
   29  0.003  0.001  0.000  0.004
   30  0.003  0.001  0.000  0.004
   31  0.003  0.001  0.000  0.004
   32  0.003  0.001  0.000  0.004
   33  0.003  0.001  0.000  0.004
   34  0.003  0.001  0.000  0.004
   35  0.004  0.001  0.000  0.005
   36  0.000  0.008  0.006  0.015
   37  0.042  0.000  0.000  0.042
   38  0.022  0.039  0.000  0.061
tot    0.542  0.064  0.008  0.613
 
band     4 # energy   -7.35612334 # occ.  2.00000000
 
ion      s      p      d    tot
    1  0.017  0.001  0.000  0.018
    2  0.017  0.001  0.001  0.018
    3  0.017  0.001  0.001  0.018
    4  0.017  0.001  0.001  0.018
    5  0.017  0.001  0.000  0.018
    6  0.017  0.001  0.001  0.018
    7  0.017  0.001  0.001  0.018
    8  0.017  0.001  0.001  0.018
    9  0.017  0.001  0.000  0.018
   10  0.009  0.002  0.000  0.011
   11  0.009  0.002  0.000  0.011
   12  0.009  0.002  0.000  0.011
   13  0.009  0.002  0.000  0.011
   14  0.009  0.002  0.000  0.011
   15  0.009  0.002  0.000  0.011
   16  0.009  0.002  0.000  0.011
   17  0.009  0.002  0.000  0.011
   18  0.009  0.002  0.000  0.011
   19  0.010  0.002  0.001  0.013
   20  0.010  0.002  0.001  0.013
   21  0.010  0.002  0.001  0.013
   22  0.010  0.002  0.001  0.013
   23  0.010  0.002  0.001  0.013
   24  0.010  0.002  0.001  0.013
   25  0.010  0.002  0.001  0.013
   26  0.010  0.002  0.001  0.013
   27  0.010  0.002  0.001  0.013
   28  0.017  0.001  0.000  0.018
   29  0.016  0.001  0.000  0.017
   30  0.016  0.001  0.000  0.017
   31  0.016  0.001  0.000  0.017
   32  0.016  0.001  0.000  0.017
   33  0.016  0.001  0.000  0.017
   34  0.016  0.001  0.000  0.017
   35  0.016  0.001  0.000  0.017
   36  0.016  0.001  0.000  0.016
   37  0.005  0.010  0.000  0.015
   38  0.011  0.048  0.000  0.059
tot    0.481  0.108  0.017  0.606
 
band     5 # energy   -6.35960449 # occ.  2.00000000
 
ion      s      p      d    tot
    1  0.003  0.000  0.001  0.004
    2  0.003  0.000  0.001  0.004
    3  0.003  0.000  0.001  0.004
    4  0.003  0.000  0.001  0.004
    5  0.005  0.000  0.000  0.005
    6  0.003  0.000  0.001  0.004
    7  0.003  0.000  0.001  0.004
    8  0.003  0.000  0.001  0.004
    9  0.002  0.000  0.001  0.003
   10  0.000  0.001  0.000  0.001
   11  0.000  0.001  0.000  0.001
   12  0.000  0.001  0.000  0.001
   13  0.000  0.001  0.000  0.001
   14  0.000  0.001  0.000  0.001
   15  0.001  0.001  0.000  0.002
   16  0.000  0.001  0.000  0.001
   17  0.001  0.001  0.000  0.002
   18  0.001  0.001  0.000  0.002
   19  0.008  0.000  0.001  0.009
   20  0.000  0.002  0.003  0.005
   21  0.000  0.002  0.003  0.005
   22  0.007  0.000  0.001  0.008
   23  0.000  0.002  0.003  0.005
   24  0.007  0.000  0.001  0.008
   25  0.008  0.000  0.001  0.009
   26  0.008  0.000  0.001  0.009
   27  0.007  0.000  0.001  0.008
   28  0.001  0.001  0.000  0.002
   29  0.000  0.002  0.002  0.003
   30  0.000  0.002  0.002  0.003
   31  0.000  0.002  0.002  0.003
   32  0.000  0.002  0.002  0.003
   33  0.000  0.002  0.002  0.003
   34  0.000  0.002  0.002  0.003
   35  0.001  0.001  0.000  0.002
   36  0.071  0.023  0.070  0.164
   37  0.008  0.190  0.000  0.197
   38  0.029  0.291  0.000  0.320
tot    0.189  0.530  0.100  0.819
 
band     6 # energy   -6.00809639 # occ.  2.00000000
 
ion      s      p      d    tot
    1  0.000  0.000  0.000  0.000
    2  0.000  0.000  0.000  0.000
    3  0.000  0.000  0.000  0.000
    4  0.000  0.000  0.000  0.000
    5  0.000  0.000  0.000  0.000
    6  0.000  0.000  0.000  0.000
    7  0.000  0.000  0.000  0.000
    8  0.000  0.000  0.000  0.000
    9  0.000  0.000  0.000  0.000
   10  0.000  0.000  0.000  0.000
   11  0.000  0.000  0.000  0.000
   12  0.000  0.000  0.000  0.000
   13  0.000  0.000  0.000  0.000
   14  0.001  0.000  0.000  0.001
   15  0.000  0.000  0.000  0.000
   16  0.000  0.000  0.000  0.000
   17  0.000  0.000  0.000  0.000
   18  0.000  0.000  0.000  0.000
   19  0.000  0.000  0.000  0.000
   20  0.001  0.000  0.000  0.002
   21  0.000  0.000  0.000  0.001
   22  0.000  0.000  0.000  0.001
   23  0.000  0.000  0.000  0.001
   24  0.001  0.000  0.000  0.002
   25  0.000  0.000  0.000  0.000
   26  0.000  0.000  0.000  0.000
   27  0.000  0.000  0.000  0.001
   28  0.000  0.000  0.001  0.001
   29  0.003  0.001  0.001  0.005
   30  0.000  0.000  0.001  0.001
   31  0.003  0.001  0.001  0.005
   32  0.003  0.001  0.001  0.005
   33  0.000  0.000  0.001  0.001
   34  0.003  0.001  0.001  0.005
   35  0.000  0.000  0.001  0.001
   36  0.000  0.007  0.020  0.027
   37  0.000  0.177  0.000  0.177
   38  0.000  0.422  0.000  0.422
tot    0.019  0.612  0.028  0.659
 
band     7 # energy   -6.00798907 # occ.  2.00000000
 
ion      s      p      d    tot
    1  0.000  0.000  0.000  0.000
    2  0.000  0.000  0.000  0.000
    3  0.000  0.000  0.000  0.000
    4  0.000  0.000  0.000  0.000
    5  0.000  0.000  0.000  0.000
    6  0.000  0.000  0.000  0.000
    7  0.000  0.000  0.000  0.000
    8  0.000  0.000  0.000  0.000
    9  0.000  0.000  0.000  0.000
   10  0.000  0.000  0.000  0.000
   11  0.000  0.000  0.000  0.001
   12  0.000  0.000  0.000  0.000
   13  0.000  0.000  0.000  0.001
   14  0.000  0.000  0.000  0.000
   15  0.000  0.000  0.000  0.000
   16  0.000  0.000  0.000  0.000
   17  0.000  0.000  0.000  0.000
   18  0.000  0.000  0.000  0.000
   19  0.000  0.000  0.000  0.000
   20  0.000  0.000  0.000  0.000
   21  0.001  0.000  0.000  0.001
   22  0.001  0.000  0.000  0.001
   23  0.001  0.000  0.000  0.001
   24  0.000  0.000  0.000  0.000
   25  0.000  0.000  0.000  0.001
   26  0.000  0.000  0.000  0.000
   27  0.001  0.000  0.000  0.001
   28  0.000  0.000  0.001  0.001
   29  0.001  0.000  0.001  0.002
   30  0.004  0.001  0.001  0.006
   31  0.001  0.000  0.001  0.002
   32  0.001  0.000  0.001  0.002
   33  0.004  0.001  0.001  0.006
   34  0.001  0.000  0.001  0.002
   35  0.000  0.000  0.001  0.001
   36  0.000  0.007  0.020  0.027
   37  0.000  0.177  0.000  0.177
   38  0.000  0.422  0.000  0.422
tot    0.019  0.612  0.028  0.659
 
band     8 # energy   -5.70979351 # occ.  2.00000000
 
ion      s      p      d    tot
    1  0.014  0.000  0.004  0.017
    2  0.009  0.001  0.005  0.015
    3  0.009  0.001  0.005  0.015
    4  0.009  0.001  0.005  0.015
    5  0.000  0.002  0.006  0.008
    6  0.009  0.001  0.005  0.015
    7  0.009  0.001  0.005  0.015
    8  0.009  0.001  0.005  0.015
    9  0.026  0.001  0.002  0.029
   10  0.001  0.003  0.006  0.010
   11  0.026  0.007  0.001  0.034
   12  0.001  0.003  0.006  0.010
   13  0.026  0.007  0.001  0.034
   14  0.026  0.007  0.001  0.034
   15  0.002  0.001  0.008  0.012
   16  0.001  0.003  0.006  0.010
   17  0.002  0.001  0.008  0.012
   18  0.002  0.001  0.008  0.012
   19  0.001  0.001  0.008  0.010
   20  0.029  0.007  0.002  0.037
   21  0.029  0.007  0.002  0.037
   22  0.001  0.005  0.004  0.010
   23  0.029  0.007  0.002  0.037
   24  0.001  0.005  0.004  0.010
   25  0.001  0.001  0.008  0.010
   26  0.001  0.001  0.008  0.010
   27  0.001  0.005  0.004  0.010
   28  0.019  0.000  0.002  0.021
   29  0.009  0.001  0.005  0.015
   30  0.009  0.001  0.005  0.015
   31  0.009  0.001  0.005  0.015
   32  0.009  0.001  0.005  0.015
   33  0.009  0.001  0.005  0.015
   34  0.009  0.001  0.005  0.015
   35  0.024  0.000  0.002  0.027
   36  0.001  0.002  0.009  0.012
   37  0.000  0.000  0.000  0.000
   38  0.000  0.000  0.000  0.000
tot    0.368  0.091  0.175  0.633
 
band     9 # energy   -5.67883005 # occ.  2.00000000
 
ion      s      p      d    tot
    1  0.000  0.003  0.006  0.009
    2  0.010  0.003  0.002  0.015
    3  0.002  0.001  0.002  0.005
    4  0.010  0.003  0.002  0.015
    5  0.000  0.002  0.004  0.006
    6  0.003  0.001  0.002  0.007
    7  0.002  0.001  0.002  0.005
    8  0.003  0.001  0.002  0.007
    9  0.000  0.000  0.003  0.003
   10  0.061  0.005  0.004  0.069
   11  0.007  0.010  0.004  0.021
   12  0.015  0.002  0.013  0.031
   13  0.007  0.010  0.004  0.021
   14  0.027  0.000  0.007  0.034
   15  0.002  0.005  0.008  0.015
   16  0.015  0.002  0.013  0.031
   17  0.002  0.005  0.008  0.015
   18  0.007  0.003  0.003  0.013
   19  0.007  0.010  0.004  0.021
   20  0.061  0.004  0.004  0.069
   21  0.015  0.002  0.013  0.031
   22  0.001  0.005  0.008  0.014
   23  0.015  0.002  0.013  0.031
   24  0.006  0.003  0.003  0.012
   25  0.028  0.000  0.007  0.035
   26  0.007  0.010  0.004  0.021
   27  0.001  0.005  0.008  0.014
   28  0.000  0.002  0.004  0.006
   29  0.009  0.003  0.003  0.014
   30  0.003  0.001  0.002  0.007
   31  0.009  0.003  0.003  0.014
   32  0.001  0.001  0.002  0.005
   33  0.003  0.001  0.002  0.007
   34  0.001  0.001  0.002  0.005
   35  0.000  0.000  0.002  0.002
   36  0.000  0.002  0.008  0.010
   37  0.000  0.002  0.000  0.002
   38  0.000  0.006  0.000  0.006
tot    0.341  0.122  0.181  0.644
 
band    10 # energy   -5.67877938 # occ.  2.00000000
 
ion      s      p      d    tot
    1  0.000  0.003  0.006  0.009
    2  0.000  0.001  0.002  0.003
    3  0.008  0.002  0.003  0.013
    4  0.000  0.001  0.002  0.003
    5  0.000  0.002  0.004  0.006
    6  0.007  0.002  0.002  0.011
    7  0.008  0.002  0.003  0.013
    8  0.007  0.002  0.002  0.011
    9  0.000  0.000  0.003  0.003
   10  0.000  0.002  0.016  0.018
   11  0.020  0.004  0.006  0.030
   12  0.046  0.004  0.007  0.056
   13  0.020  0.004  0.006  0.030
   14  0.000  0.013  0.003  0.016
   15  0.005  0.003  0.005  0.013
   16  0.046  0.004  0.007  0.056
   17  0.005  0.003  0.005  0.013
   18  0.000  0.005  0.010  0.015
   19  0.021  0.004  0.006  0.030
   20  0.000  0.002  0.017  0.018
   21  0.045  0.004  0.007  0.056
   22  0.004  0.003  0.005  0.012
   23  0.045  0.004  0.007  0.056
   24  0.000  0.005  0.009  0.015
   25  0.000  0.013  0.003  0.016
   26  0.021  0.004  0.006  0.030
   27  0.004  0.003  0.005  0.013
   28  0.000  0.002  0.004  0.006
   29  0.000  0.001  0.002  0.003
   30  0.006  0.002  0.003  0.010
   31  0.000  0.001  0.002  0.003
   32  0.008  0.002  0.003  0.012
   33  0.006  0.002  0.003  0.010
   34  0.008  0.002  0.003  0.012
   35  0.000  0.000  0.002  0.002
   36  0.000  0.002  0.008  0.010
   37  0.000  0.002  0.000  0.002
   38  0.000  0.006  0.000  0.006
tot    0.341  0.122  0.181  0.644
 
band    11 # energy   -5.67580917 # occ.  2.00000000
 
ion      s      p      d    tot
    1  0.021  0.003  0.001  0.025
    2  0.000  0.002  0.004  0.006
    3  0.000  0.002  0.004  0.006
    4  0.000  0.002  0.004  0.006
    5  0.001  0.000  0.000  0.002
    6  0.000  0.002  0.004  0.006
    7  0.000  0.002  0.004  0.006
    8  0.000  0.002  0.004  0.006
    9  0.010  0.002  0.000  0.012
   10  0.030  0.005  0.006  0.042
   11  0.004  0.000  0.012  0.016
   12  0.030  0.005  0.006  0.042
   13  0.004  0.000  0.012  0.016
   14  0.004  0.000  0.011  0.016
   15  0.013  0.008  0.003  0.025
   16  0.030  0.005  0.006  0.042
   17  0.013  0.008  0.003  0.025
   18  0.014  0.008  0.003  0.025
   19  0.022  0.009  0.002  0.033
   20  0.000  0.002  0.010  0.012
   21  0.000  0.002  0.010  0.012
   22  0.025  0.003  0.009  0.037
   23  0.000  0.002  0.010  0.012
   24  0.025  0.003  0.009  0.036
   25  0.021  0.009  0.002  0.033
   26  0.022  0.009  0.002  0.033
   27  0.025  0.003  0.009  0.037
   28  0.018  0.003  0.001  0.021
   29  0.000  0.002  0.004  0.006
   30  0.000  0.002  0.004  0.006
   31  0.000  0.002  0.004  0.006
   32  0.000  0.002  0.004  0.006
   33  0.000  0.002  0.004  0.006
   34  0.000  0.002  0.004  0.006
   35  0.013  0.002  0.001  0.017
   36  0.000  0.000  0.000  0.000
   37  0.000  0.000  0.000  0.000
   38  0.000  0.000  0.000  0.000
tot    0.346  0.115  0.177  0.639
 
band    12 # energy   -5.66532342 # occ.  2.00000000
 
ion      s      p      d    tot
    1  0.000  0.001  0.003  0.003
    2  0.010  0.003  0.003  0.016
    3  0.002  0.001  0.002  0.005
    4  0.011  0.003  0.003  0.016
    5  0.000  0.001  0.005  0.006
    6  0.003  0.001  0.002  0.007
    7  0.002  0.001  0.002  0.005
    8  0.003  0.001  0.002  0.007
    9  0.000  0.004  0.006  0.009
   10  0.000  0.012  0.003  0.015
   11  0.027  0.004  0.006  0.037
   12  0.002  0.004  0.005  0.010
   13  0.027  0.004  0.006  0.036
   14  0.000  0.000  0.016  0.017
   15  0.043  0.004  0.007  0.054
   16  0.002  0.003  0.005  0.010
   17  0.042  0.004  0.007  0.053
   18  0.000  0.008  0.009  0.018
   19  0.026  0.004  0.005  0.035
   20  0.000  0.012  0.003  0.015
   21  0.002  0.004  0.005  0.010
   22  0.041  0.004  0.007  0.052
   23  0.002  0.003  0.005  0.010
   24  0.000  0.008  0.009  0.017
   25  0.000  0.000  0.016  0.016
   26  0.026  0.004  0.006  0.035
   27  0.042  0.004  0.007  0.053
   28  0.000  0.001  0.004  0.005
   29  0.009  0.003  0.002  0.014
   30  0.003  0.001  0.002  0.007
   31  0.009  0.002  0.002  0.014
   32  0.002  0.001  0.002  0.005
   33  0.003  0.001  0.002  0.007
   34  0.002  0.001  0.002  0.005
   35  0.000  0.003  0.005  0.009
   36  0.000  0.001  0.003  0.003
   37  0.000  0.002  0.000  0.002
   38  0.000  0.005  0.000  0.005
tot    0.342  0.121  0.177  0.640
 
band    13 # energy   -5.66528235 # occ.  2.00000000
 
ion      s      p      d    tot
    1  0.000  0.001  0.003  0.003
    2  0.000  0.001  0.002  0.003
    3  0.008  0.002  0.003  0.013
    4  0.000  0.001  0.002  0.003
    5  0.000  0.001  0.005  0.006
    6  0.007  0.002  0.002  0.011
    7  0.009  0.002  0.003  0.014
    8  0.007  0.002  0.002  0.012
    9  0.000  0.004  0.006  0.009
   10  0.002  0.001  0.006  0.009
   11  0.009  0.001  0.013  0.023
   12  0.001  0.009  0.003  0.013
   13  0.009  0.001  0.013  0.024
   14  0.036  0.005  0.002  0.043
   15  0.014  0.007  0.009  0.029
   16  0.001  0.009  0.003  0.013
   17  0.015  0.007  0.009  0.030
   18  0.057  0.002  0.006  0.065
   19  0.008  0.001  0.013  0.022
   20  0.003  0.001  0.006  0.009
   21  0.001  0.009  0.004  0.013
   22  0.014  0.007  0.008  0.029
   23  0.001  0.009  0.003  0.013
   24  0.056  0.002  0.006  0.064
   25  0.035  0.005  0.002  0.042
   26  0.009  0.001  0.012  0.023
   27  0.013  0.007  0.008  0.028
   28  0.000  0.001  0.004  0.005
   29  0.000  0.001  0.002  0.003
   30  0.006  0.002  0.002  0.010
   31  0.000  0.001  0.002  0.003
   32  0.007  0.002  0.003  0.012
   33  0.006  0.002  0.002  0.010
   34  0.007  0.002  0.003  0.012
   35  0.000  0.003  0.005  0.009
   36  0.000  0.001  0.003  0.003
   37  0.000  0.002  0.000  0.002
   38  0.000  0.005  0.000  0.005
tot    0.342  0.121  0.177  0.640
 
band    14 # energy   -5.49568494 # occ.  2.00000000
 
ion      s      p      d    tot
    1  0.001  0.001  0.004  0.006
    2  0.007  0.002  0.008  0.016
    3  0.007  0.002  0.008  0.016
    4  0.007  0.002  0.008  0.016
    5  0.046  0.002  0.001  0.049
    6  0.007  0.002  0.008  0.016
    7  0.007  0.002  0.008  0.016
    8  0.007  0.002  0.008  0.016
    9  0.000  0.002  0.008  0.009
   10  0.007  0.004  0.007  0.018
   11  0.007  0.006  0.007  0.020
   12  0.007  0.004  0.007  0.018
   13  0.007  0.006  0.007  0.020
   14  0.007  0.006  0.007  0.020
   15  0.026  0.002  0.010  0.037
   16  0.007  0.004  0.007  0.018
   17  0.026  0.002  0.010  0.037
   18  0.026  0.002  0.010  0.038
   19  0.004  0.004  0.004  0.011
   20  0.006  0.001  0.006  0.014
   21  0.006  0.001  0.006  0.014
   22  0.003  0.005  0.004  0.012
   23  0.006  0.001  0.006  0.014
   24  0.003  0.005  0.004  0.012
   25  0.004  0.004  0.004  0.011
   26  0.004  0.004  0.004  0.011
   27  0.003  0.005  0.004  0.012
   28  0.007  0.000  0.004  0.012
   29  0.007  0.000  0.004  0.011
   30  0.007  0.000  0.004  0.011
   31  0.007  0.000  0.004  0.011
   32  0.007  0.000  0.004  0.011
   33  0.007  0.000  0.004  0.011
   34  0.007  0.000  0.004  0.011
   35  0.005  0.000  0.003  0.008
   36  0.000  0.011  0.031  0.042
   37  0.007  0.026  0.000  0.033
   38  0.001  0.021  0.000  0.022
tot    0.309  0.139  0.230  0.677
 
band    15 # energy   -4.90824680 # occ.  2.00000000
 
ion      s      p      d    tot
    1  0.006  0.000  0.008  0.014
    2  0.004  0.001  0.009  0.013
    3  0.004  0.001  0.009  0.013
    4  0.004  0.001  0.009  0.013
    5  0.000  0.002  0.008  0.011
    6  0.004  0.001  0.009  0.013
    7  0.004  0.001  0.009  0.013
    8  0.004  0.001  0.009  0.013
    9  0.015  0.000  0.005  0.021
   10  0.006  0.000  0.024  0.030
   11  0.011  0.001  0.020  0.032
   12  0.005  0.000  0.024  0.030
   13  0.011  0.001  0.020  0.032
   14  0.011  0.001  0.020  0.032
   15  0.001  0.000  0.020  0.022
   16  0.005  0.000  0.024  0.030
   17  0.001  0.000  0.020  0.022
   18  0.001  0.000  0.020  0.022
   19  0.003  0.000  0.020  0.024
   20  0.013  0.001  0.024  0.038
   21  0.013  0.001  0.024  0.038
   22  0.002  0.000  0.024  0.027
   23  0.013  0.001  0.024  0.038
   24  0.002  0.000  0.024  0.027
   25  0.003  0.000  0.020  0.024
   26  0.003  0.000  0.020  0.024
   27  0.002  0.000  0.024  0.027
   28  0.006  0.000  0.007  0.013
   29  0.004  0.001  0.009  0.014
   30  0.004  0.001  0.009  0.014
   31  0.004  0.001  0.009  0.014
   32  0.004  0.001  0.009  0.014
   33  0.004  0.001  0.009  0.014
   34  0.004  0.001  0.009  0.014
   35  0.016  0.000  0.006  0.023
   36  0.000  0.003  0.008  0.012
   37  0.000  0.000  0.000  0.000
   38  0.000  0.000  0.000  0.000
tot    0.201  0.023  0.546  0.770
 
band    16 # energy   -4.90441595 # occ.  2.00000000
 
ion      s      p      d    tot
    1  0.036  0.003  0.000  0.040
    2  0.000  0.003  0.010  0.014
    3  0.000  0.003  0.010  0.014
    4  0.000  0.003  0.010  0.014
    5  0.000  0.000  0.000  0.001
    6  0.000  0.003  0.010  0.014
    7  0.000  0.003  0.010  0.014
    8  0.000  0.003  0.010  0.014
    9  0.028  0.003  0.001  0.032
   10  0.008  0.004  0.011  0.023
   11  0.002  0.000  0.015  0.016
   12  0.008  0.004  0.011  0.023
   13  0.002  0.000  0.015  0.016
   14  0.002  0.000  0.015  0.016
   15  0.007  0.003  0.019  0.029
   16  0.008  0.004  0.011  0.023
   17  0.007  0.003  0.019  0.029
   18  0.007  0.003  0.019  0.029
   19  0.005  0.004  0.017  0.026
   20  0.000  0.000  0.016  0.016
   21  0.000  0.000  0.015  0.016
   22  0.012  0.003  0.011  0.026
   23  0.000  0.000  0.015  0.016
   24  0.012  0.003  0.011  0.026
   25  0.005  0.004  0.017  0.026
   26  0.005  0.004  0.017  0.026
   27  0.012  0.003  0.011  0.026
   28  0.037  0.003  0.000  0.040
   29  0.000  0.003  0.010  0.013
   30  0.000  0.003  0.010  0.013
   31  0.000  0.003  0.010  0.013
   32  0.000  0.003  0.010  0.013
   33  0.000  0.003  0.010  0.013
   34  0.000  0.003  0.010  0.013
   35  0.025  0.004  0.002  0.030
   36  0.000  0.000  0.000  0.000
   37  0.000  0.000  0.000  0.000
   38  0.000  0.000  0.000  0.000
tot    0.228  0.092  0.386  0.706
 
band    17 # energy   -4.89162714 # occ.  2.00000000
 
ion      s      p      d    tot
    1  0.000  0.003  0.009  0.012
    2  0.020  0.004  0.005  0.029
    3  0.000  0.002  0.005  0.007
    4  0.019  0.003  0.005  0.028
    5  0.000  0.006  0.009  0.015
    6  0.011  0.003  0.006  0.019
    7  0.001  0.002  0.005  0.008
    8  0.013  0.003  0.006  0.022
    9  0.000  0.001  0.013  0.014
   10  0.014  0.005  0.009  0.028
   11  0.005  0.002  0.022  0.029
   12  0.003  0.001  0.016  0.020
   13  0.003  0.002  0.024  0.030
   14  0.017  0.004  0.005  0.026
   15  0.000  0.002  0.016  0.019
   16  0.004  0.002  0.015  0.021
   17  0.000  0.003  0.017  0.020
   18  0.000  0.000  0.009  0.009
   19  0.001  0.003  0.017  0.021
   20  0.022  0.005  0.005  0.032
   21  0.005  0.002  0.024  0.030
   22  0.002  0.001  0.014  0.018
   23  0.007  0.002  0.022  0.030
   24  0.009  0.003  0.010  0.022
   25  0.003  0.000  0.007  0.011
   26  0.001  0.003  0.018  0.022
   27  0.003  0.002  0.014  0.018
   28  0.000  0.002  0.011  0.013
   29  0.017  0.004  0.006  0.027
   30  0.000  0.002  0.005  0.006
   31  0.016  0.003  0.006  0.025
   32  0.012  0.003  0.005  0.020
   33  0.001  0.002  0.005  0.007
   34  0.014  0.003  0.006  0.022
   35  0.000  0.001  0.009  0.010
   36  0.000  0.006  0.008  0.014
   37  0.000  0.001  0.000  0.001
   38  0.000  0.004  0.000  0.004
tot    0.223  0.098  0.389  0.711
 
band    18 # energy   -4.89161573 # occ.  2.00000000
 
ion      s      p      d    tot
    1  0.000  0.003  0.010  0.012
    2  0.002  0.002  0.005  0.009
    3  0.021  0.004  0.006  0.031
    4  0.003  0.002  0.005  0.011
    5  0.000  0.006  0.009  0.015
    6  0.010  0.003  0.005  0.018
    7  0.020  0.004  0.006  0.030
    8  0.008  0.002  0.005  0.015
    9  0.000  0.001  0.013  0.014
   10  0.000  0.000  0.017  0.018
   11  0.012  0.003  0.012  0.028
   12  0.011  0.004  0.011  0.026
   13  0.014  0.004  0.010  0.027
   14  0.000  0.002  0.029  0.031
   15  0.000  0.001  0.012  0.013
   16  0.010  0.003  0.012  0.025
   17  0.000  0.001  0.011  0.012
   18  0.000  0.003  0.019  0.023
   19  0.002  0.001  0.012  0.015
   20  0.000  0.001  0.029  0.030
   21  0.018  0.004  0.010  0.032
   22  0.007  0.003  0.011  0.021
   23  0.016  0.004  0.012  0.031
   24  0.000  0.001  0.016  0.017
   25  0.000  0.004  0.021  0.025
   26  0.002  0.001  0.010  0.014
   27  0.006  0.003  0.011  0.020
   28  0.000  0.002  0.011  0.013
   29  0.003  0.002  0.005  0.009
   30  0.020  0.004  0.006  0.029
   31  0.004  0.002  0.005  0.011
   32  0.008  0.002  0.005  0.015
   33  0.019  0.004  0.006  0.029
   34  0.006  0.002  0.005  0.013
   35  0.000  0.001  0.009  0.010
   36  0.000  0.006  0.008  0.014
   37  0.000  0.001  0.000  0.001
   38  0.000  0.004  0.000  0.004
tot    0.223  0.098  0.389  0.711
 
band    19 # energy   -4.88762640 # occ.  2.00000000
 
ion      s      p      d    tot
    1  0.000  0.004  0.012  0.016
    2  0.006  0.002  0.006  0.014
    3  0.018  0.004  0.006  0.027
    4  0.000  0.002  0.005  0.007
    5  0.000  0.000  0.012  0.012
    6  0.005  0.002  0.005  0.012
    7  0.022  0.004  0.006  0.031
    8  0.014  0.003  0.005  0.023
    9  0.000  0.005  0.008  0.014
   10  0.006  0.001  0.007  0.014
   11  0.000  0.002  0.014  0.016
   12  0.003  0.002  0.018  0.023
   13  0.002  0.002  0.012  0.016
   14  0.004  0.002  0.011  0.016
   15  0.002  0.001  0.023  0.026
   16  0.001  0.003  0.026  0.030
   17  0.009  0.003  0.016  0.029
   18  0.019  0.006  0.008  0.033
   19  0.002  0.000  0.020  0.022
   20  0.000  0.001  0.010  0.011
   21  0.000  0.002  0.014  0.016
   22  0.007  0.003  0.017  0.026
   23  0.000  0.003  0.016  0.019
   24  0.014  0.003  0.006  0.023
   25  0.020  0.005  0.008  0.032
   26  0.009  0.002  0.015  0.027
   27  0.001  0.003  0.025  0.029
   28  0.000  0.004  0.008  0.012
   29  0.007  0.002  0.005  0.014
   30  0.018  0.003  0.005  0.026
   31  0.001  0.002  0.005  0.007
   32  0.003  0.002  0.005  0.011
   33  0.020  0.004  0.005  0.028
   34  0.012  0.003  0.005  0.020
   35  0.000  0.005  0.010  0.015
   36  0.000  0.000  0.007  0.007
   37  0.000  0.000  0.000  0.000
   38  0.000  0.000  0.000  0.000
tot    0.226  0.094  0.384  0.704
 
band    20 # energy   -4.88762610 # occ.  2.00000000
 
ion      s      p      d    tot
    1  0.000  0.004  0.012  0.016
    2  0.016  0.003  0.005  0.024
    3  0.003  0.002  0.005  0.010
    4  0.021  0.004  0.006  0.031
    5  0.000  0.000  0.012  0.012
    6  0.017  0.003  0.006  0.026
    7  0.000  0.002  0.005  0.007
    8  0.008  0.002  0.006  0.016
    9  0.000  0.005  0.008  0.014
   10  0.000  0.003  0.027  0.031
   11  0.003  0.002  0.011  0.016
   12  0.004  0.002  0.016  0.022
   13  0.002  0.002  0.012  0.016
   14  0.000  0.002  0.014  0.016
   15  0.019  0.005  0.008  0.032
   16  0.006  0.001  0.008  0.015
   17  0.011  0.003  0.015  0.029
   18  0.001  0.000  0.024  0.025
   19  0.019  0.005  0.008  0.032
   20  0.000  0.003  0.016  0.019
   21  0.000  0.002  0.013  0.015
   22  0.008  0.003  0.015  0.026
   23  0.001  0.001  0.011  0.012
   24  0.001  0.003  0.026  0.029
   25  0.001  0.000  0.021  0.022
   26  0.011  0.003  0.014  0.028
   27  0.013  0.003  0.007  0.023
   28  0.000  0.004  0.008  0.012
   29  0.013  0.003  0.005  0.021
   30  0.002  0.002  0.005  0.009
   31  0.019  0.004  0.005  0.028
   32  0.017  0.003  0.005  0.025
   33  0.000  0.002  0.005  0.007
   34  0.009  0.002  0.005  0.016
   35  0.000  0.005  0.010  0.015
   36  0.000  0.000  0.007  0.007
   37  0.000  0.000  0.000  0.000
   38  0.000  0.000  0.000  0.000
tot    0.226  0.094  0.384  0.704
 
band    21 # energy   -4.71226724 # occ.  2.00000000
 
ion      s      p      d    tot
    1  0.012  0.002  0.001  0.014
    2  0.000  0.002  0.010  0.013
    3  0.000  0.002  0.010  0.013
    4  0.000  0.002  0.010  0.013
    5  0.040  0.003  0.000  0.043
    6  0.000  0.002  0.010  0.013
    7  0.000  0.002  0.010  0.013
    8  0.000  0.002  0.010  0.013
    9  0.003  0.001  0.001  0.005
   10  0.001  0.001  0.026  0.029
   11  0.002  0.003  0.022  0.027
   12  0.001  0.001  0.026  0.029
   13  0.002  0.003  0.022  0.027
   14  0.002  0.003  0.022  0.027
   15  0.003  0.001  0.009  0.014
   16  0.001  0.001  0.026  0.029