PROCAR new format
# of k-points:   10         # of bands:  252         # of ions:   37

 k-point     1 :    0.00000000 0.00000000 0.00000000     weight = 0.01562500

band     1 # energy   -9.70545285 # occ.  2.00000000
 
ion      s      p      d    tot
    1  0.000  0.000  0.000  0.000
    2  0.000  0.000  0.000  0.000
    3  0.000  0.000  0.000  0.000
    4  0.000  0.000  0.000  0.000
    5  0.000  0.000  0.000  0.000
    6  0.000  0.000  0.000  0.000
    7  0.000  0.000  0.000  0.000
    8  0.000  0.000  0.000  0.000
    9  0.000  0.000  0.000  0.000
   10  0.000  0.000  0.000  0.000
   11  0.000  0.000  0.000  0.000
   12  0.000  0.000  0.000  0.000
   13  0.000  0.000  0.000  0.000
   14  0.000  0.000  0.000  0.000
   15  0.000  0.000  0.000  0.000
   16  0.000  0.000  0.000  0.000
   17  0.000  0.000  0.000  0.000
   18  0.000  0.000  0.000  0.000
   19  0.001  0.000  0.000  0.001
   20  0.003  0.000  0.001  0.004
   21  0.003  0.000  0.001  0.004
   22  0.001  0.000  0.000  0.001
   23  0.003  0.000  0.001  0.004
   24  0.001  0.000  0.000  0.001
   25  0.001  0.000  0.000  0.001
   26  0.001  0.000  0.000  0.001
   27  0.001  0.000  0.000  0.001
   28  0.000  0.000  0.000  0.001
   29  0.003  0.000  0.001  0.005
   30  0.003  0.000  0.001  0.005
   31  0.003  0.000  0.001  0.005
   32  0.003  0.000  0.001  0.005
   33  0.003  0.000  0.001  0.005
   34  0.003  0.000  0.001  0.005
   35  0.000  0.000  0.000  0.001
   36  0.112  0.064  0.120  0.297
   37  0.413  0.024  0.000  0.437
tot    0.558  0.092  0.131  0.781
 
band     2 # energy   -8.61158769 # occ.  2.00000000
 
ion      s      p      d    tot
    1  0.007  0.001  0.000  0.007
    2  0.007  0.001  0.000  0.007
    3  0.007  0.001  0.000  0.007
    4  0.007  0.001  0.000  0.007
    5  0.007  0.001  0.000  0.007
    6  0.007  0.001  0.000  0.007
    7  0.007  0.001  0.000  0.007
    8  0.007  0.001  0.000  0.007
    9  0.007  0.001  0.000  0.007
   10  0.027  0.000  0.000  0.027
   11  0.028  0.000  0.000  0.028
   12  0.027  0.000  0.000  0.027
   13  0.028  0.000  0.000  0.028
   14  0.028  0.000  0.000  0.028
   15  0.027  0.000  0.000  0.028
   16  0.027  0.000  0.000  0.027
   17  0.027  0.000  0.000  0.028
   18  0.027  0.000  0.000  0.028
   19  0.023  0.000  0.000  0.023
   20  0.024  0.000  0.000  0.024
   21  0.024  0.000  0.000  0.024
   22  0.024  0.000  0.000  0.024
   23  0.024  0.000  0.000  0.024
   24  0.024  0.000  0.000  0.024
   25  0.023  0.000  0.000  0.023
   26  0.023  0.000  0.000  0.023
   27  0.024  0.000  0.000  0.024
   28  0.004  0.000  0.000  0.004
   29  0.003  0.001  0.000  0.004
   30  0.003  0.001  0.000  0.004
   31  0.003  0.001  0.000  0.004
   32  0.003  0.001  0.000  0.004
   33  0.003  0.001  0.000  0.004
   34  0.003  0.001  0.000  0.004
   35  0.004  0.000  0.000  0.004
   36  0.000  0.005  0.004  0.010
   37  0.014  0.001  0.000  0.015
tot    0.561  0.018  0.009  0.588
 
band     3 # energy   -7.40721585 # occ.  2.00000000
 
ion      s      p      d    tot
    1  0.017  0.000  0.001  0.019
    2  0.017  0.000  0.001  0.019
    3  0.017  0.000  0.001  0.019
    4  0.017  0.000  0.001  0.019
    5  0.017  0.000  0.001  0.019
    6  0.017  0.000  0.001  0.019
    7  0.017  0.000  0.001  0.019
    8  0.017  0.000  0.001  0.019
    9  0.017  0.000  0.001  0.018
   10  0.010  0.002  0.003  0.014
   11  0.009  0.002  0.003  0.014
   12  0.010  0.002  0.003  0.014
   13  0.009  0.002  0.003  0.014
   14  0.009  0.002  0.003  0.014
   15  0.009  0.002  0.003  0.013
   16  0.010  0.002  0.003  0.014
   17  0.009  0.002  0.003  0.013
   18  0.009  0.002  0.003  0.013
   19  0.016  0.001  0.005  0.022
   20  0.015  0.001  0.005  0.022
   21  0.015  0.001  0.005  0.022
   22  0.017  0.001  0.004  0.023
   23  0.015  0.001  0.005  0.022
   24  0.017  0.001  0.004  0.023
   25  0.016  0.001  0.005  0.022
   26  0.016  0.001  0.005  0.022
   27  0.018  0.001  0.004  0.023
   28  0.013  0.001  0.000  0.014
   29  0.011  0.001  0.001  0.012
   30  0.011  0.001  0.001  0.012
   31  0.011  0.001  0.001  0.012
   32  0.011  0.001  0.001  0.012
   33  0.011  0.001  0.001  0.012
   34  0.011  0.001  0.001  0.012
   35  0.013  0.001  0.000  0.014
   36  0.001  0.004  0.004  0.009
   37  0.009  0.000  0.000  0.009
tot    0.484  0.036  0.085  0.606
 
band     4 # energy   -6.51582910 # occ.  2.00000000
 
ion      s      p      d    tot
    1  0.000  0.000  0.009  0.010
    2  0.004  0.000  0.008  0.013
    3  0.004  0.000  0.008  0.013
    4  0.004  0.000  0.008  0.013
    5  0.000  0.000  0.004  0.005
    6  0.004  0.000  0.008  0.013
    7  0.004  0.000  0.008  0.013
    8  0.004  0.000  0.008  0.013
    9  0.028  0.001  0.001  0.030
   10  0.008  0.000  0.022  0.030
   11  0.018  0.003  0.007  0.028
   12  0.008  0.000  0.022  0.030
   13  0.018  0.003  0.007  0.028
   14  0.018  0.003  0.007  0.028
   15  0.013  0.001  0.016  0.030
   16  0.008  0.000  0.022  0.030
   17  0.013  0.001  0.016  0.030
   18  0.013  0.001  0.017  0.030
   19  0.001  0.001  0.020  0.022
   20  0.025  0.002  0.013  0.040
   21  0.025  0.002  0.013  0.040
   22  0.011  0.002  0.005  0.018
   23  0.025  0.002  0.013  0.040
   24  0.011  0.002  0.005  0.018
   25  0.001  0.001  0.020  0.022
   26  0.001  0.001  0.020  0.022
   27  0.011  0.002  0.005  0.018
   28  0.006  0.000  0.000  0.006
   29  0.002  0.000  0.005  0.007
   30  0.002  0.000  0.005  0.007
   31  0.002  0.000  0.005  0.007
   32  0.002  0.000  0.005  0.007
   33  0.002  0.000  0.005  0.007
   34  0.002  0.000  0.005  0.007
   35  0.010  0.000  0.000  0.011
   36  0.003  0.003  0.001  0.007
   37  0.001  0.000  0.000  0.001
tot    0.312  0.039  0.344  0.694
 
band     5 # energy   -6.49647742 # occ.  2.00000000
 
ion      s      p      d    tot
    1  0.000  0.000  0.006  0.006
    2  0.006  0.001  0.004  0.010
    3  0.005  0.001  0.003  0.008
    4  0.006  0.001  0.004  0.011
    5  0.000  0.001  0.009  0.010
    6  0.000  0.000  0.003  0.003
    7  0.005  0.001  0.003  0.009
    8  0.000  0.000  0.003  0.003
    9  0.000  0.000  0.001  0.002
   10  0.000  0.000  0.029  0.029
   11  0.044  0.002  0.015  0.060
   12  0.014  0.001  0.011  0.027
   13  0.045  0.002  0.014  0.061
   14  0.000  0.002  0.035  0.037
   15  0.008  0.001  0.012  0.021
   16  0.014  0.001  0.012  0.027
   17  0.008  0.001  0.012  0.021
   18  0.000  0.004  0.002  0.007
   19  0.001  0.001  0.010  0.013
   20  0.000  0.003  0.026  0.029
   21  0.040  0.002  0.015  0.057
   22  0.025  0.002  0.011  0.038
   23  0.040  0.002  0.015  0.056
   24  0.000  0.000  0.037  0.037
   25  0.000  0.003  0.004  0.007
   26  0.001  0.001  0.011  0.013
   27  0.024  0.001  0.012  0.038
   28  0.000  0.000  0.001  0.001
   29  0.000  0.000  0.002  0.003
   30  0.007  0.001  0.003  0.011
   31  0.000  0.000  0.002  0.003
   32  0.004  0.001  0.004  0.008
   33  0.007  0.001  0.003  0.010
   34  0.004  0.001  0.004  0.008
   35  0.000  0.000  0.006  0.006
   36  0.000  0.002  0.002  0.004
   37  0.000  0.000  0.000  0.000
tot    0.308  0.043  0.342  0.694
 
band     6 # energy   -6.49642315 # occ.  2.00000000
 
ion      s      p      d    tot
    1  0.000  0.000  0.006  0.006
    2  0.001  0.000  0.003  0.004
    3  0.002  0.001  0.003  0.006
    4  0.001  0.000  0.003  0.004
    5  0.000  0.001  0.009  0.010
    6  0.007  0.001  0.003  0.012
    7  0.002  0.001  0.003  0.006
    8  0.007  0.001  0.003  0.012
    9  0.000  0.000  0.001  0.002
   10  0.019  0.002  0.006  0.026
   11  0.015  0.002  0.028  0.045
   12  0.005  0.001  0.023  0.029
   13  0.015  0.002  0.028  0.044
   14  0.059  0.001  0.008  0.068
   15  0.003  0.003  0.005  0.011
   16  0.005  0.001  0.023  0.029
   17  0.003  0.003  0.005  0.011
   18  0.011  0.000  0.015  0.026
   19  0.000  0.003  0.006  0.009
   20  0.053  0.001  0.011  0.066
   21  0.013  0.003  0.022  0.038
   22  0.008  0.000  0.029  0.037
   23  0.014  0.003  0.022  0.038
   24  0.032  0.002  0.003  0.038
   25  0.002  0.000  0.013  0.015
   26  0.000  0.003  0.006  0.009
   27  0.008  0.001  0.028  0.037
   28  0.000  0.000  0.001  0.001
   29  0.007  0.001  0.003  0.012
   30  0.001  0.000  0.003  0.004
   31  0.007  0.001  0.003  0.012
   32  0.003  0.001  0.002  0.006
   33  0.001  0.000  0.003  0.004
   34  0.004  0.001  0.002  0.006
   35  0.000  0.000  0.006  0.006
   36  0.000  0.002  0.002  0.004
   37  0.000  0.000  0.000  0.000
tot    0.308  0.043  0.342  0.694
 
band     7 # energy   -6.49385824 # occ.  2.00000000
 
ion      s      p      d    tot
    1  0.025  0.000  0.012  0.038
    2  0.016  0.000  0.017  0.033
    3  0.016  0.000  0.017  0.033
    4  0.016  0.000  0.017  0.033
    5  0.019  0.000  0.017  0.036
    6  0.016  0.000  0.017  0.033
    7  0.016  0.000  0.017  0.033
    8  0.016  0.000  0.017  0.033
    9  0.006  0.001  0.019  0.026
   10  0.002  0.000  0.031  0.033
   11  0.003  0.001  0.026  0.030
   12  0.002  0.000  0.031  0.033
   13  0.003  0.001  0.026  0.030
   14  0.003  0.001  0.026  0.030
   15  0.023  0.001  0.018  0.042
   16  0.002  0.000  0.031  0.033
   17  0.023  0.001  0.018  0.042
   18  0.023  0.001  0.018  0.042
   19  0.001  0.000  0.009  0.011
   20  0.008  0.000  0.008  0.016
   21  0.008  0.000  0.008  0.016
   22  0.001  0.001  0.008  0.010
   23  0.008  0.000  0.008  0.016
   24  0.001  0.001  0.008  0.010
   25  0.001  0.000  0.009  0.011
   26  0.001  0.000  0.009  0.011
   27  0.001  0.001  0.008  0.010
   28  0.000  0.000  0.000  0.000
   29  0.000  0.000  0.001  0.001
   30  0.000  0.000  0.001  0.001
   31  0.000  0.000  0.001  0.001
   32  0.000  0.000  0.001  0.001
   33  0.000  0.000  0.001  0.001
   34  0.000  0.000  0.001  0.001
   35  0.001  0.000  0.000  0.001
   36  0.001  0.001  0.000  0.002
   37  0.001  0.000  0.000  0.001
tot    0.262  0.014  0.456  0.732
 
band     8 # energy   -6.47793809 # occ.  2.00000000
 
ion      s      p      d    tot
    1  0.008  0.001  0.001  0.011
    2  0.000  0.001  0.006  0.007
    3  0.000  0.001  0.006  0.007
    4  0.000  0.001  0.006  0.007
    5  0.015  0.001  0.001  0.018
    6  0.000  0.001  0.006  0.007
    7  0.000  0.001  0.006  0.007
    8  0.000  0.001  0.006  0.007
    9  0.000  0.000  0.001  0.002
   10  0.028  0.003  0.002  0.033
   11  0.017  0.000  0.025  0.042
   12  0.028  0.003  0.002  0.033
   13  0.017  0.000  0.025  0.042
   14  0.017  0.000  0.025  0.042
   15  0.000  0.001  0.021  0.023
   16  0.028  0.003  0.002  0.033
   17  0.000  0.001  0.021  0.023
   18  0.000  0.001  0.021  0.022
   19  0.027  0.003  0.004  0.033
   20  0.003  0.002  0.019  0.024
   21  0.003  0.002  0.019  0.024
   22  0.012  0.000  0.025  0.037
   23  0.003  0.002  0.019  0.024
   24  0.012  0.000  0.026  0.038
   25  0.026  0.003  0.004  0.033
   26  0.027  0.003  0.004  0.033
   27  0.012  0.000  0.025  0.037
   28  0.010  0.001  0.001  0.012
   29  0.000  0.000  0.004  0.005
   30  0.000  0.000  0.004  0.005
   31  0.000  0.000  0.004  0.005
   32  0.000  0.000  0.004  0.005
   33  0.000  0.000  0.004  0.005
   34  0.000  0.000  0.004  0.005
   35  0.006  0.001  0.002  0.009
   36  0.000  0.000  0.000  0.000
   37  0.000  0.000  0.000  0.000
tot    0.301  0.041  0.354  0.695
 
band     9 # energy   -6.45681887 # occ.  2.00000000
 
ion      s      p      d    tot
    1  0.000  0.001  0.006  0.007
    2  0.007  0.001  0.004  0.013
    3  0.007  0.001  0.003  0.011
    4  0.005  0.001  0.004  0.010
    5  0.000  0.000  0.002  0.002
    6  0.000  0.000  0.003  0.004
    7  0.004  0.001  0.003  0.008
    8  0.000  0.000  0.003  0.004
    9  0.000  0.001  0.010  0.011
   10  0.041  0.001  0.014  0.056
   11  0.000  0.003  0.012  0.015
   12  0.018  0.003  0.013  0.034
   13  0.000  0.002  0.012  0.014
   14  0.000  0.001  0.012  0.013
   15  0.006  0.000  0.041  0.047
   16  0.005  0.004  0.013  0.021
   17  0.022  0.001  0.028  0.051
   18  0.050  0.002  0.005  0.057
   19  0.006  0.001  0.033  0.040
   20  0.007  0.001  0.009  0.017
   21  0.003  0.001  0.016  0.020
   22  0.009  0.003  0.011  0.023
   23  0.001  0.001  0.020  0.022
   24  0.022  0.000  0.015  0.037
   25  0.049  0.002  0.005  0.056
   26  0.021  0.001  0.023  0.046
   27  0.002  0.004  0.008  0.015
   28  0.000  0.001  0.007  0.007
   29  0.000  0.000  0.002  0.002
   30  0.003  0.001  0.002  0.006
   31  0.000  0.000  0.002  0.002
   32  0.002  0.001  0.003  0.006
   33  0.004  0.001  0.002  0.007
   34  0.004  0.001  0.003  0.007
   35  0.000  0.001  0.002  0.003
   36  0.000  0.000  0.001  0.001
   37  0.000  0.000  0.000  0.000
tot    0.300  0.042  0.352  0.694
 
band    10 # energy   -6.45675683 # occ.  2.00000000
 
ion      s      p      d    tot
    1  0.000  0.001  0.006  0.007
    2  0.001  0.000  0.003  0.004
    3  0.001  0.000  0.004  0.005
    4  0.003  0.001  0.003  0.007
    5  0.000  0.000  0.002  0.002
    6  0.008  0.001  0.004  0.012
    7  0.004  0.001  0.004  0.009
    8  0.008  0.001  0.004  0.013
    9  0.000  0.001  0.010  0.011
   10  0.001  0.004  0.013  0.018
   11  0.000  0.001  0.012  0.013
   12  0.025  0.002  0.014  0.040
   13  0.000  0.002  0.012  0.014
   14  0.000  0.003  0.012  0.015
   15  0.046  0.002  0.008  0.056
   16  0.038  0.001  0.014  0.053
   17  0.030  0.001  0.021  0.052
   18  0.002  0.000  0.044  0.046
   19  0.045  0.002  0.008  0.055
   20  0.000  0.001  0.021  0.022
   21  0.004  0.001  0.014  0.019
   22  0.013  0.002  0.012  0.027
   23  0.006  0.001  0.010  0.017
   24  0.001  0.004  0.008  0.013
   25  0.002  0.001  0.035  0.038
   26  0.029  0.002  0.018  0.049
   27  0.020  0.001  0.014  0.034
   28  0.000  0.001  0.007  0.007
   29  0.004  0.001  0.003  0.008
   30  0.001  0.000  0.003  0.005
   31  0.005  0.001  0.002  0.008
   32  0.002  0.001  0.002  0.005
   33  0.000  0.000  0.002  0.003
   34  0.001  0.000  0.002  0.003
   35  0.000  0.001  0.002  0.003
   36  0.000  0.000  0.001  0.001
   37  0.000  0.000  0.000  0.000
tot    0.300  0.042  0.352  0.694
 
band    11 # energy   -6.28961138 # occ.  2.00000000
 
ion      s      p      d    tot
    1  0.001  0.000  0.000  0.001
    2  0.001  0.000  0.001  0.002
    3  0.001  0.000  0.001  0.002
    4  0.001  0.000  0.001  0.002
    5  0.003  0.000  0.000  0.004
    6  0.001  0.000  0.001  0.002
    7  0.001  0.000  0.001  0.002
    8  0.001  0.000  0.001  0.002
    9  0.000  0.000  0.001  0.002
   10  0.000  0.000  0.004  0.005
   11  0.001  0.001  0.001  0.003
   12  0.000  0.000  0.004  0.005
   13  0.001  0.001  0.001  0.003
   14  0.001  0.001  0.001  0.003
   15  0.004  0.001  0.004  0.008
   16  0.000  0.000  0.004  0.005
   17  0.004  0.001  0.004  0.008
   18  0.004  0.001  0.004  0.008
   19  0.002  0.001  0.016  0.020
   20  0.002  0.000  0.027  0.029
   21  0.002  0.000  0.027  0.029
   22  0.008  0.002  0.023  0.033
   23  0.002  0.000  0.027  0.029
   24  0.008  0.002  0.023  0.033
   25  0.002  0.001  0.016  0.020
   26  0.002  0.001  0.016  0.020
   27  0.008  0.002  0.023  0.033
   28  0.033  0.000  0.021  0.054
   29  0.024  0.000  0.022  0.046
   30  0.024  0.000  0.022  0.046
   31  0.024  0.000  0.022  0.046
   32  0.024  0.000  0.022  0.046
   33  0.024  0.000  0.022  0.046
   34  0.024  0.000  0.022  0.046
   35  0.030  0.000  0.022  0.052
   36  0.001  0.000  0.019  0.020
   37  0.005  0.000  0.000  0.005
tot    0.278  0.016  0.426  0.720
 
band    12 # energy   -6.01388445 # occ.  2.00000000
 
ion      s      p      d    tot
    1  0.014  0.002  0.002  0.018
    2  0.000  0.001  0.008  0.009
    3  0.000  0.001  0.008  0.009
    4  0.000  0.001  0.008  0.009
    5  0.000  0.000  0.002  0.002
    6  0.000  0.001  0.008  0.009
    7  0.000  0.001  0.008  0.009
    8  0.000  0.001  0.008  0.009
    9  0.018  0.002  0.000  0.019
   10  0.011  0.001  0.014  0.026
   11  0.002  0.000  0.045  0.047
   12  0.011  0.001  0.014  0.027
   13  0.002  0.000  0.045  0.047
   14  0.002  0.000  0.045  0.048
   15  0.004  0.001  0.022  0.027
   16  0.011  0.001  0.014  0.027
   17  0.004  0.001  0.022  0.027
   18  0.004  0.001  0.022  0.027
   19  0.004  0.001  0.014  0.019
   20  0.001  0.000  0.049  0.051
   21  0.001  0.000  0.049  0.051
   22  0.010  0.001  0.017  0.029
   23  0.001  0.000  0.049  0.051
   24  0.010  0.001  0.017  0.029
   25  0.004  0.001  0.014  0.019
   26  0.004  0.001  0.014  0.019
   27  0.010  0.001  0.017  0.029
   28  0.009  0.001  0.001  0.011
   29  0.000  0.000  0.005  0.006
   30  0.000  0.000  0.005  0.006
   31  0.000  0.000  0.005  0.006
   32  0.000  0.000  0.005  0.006
   33  0.000  0.000  0.005  0.006
   34  0.000  0.000  0.005  0.006
   35  0.009  0.001  0.002  0.012
   36  0.000  0.000  0.001  0.002
   37  0.000  0.000  0.000  0.000
tot    0.149  0.028  0.577  0.755
 
band    13 # energy   -6.00704381 # occ.  2.00000000
 
ion      s      p      d    tot
    1  0.000  0.001  0.004  0.005
    2  0.002  0.000  0.004  0.007
    3  0.008  0.001  0.004  0.013
    4  0.007  0.001  0.005  0.013
    5  0.000  0.001  0.011  0.012
    6  0.010  0.001  0.004  0.015
    7  0.002  0.001  0.005  0.008
    8  0.000  0.000  0.005  0.005
    9  0.000  0.000  0.008  0.008
   10  0.005  0.001  0.031  0.037
   11  0.002  0.000  0.047  0.049
   12  0.010  0.002  0.010  0.022
   13  0.021  0.001  0.013  0.035
   14  0.010  0.001  0.032  0.043
   15  0.000  0.001  0.011  0.013
   16  0.001  0.001  0.048  0.049
   17  0.002  0.000  0.022  0.025
   18  0.001  0.001  0.016  0.018
   19  0.001  0.001  0.015  0.017
   20  0.011  0.001  0.039  0.050
   21  0.021  0.002  0.010  0.032
   22  0.003  0.001  0.015  0.019
   23  0.002  0.000  0.063  0.065
   24  0.001  0.001  0.024  0.026
   25  0.004  0.001  0.017  0.022
   26  0.008  0.000  0.020  0.028
   27  0.000  0.001  0.031  0.032
   28  0.000  0.001  0.008  0.009
   29  0.001  0.001  0.004  0.006
   30  0.006  0.001  0.004  0.011
   31  0.009  0.001  0.004  0.013
   32  0.010  0.001  0.004  0.015
   33  0.004  0.001  0.004  0.009
   34  0.000  0.000  0.004  0.005
   35  0.000  0.000  0.003  0.003
   36  0.000  0.002  0.002  0.004
   37  0.000  0.000  0.000  0.000
tot    0.161  0.032  0.553  0.746
 
band    14 # energy   -6.00703725 # occ.  2.00000000
 
ion      s      p      d    tot
    1  0.000  0.001  0.004  0.005
    2  0.007  0.001  0.005  0.013
    3  0.002  0.001  0.005  0.008
    4  0.003  0.001  0.004  0.008
    5  0.000  0.001  0.011  0.012
    6  0.000  0.000  0.005  0.005
    7  0.007  0.001  0.004  0.012
    8  0.010  0.001  0.004  0.015
    9  0.000  0.000  0.008  0.008
   10  0.005  0.001  0.028  0.035
   11  0.020  0.001  0.015  0.036
   12  0.001  0.001  0.049  0.050
   13  0.001  0.000  0.048  0.050
   14  0.012  0.001  0.030  0.042
   15  0.002  0.000  0.022  0.024
   16  0.009  0.002  0.011  0.022
   17  0.000  0.001  0.011  0.012
   18  0.001  0.001  0.017  0.019
   19  0.008  0.000  0.020  0.028
   20  0.012  0.001  0.036  0.048
   21  0.001  0.000  0.065  0.066
   22  0.000  0.001  0.031  0.033
   23  0.020  0.002  0.011  0.033
   24  0.002  0.001  0.023  0.026
   25  0.005  0.001  0.018  0.023
   26  0.000  0.001  0.015  0.016
   27  0.003  0.001  0.016  0.020
   28  0.000  0.001  0.008  0.009
   29  0.009  0.001  0.004  0.014
   30  0.004  0.001  0.004  0.008
   31  0.001  0.001  0.004  0.006
   32  0.000  0.000  0.004  0.005
   33  0.006  0.001  0.004  0.011
   34  0.010  0.001  0.004  0.015
   35  0.000  0.000  0.003  0.003
   36  0.000  0.002  0.002  0.004
   37  0.000  0.000  0.000  0.000
tot    0.161  0.032  0.553  0.746
 
band    15 # energy   -5.97212117 # occ.  2.00000000
 
ion      s      p      d    tot
    1  0.009  0.000  0.001  0.010
    2  0.000  0.001  0.008  0.009
    3  0.000  0.001  0.008  0.009
    4  0.000  0.001  0.008  0.009
    5  0.018  0.002  0.001  0.021
    6  0.000  0.001  0.008  0.009
    7  0.000  0.001  0.008  0.009
    8  0.000  0.001  0.008  0.009
    9  0.002  0.000  0.002  0.005
   10  0.000  0.000  0.040  0.040
   11  0.007  0.001  0.010  0.019
   12  0.000  0.000  0.040  0.040
   13  0.007  0.001  0.010  0.019
   14  0.007  0.001  0.010  0.019
   15  0.006  0.001  0.028  0.035
   16  0.000  0.000  0.040  0.040
   17  0.006  0.001  0.028  0.035
   18  0.006  0.001  0.028  0.035
   19  0.010  0.000  0.041  0.052
   20  0.009  0.002  0.007  0.018
   21  0.009  0.002  0.007  0.018
   22  0.001  0.000  0.037  0.038
   23  0.009  0.002  0.007  0.018
   24  0.000  0.000  0.037  0.038
   25  0.010  0.000  0.041  0.052
   26  0.010  0.000  0.041  0.052
   27  0.001  0.000  0.037  0.038
   28  0.000  0.001  0.008  0.009
   29  0.001  0.000  0.006  0.007
   30  0.001  0.000  0.006  0.007
   31  0.001  0.000  0.006  0.007
   32  0.001  0.000  0.006  0.007
   33  0.001  0.000  0.006  0.007
   34  0.001  0.000  0.006  0.007
   35  0.001  0.000  0.001  0.002
   36  0.007  0.005  0.000  0.012
   37  0.003  0.000  0.000  0.003
tot    0.142  0.029  0.589  0.761
 
band    16 # energy   -5.96414448 # occ.  2.00000000
 
ion      s      p      d    tot
    1  0.000  0.001  0.014  0.014
    2  0.010  0.001  0.004  0.015
    3  0.002  0.000  0.005  0.008
    4  0.010  0.001  0.005  0.016
    5  0.000  0.000  0.005  0.005
    6  0.004  0.001  0.005  0.010
    7  0.001  0.000  0.005  0.007
    8  0.003  0.001  0.005  0.009
    9  0.000  0.001  0.007  0.009
   10  0.000  0.001  0.026  0.027
   11  0.001  0.001  0.020  0.022
   12  0.007  0.000  0.023  0.030
   13  0.001  0.001  0.020  0.022
   14  0.000  0.001  0.022  0.023
   15  0.013  0.002  0.018  0.033
   16  0.008  0.000  0.022  0.030
   17  0.011  0.002  0.024  0.037
   18  0.000  0.000  0.065  0.065
   19  0.013  0.001  0.017  0.031
   20  0.000  0.002  0.018  0.019
   21  0.000  0.001  0.022  0.022
   22  0.016  0.001  0.022  0.039
   23  0.000  0.000  0.022  0.023
   24  0.000  0.000  0.036  0.036
   25  0.000  0.000  0.065  0.065
   26  0.011  0.001  0.023  0.036
   27  0.019  0.001  0.020  0.040
   28  0.000  0.001  0.004  0.005
   29  0.005  0.001  0.004  0.011
   30  0.000  0.000  0.004  0.005
   31  0.006  0.001  0.004  0.011
   32  0.004  0.001  0.002  0.007
   33  0.000  0.000  0.004  0.005
   34  0.003  0.001  0.002  0.006
   35  0.000  0.001  0.008  0.008
   36  0.000  0.000  0.000  0.001
   37  0.000  0.000  0.000  0.000
tot    0.149  0.029  0.574  0.752
 
band    17 # energy   -5.96411668 # occ.  2.00000000
 
ion      s      p      d    tot
    1  0.000  0.001  0.014  0.014
    2  0.000  0.001  0.005  0.006
    3  0.008  0.001  0.005  0.014
    4  0.000  0.000  0.005  0.006
    5  0.000  0.000  0.005  0.005
    6  0.006  0.001  0.005  0.011
    7  0.009  0.001  0.005  0.015
    8  0.007  0.001  0.004  0.013
    9  0.000  0.001  0.007  0.009
   10  0.010  0.000  0.021  0.031
   11  0.000  0.001  0.021  0.023
   12  0.003  0.001  0.025  0.028
   13  0.000  0.001  0.021  0.023
   14  0.001  0.001  0.019  0.022
   15  0.003  0.000  0.054  0.058
   16  0.002  0.001  0.025  0.028
   17  0.005  0.001  0.047  0.053
   18  0.016  0.002  0.006  0.025
   19  0.003  0.001  0.053  0.057
   20  0.000  0.000  0.023  0.024
   21  0.000  0.001  0.020  0.021
   22  0.007  0.001  0.030  0.037
   23  0.000  0.001  0.019  0.020
   24  0.023  0.001  0.017  0.041
   25  0.016  0.001  0.005  0.022
   26  0.005  0.001  0.047  0.052
   27  0.005  0.000  0.032  0.037
   28  0.000  0.001  0.004  0.005
   29  0.001  0.000  0.003  0.004
   30  0.006  0.001  0.003  0.009
   31  0.000  0.000  0.003  0.004
   32  0.002  0.001  0.005  0.008
   33  0.006  0.001  0.003  0.010
   34  0.003  0.001  0.005  0.009
   35  0.000  0.001  0.008  0.008
   36  0.000  0.000  0.000  0.001
   37  0.000  0.000  0.000  0.000
tot    0.149  0.029  0.574  0.752
 
band    18 # energy   -5.62369674 # occ.  2.00000000
 
ion      s      p      d    tot
    1  0.000  0.000  0.014  0.014
    2  0.002  0.000  0.014  0.016
    3  0.001  0.000  0.013  0.015
    4  0.003  0.001  0.008  0.012
    5  0.000  0.000  0.027  0.028
    6  0.002  0.001  0.009  0.011
    7  0.009  0.001  0.011  0.020
    8  0.008  0.000  0.012  0.021
    9  0.000  0.001  0.007  0.008
   10  0.000  0.000  0.013  0.014
   11  0.000  0.000  0.048  0.049
   12  0.000  0.000  0.015  0.015
   13  0.000  0.000  0.045  0.046
   14  0.000  0.000  0.046  0.046
   15  0.000  0.000  0.024  0.024
   16  0.000  0.000  0.008  0.008
   17  0.000  0.000  0.042  0.042
   18  0.000  0.000  0.038  0.039
   19  0.000  0.000  0.010  0.011
   20  0.001  0.000  0.045  0.046
   21  0.001  0.000  0.047  0.048
   22  0.000  0.000  0.037  0.037
   23  0.000  0.000  0.034  0.034
   24  0.000  0.000  0.036  0.037
   25  0.000  0.000  0.012  0.013
   26  0.001  0.000  0.012  0.013
   27  0.000  0.000  0.037  0.037
   28  0.000  0.000  0.013  0.014
   29  0.001  0.001  0.011  0.013
   30  0.003  0.001  0.012  0.015
   31  0.011  0.001  0.009  0.020
   32  0.011  0.001  0.010  0.021
   33  0.005  0.001  0.006  0.011
   34  0.003  0.001  0.006  0.010
   35  0.000  0.000  0.017  0.017
   36  0.000  0.002  0.001  0.003
   37  0.000  0.000  0.000  0.000
tot    0.063  0.016  0.749  0.827
 
band    19 # energy   -5.62368975 # occ.  2.00000000
 
ion      s      p      d    tot
    1  0.000  0.000  0.014  0.014
    2  0.006  0.001  0.009  0.015
    3  0.007  0.001  0.009  0.017
    4  0.005  0.000  0.014  0.020
    5  0.000  0.000  0.027  0.028
    6  0.006  0.000  0.014  0.021
    7  0.000  0.000  0.011  0.012
    8  0.000  0.000  0.010  0.011
    9  0.000  0.001  0.007  0.008
   10  0.000  0.000  0.010  0.011
   11  0.000  0.000  0.045  0.045
   12  0.000  0.000  0.009  0.009
   13  0.000  0.000  0.048  0.048
   14  0.000  0.000  0.047  0.047
   15  0.000  0.000  0.045  0.046
   16  0.000  0.000  0.016  0.017
   17  0.000  0.000  0.027  0.028
   18  0.000  0.000  0.031  0.031
   19  0.001  0.000  0.013  0.013
   20  0.000  0.000  0.039  0.040
   21  0.000  0.000  0.037  0.037
   22  0.000  0.000  0.037  0.037
   23  0.001  0.000  0.050  0.051
   24  0.000  0.000  0.037  0.037
   25  0.000  0.000  0.011  0.012
   26  0.000  0.000  0.011  0.011
   27  0.000  0.000  0.037  0.037
   28  0.000  0.000  0.013  0.014
   29  0.010  0.001  0.007  0.017
   30  0.009  0.001  0.006  0.015
   31  0.000  0.001  0.009  0.010
   32  0.000  0.001  0.008  0.009
   33  0.006  0.001  0.012  0.019
   34  0.008  0.001  0.011  0.020
   35  0.000  0.000  0.017  0.017
   36  0.000  0.002  0.001  0.003
   37  0.000  0.000  0.000  0.000
tot    0.063  0.016  0.749  0.827
 
band    20 # energy   -5.60831045 # occ.  2.00000000
 
ion      s      p      d    tot
    1  0.015  0.001  0.003  0.019
    2  0.000  0.001  0.012  0.013
    3  0.000  0.001  0.012  0.013
    4  0.000  0.001  0.012  0.013
    5  0.003  0.000  0.014  0.017
    6  0.000  0.001  0.012  0.013
    7  0.000  0.001  0.012  0.013
    8  0.000  0.001  0.012  0.013
    9  0.004  0.001  0.003  0.009
   10  0.000  0.000  0.027  0.027
   11  0.000  0.000  0.045  0.045
   12  0.000  0.000  0.027  0.027
   13  0.000  0.000  0.045  0.045
   14  0.000  0.000  0.045  0.045
   15  0.000  0.000  0.036  0.037
   16  0.000  0.000  0.027  0.027
   17  0.000  0.000  0.036  0.037
   18  0.000  0.000  0.036  0.036
   19  0.000  0.000  0.024  0.024
   20  0.001  0.000  0.037  0.038
   21  0.001  0.000  0.037  0.038
   22  0.001  0.000  0.032  0.033
   23  0.001  0.000  0.037  0.038
   24  0.001  0.000  0.032  0.033
   25  0.000  0.000  0.024  0.024
   26  0.000  0.000  0.024  0.024
   27  0.001  0.000  0.032  0.033
   28  0.011  0.001  0.000  0.011
   29  0.000  0.001  0.011  0.012
   30  0.000  0.001  0.011  0.012
   31  0.000  0.001  0.011  0.012
   32  0.000  0.001  0.011  0.012
   33  0.000  0.001  0.011  0.012
   34  0.000  0.001  0.011  0.012
   35  0.011  0.000  0.003  0.014
   36  0.000  0.001  0.003  0.004
   37  0.000  0.000  0.000  0.000
tot    0.050  0.014  0.768  0.832
 
band    21 # energy   -5.59377553 # occ.  2.00000000
 
ion      s      p      d    tot
    1  0.000  0.000  0.009  0.010
    2  0.000  0.001  0.017  0.018
    3  0.000  0.001  0.017  0.018
    4  0.000  0.001  0.017  0.018
    5  0.022  0.001  0.000  0.024
    6  0.000  0.001  0.017  0.018
    7  0.000  0.001  0.017  0.018
    8  0.000  0.001  0.017  0.018
    9  0.017  0.000  0.010  0.027
   10  0.000  0.000  0.046  0.046
   11  0.000  0.001  0.037  0.037
   12  0.000  0.000  0.046  0.046
   13  0.000  0.001  0.037  0.037
   14  0.000  0.001  0.036  0.037
   15  0.000  0.000  0.033  0.033
   16  0.000  0.000  0.046  0.046
   17  0.000  0.000  0.033  0.033
   18  0.000  0.000  0.033  0.033
   19  0.001  0.000  0.026  0.028
   20  0.000  0.000  0.032  0.032
   21  0.000  0.000  0.032  0.032
   22  0.000  0.000  0.018  0.018
   23  0.000  0.000  0.031  0.032
   24  0.000  0.000  0.018  0.018
   25  0.001  0.000  0.026  0.028
   26  0.001  0.000  0.026  0.028
   27  0.000  0.000  0.018  0.018
   28  0.003  0.000  0.005  0.008
   29  0.000  0.000  0.009  0.009
   30  0.000  0.000  0.009  0.009
   31  0.000  0.000  0.009  0.009
   32  0.000  0.000  0.009  0.009
   33  0.000  0.000  0.009  0.009
   34  0.000  0.000  0.009  0.009
   35  0.000  0.000  0.003  0.003
   36  0.003  0.001  0.003  0.007