PROCAR new format
# of k-points:   10         # of bands:  252         # of ions:   39

 k-point     1 :    0.00000000 0.00000000 0.00000000     weight = 0.01562500

band     1 # energy  -24.86980004 # occ.  2.00000000
 
ion      s      p      d    tot
    1  0.000  0.000  0.000  0.000
    2  0.000  0.000  0.000  0.000
    3  0.000  0.000  0.000  0.000
    4  0.000  0.000  0.000  0.000
    5  0.000  0.000  0.000  0.000
    6  0.000  0.000  0.000  0.000
    7  0.000  0.000  0.000  0.000
    8  0.000  0.000  0.000  0.000
    9  0.000  0.000  0.000  0.000
   10  0.000  0.000  0.000  0.000
   11  0.000  0.000  0.000  0.000
   12  0.000  0.000  0.000  0.000
   13  0.000  0.000  0.000  0.000
   14  0.000  0.000  0.000  0.000
   15  0.000  0.000  0.000  0.000
   16  0.000  0.000  0.000  0.000
   17  0.000  0.000  0.000  0.000
   18  0.000  0.000  0.000  0.000
   19  0.000  0.000  0.000  0.000
   20  0.000  0.000  0.000  0.000
   21  0.000  0.000  0.000  0.000
   22  0.000  0.000  0.000  0.000
   23  0.000  0.000  0.000  0.000
   24  0.000  0.000  0.000  0.000
   25  0.000  0.000  0.000  0.000
   26  0.000  0.000  0.000  0.000
   27  0.000  0.000  0.000  0.000
   28  0.000  0.000  0.000  0.000
   29  0.000  0.000  0.000  0.000
   30  0.000  0.000  0.000  0.000
   31  0.000  0.000  0.000  0.000
   32  0.000  0.000  0.000  0.000
   33  0.000  0.000  0.000  0.000
   34  0.000  0.000  0.000  0.000
   35  0.000  0.000  0.000  0.000
   36  0.000  0.000  0.000  0.000
   37  0.083  0.060  0.000  0.144
   38  0.722  0.010  0.000  0.732
   39  0.055  0.012  0.000  0.067
tot    0.861  0.082  0.000  0.943
 
band     2 # energy  -15.48448303 # occ.  2.00000000
 
ion      s      p      d    tot
    1  0.000  0.000  0.000  0.000
    2  0.000  0.000  0.000  0.000
    3  0.000  0.000  0.000  0.000
    4  0.000  0.000  0.000  0.000
    5  0.000  0.000  0.000  0.000
    6  0.000  0.000  0.000  0.000
    7  0.000  0.000  0.000  0.000
    8  0.000  0.000  0.000  0.000
    9  0.000  0.000  0.000  0.000
   10  0.000  0.000  0.000  0.000
   11  0.000  0.000  0.000  0.000
   12  0.000  0.000  0.000  0.000
   13  0.000  0.000  0.000  0.000
   14  0.000  0.000  0.000  0.000
   15  0.000  0.000  0.000  0.000
   16  0.000  0.000  0.000  0.000
   17  0.000  0.000  0.000  0.000
   18  0.000  0.000  0.000  0.000
   19  0.000  0.000  0.000  0.000
   20  0.000  0.000  0.000  0.000
   21  0.000  0.000  0.000  0.000
   22  0.000  0.000  0.000  0.000
   23  0.000  0.000  0.000  0.000
   24  0.000  0.000  0.000  0.000
   25  0.000  0.000  0.000  0.000
   26  0.000  0.000  0.000  0.000
   27  0.000  0.000  0.000  0.000
   28  0.000  0.000  0.000  0.000
   29  0.000  0.000  0.000  0.000
   30  0.000  0.000  0.000  0.000
   31  0.000  0.000  0.000  0.000
   32  0.000  0.000  0.000  0.000
   33  0.000  0.000  0.000  0.000
   34  0.000  0.000  0.000  0.000
   35  0.000  0.000  0.000  0.000
   36  0.004  0.003  0.005  0.012
   37  0.165  0.044  0.000  0.209
   38  0.022  0.515  0.000  0.538
   39  0.197  0.031  0.000  0.228
tot    0.388  0.594  0.005  0.987
 
band     3 # energy   -9.49128056 # occ.  2.00000000
 
ion      s      p      d    tot
    1  0.000  0.000  0.000  0.000
    2  0.000  0.000  0.000  0.000
    3  0.000  0.000  0.000  0.000
    4  0.000  0.000  0.000  0.000
    5  0.000  0.000  0.000  0.000
    6  0.000  0.000  0.000  0.000
    7  0.000  0.000  0.000  0.000
    8  0.000  0.000  0.000  0.000
    9  0.000  0.000  0.000  0.000
   10  0.000  0.000  0.000  0.000
   11  0.000  0.000  0.000  0.000
   12  0.000  0.000  0.000  0.000
   13  0.000  0.000  0.000  0.000
   14  0.000  0.000  0.000  0.000
   15  0.000  0.000  0.000  0.000
   16  0.000  0.000  0.000  0.000
   17  0.000  0.000  0.000  0.000
   18  0.000  0.000  0.000  0.000
   19  0.000  0.000  0.000  0.000
   20  0.001  0.001  0.002  0.004
   21  0.001  0.001  0.002  0.004
   22  0.000  0.000  0.000  0.000
   23  0.001  0.001  0.002  0.004
   24  0.000  0.000  0.000  0.000
   25  0.000  0.000  0.000  0.000
   26  0.000  0.000  0.000  0.000
   27  0.000  0.000  0.000  0.000
   28  0.000  0.000  0.000  0.000
   29  0.001  0.000  0.000  0.001
   30  0.001  0.000  0.000  0.001
   31  0.001  0.000  0.000  0.001
   32  0.001  0.000  0.000  0.001
   33  0.001  0.000  0.000  0.001
   34  0.001  0.000  0.000  0.001
   35  0.000  0.000  0.000  0.000
   36  0.145  0.062  0.292  0.499
   37  0.170  0.190  0.000  0.360
   38  0.010  0.054  0.000  0.064
   39  0.015  0.001  0.000  0.016
tot    0.348  0.311  0.300  0.959
 
band     4 # energy   -7.66990830 # occ.  2.00000000
 
ion      s      p      d    tot
    1  0.000  0.000  0.000  0.000
    2  0.000  0.000  0.000  0.000
    3  0.000  0.000  0.000  0.000
    4  0.000  0.000  0.000  0.000
    5  0.000  0.000  0.000  0.000
    6  0.000  0.000  0.000  0.000
    7  0.000  0.000  0.000  0.000
    8  0.000  0.000  0.000  0.000
    9  0.000  0.000  0.000  0.000
   10  0.000  0.000  0.000  0.000
   11  0.000  0.000  0.000  0.000
   12  0.000  0.000  0.000  0.000
   13  0.000  0.000  0.000  0.000
   14  0.000  0.000  0.000  0.000
   15  0.000  0.000  0.000  0.000
   16  0.000  0.000  0.000  0.000
   17  0.000  0.000  0.000  0.000
   18  0.000  0.000  0.000  0.000
   19  0.000  0.000  0.000  0.000
   20  0.000  0.000  0.000  0.000
   21  0.000  0.000  0.000  0.000
   22  0.000  0.000  0.000  0.000
   23  0.000  0.000  0.000  0.000
   24  0.000  0.000  0.000  0.000
   25  0.000  0.000  0.000  0.000
   26  0.000  0.000  0.000  0.000
   27  0.000  0.000  0.000  0.000
   28  0.000  0.000  0.000  0.000
   29  0.000  0.000  0.001  0.001
   30  0.000  0.000  0.000  0.000
   31  0.000  0.000  0.001  0.001
   32  0.000  0.000  0.001  0.001
   33  0.000  0.000  0.000  0.000
   34  0.000  0.000  0.001  0.001
   35  0.000  0.000  0.000  0.000
   36  0.000  0.002  0.032  0.034
   37  0.000  0.124  0.000  0.124
   38  0.000  0.518  0.000  0.518
   39  0.000  0.007  0.000  0.007
tot    0.001  0.651  0.035  0.688
 
band     5 # energy   -7.66971479 # occ.  2.00000000
 
ion      s      p      d    tot
    1  0.000  0.000  0.000  0.000
    2  0.000  0.000  0.000  0.000
    3  0.000  0.000  0.000  0.000
    4  0.000  0.000  0.000  0.000
    5  0.000  0.000  0.000  0.000
    6  0.000  0.000  0.000  0.000
    7  0.000  0.000  0.000  0.000
    8  0.000  0.000  0.000  0.000
    9  0.000  0.000  0.000  0.000
   10  0.000  0.000  0.000  0.000
   11  0.000  0.000  0.000  0.000
   12  0.000  0.000  0.000  0.000
   13  0.000  0.000  0.000  0.000
   14  0.000  0.000  0.000  0.000
   15  0.000  0.000  0.000  0.000
   16  0.000  0.000  0.000  0.000
   17  0.000  0.000  0.000  0.000
   18  0.000  0.000  0.000  0.000
   19  0.000  0.000  0.000  0.000
   20  0.000  0.000  0.000  0.000
   21  0.000  0.000  0.000  0.000
   22  0.000  0.000  0.000  0.000
   23  0.000  0.000  0.000  0.000
   24  0.000  0.000  0.000  0.000
   25  0.000  0.000  0.000  0.000
   26  0.000  0.000  0.000  0.000
   27  0.000  0.000  0.000  0.000
   28  0.000  0.000  0.000  0.000
   29  0.000  0.000  0.000  0.000
   30  0.000  0.000  0.001  0.001
   31  0.000  0.000  0.000  0.000
   32  0.000  0.000  0.000  0.000
   33  0.000  0.000  0.001  0.001
   34  0.000  0.000  0.000  0.000
   35  0.000  0.000  0.000  0.000
   36  0.000  0.002  0.032  0.034
   37  0.000  0.124  0.000  0.124
   38  0.000  0.518  0.000  0.518
   39  0.000  0.007  0.000  0.007
tot    0.001  0.651  0.035  0.688
 
band     6 # energy   -6.51425372 # occ.  2.00000000
 
ion      s      p      d    tot
    1  0.006  0.001  0.000  0.006
    2  0.006  0.001  0.000  0.006
    3  0.006  0.001  0.000  0.006
    4  0.006  0.001  0.000  0.006
    5  0.006  0.001  0.000  0.006
    6  0.006  0.001  0.000  0.006
    7  0.006  0.001  0.000  0.006
    8  0.006  0.001  0.000  0.006
    9  0.006  0.001  0.000  0.006
   10  0.022  0.000  0.000  0.022
   11  0.023  0.000  0.000  0.023
   12  0.022  0.000  0.000  0.022
   13  0.023  0.000  0.000  0.023
   14  0.023  0.000  0.000  0.023
   15  0.022  0.000  0.000  0.023
   16  0.022  0.000  0.000  0.022
   17  0.022  0.000  0.000  0.023
   18  0.022  0.000  0.000  0.023
   19  0.022  0.000  0.000  0.022
   20  0.024  0.000  0.000  0.024
   21  0.024  0.000  0.000  0.024
   22  0.023  0.000  0.000  0.024
   23  0.024  0.000  0.000  0.024
   24  0.023  0.000  0.000  0.024
   25  0.022  0.000  0.000  0.022
   26  0.022  0.000  0.000  0.022
   27  0.023  0.000  0.000  0.024
   28  0.006  0.001  0.000  0.006
   29  0.007  0.001  0.000  0.007
   30  0.007  0.001  0.000  0.007
   31  0.007  0.001  0.000  0.007
   32  0.007  0.001  0.000  0.007
   33  0.007  0.001  0.000  0.007
   34  0.007  0.001  0.000  0.007
   35  0.006  0.001  0.000  0.007
   36  0.008  0.004  0.011  0.023
   37  0.002  0.002  0.000  0.004
   38  0.000  0.000  0.000  0.000
   39  0.000  0.000  0.000  0.000
tot    0.519  0.018  0.017  0.553
 
band     7 # energy   -5.67733318 # occ.  2.00000000
 
ion      s      p      d    tot
    1  0.009  0.000  0.001  0.011
    2  0.010  0.000  0.001  0.011
    3  0.010  0.000  0.001  0.011
    4  0.010  0.000  0.001  0.011
    5  0.009  0.000  0.001  0.010
    6  0.010  0.000  0.001  0.011
    7  0.010  0.000  0.001  0.011
    8  0.010  0.000  0.001  0.011
    9  0.010  0.000  0.001  0.011
   10  0.012  0.001  0.008  0.021
   11  0.011  0.001  0.010  0.022
   12  0.012  0.001  0.008  0.021
   13  0.011  0.001  0.010  0.022
   14  0.011  0.001  0.010  0.022
   15  0.013  0.001  0.009  0.022
   16  0.012  0.001  0.008  0.021
   17  0.013  0.001  0.009  0.022
   18  0.013  0.001  0.009  0.022
   19  0.005  0.001  0.005  0.012
   20  0.009  0.002  0.002  0.013
   21  0.009  0.002  0.002  0.013
   22  0.007  0.001  0.007  0.015
   23  0.009  0.002  0.002  0.013
   24  0.007  0.001  0.007  0.015
   25  0.005  0.001  0.005  0.012
   26  0.005  0.001  0.005  0.012
   27  0.007  0.001  0.007  0.015
   28  0.009  0.000  0.002  0.012
   29  0.014  0.001  0.006  0.020
   30  0.014  0.001  0.006  0.020
   31  0.014  0.001  0.006  0.020
   32  0.014  0.001  0.006  0.020
   33  0.014  0.001  0.006  0.020
   34  0.014  0.001  0.006  0.020
   35  0.010  0.000  0.002  0.012
   36  0.031  0.003  0.040  0.075
   37  0.002  0.002  0.000  0.003
   38  0.000  0.000  0.000  0.000
   39  0.000  0.000  0.000  0.000
tot    0.388  0.033  0.212  0.633
 
band     8 # energy   -5.47051239 # occ.  2.00000000
 
ion      s      p      d    tot
    1  0.000  0.000  0.004  0.005
    2  0.001  0.000  0.002  0.003
    3  0.001  0.000  0.002  0.003
    4  0.001  0.000  0.002  0.003
    5  0.001  0.000  0.002  0.002
    6  0.001  0.000  0.002  0.003
    7  0.001  0.000  0.002  0.003
    8  0.001  0.000  0.002  0.003
    9  0.001  0.000  0.002  0.003
   10  0.001  0.000  0.017  0.018
   11  0.001  0.000  0.014  0.016
   12  0.001  0.000  0.017  0.018
   13  0.001  0.000  0.014  0.016
   14  0.001  0.000  0.014  0.016
   15  0.000  0.000  0.013  0.014
   16  0.001  0.000  0.017  0.018
   17  0.000  0.000  0.013  0.014
   18  0.000  0.000  0.013  0.014
   19  0.008  0.000  0.026  0.035
   20  0.002  0.000  0.054  0.056
   21  0.002  0.000  0.054  0.056
   22  0.006  0.000  0.024  0.030
   23  0.002  0.000  0.054  0.056
   24  0.006  0.000  0.024  0.030
   25  0.008  0.000  0.026  0.035
   26  0.008  0.000  0.026  0.035
   27  0.006  0.000  0.024  0.030
   28  0.001  0.000  0.013  0.015
   29  0.006  0.000  0.023  0.029
   30  0.006  0.000  0.023  0.029
   31  0.006  0.000  0.023  0.029
   32  0.006  0.000  0.023  0.029
   33  0.006  0.000  0.023  0.029
   34  0.006  0.000  0.023  0.029
   35  0.002  0.000  0.011  0.014
   36  0.033  0.000  0.049  0.083
   37  0.000  0.000  0.000  0.000
   38  0.000  0.000  0.000  0.000
   39  0.000  0.000  0.000  0.000
tot    0.135  0.005  0.680  0.820
 
band     9 # energy   -5.27179424 # occ.  2.00000000
 
ion      s      p      d    tot
    1  0.023  0.000  0.016  0.039
    2  0.014  0.000  0.028  0.042
    3  0.014  0.000  0.028  0.042
    4  0.014  0.000  0.028  0.042
    5  0.015  0.000  0.035  0.050
    6  0.014  0.000  0.028  0.042
    7  0.014  0.000  0.028  0.042
    8  0.014  0.000  0.028  0.042
    9  0.008  0.000  0.032  0.040
   10  0.000  0.001  0.026  0.027
   11  0.000  0.000  0.027  0.028
   12  0.000  0.001  0.026  0.027
   13  0.000  0.000  0.027  0.028
   14  0.000  0.000  0.027  0.028
   15  0.006  0.001  0.015  0.022
   16  0.000  0.001  0.026  0.027
   17  0.006  0.001  0.015  0.022
   18  0.006  0.001  0.015  0.022
   19  0.004  0.000  0.004  0.008
   20  0.000  0.000  0.009  0.009
   21  0.000  0.000  0.009  0.009
   22  0.003  0.000  0.005  0.008
   23  0.000  0.000  0.009  0.009
   24  0.003  0.000  0.005  0.008
   25  0.004  0.000  0.004  0.008
   26  0.004  0.000  0.004  0.008
   27  0.003  0.000  0.005  0.008
   28  0.001  0.000  0.002  0.004
   29  0.000  0.000  0.009  0.010
   30  0.000  0.000  0.009  0.010
   31  0.000  0.000  0.009  0.010
   32  0.000  0.000  0.009  0.010
   33  0.000  0.000  0.009  0.010
   34  0.000  0.000  0.009  0.010
   35  0.001  0.000  0.000  0.001
   36  0.012  0.001  0.011  0.024
   37  0.000  0.000  0.000  0.000
   38  0.000  0.000  0.000  0.000
   39  0.000  0.000  0.000  0.000
tot    0.185  0.012  0.578  0.774
 
band    10 # energy   -5.25547953 # occ.  2.00000000
 
ion      s      p      d    tot
    1  0.000  0.000  0.008  0.009
    2  0.000  0.000  0.002  0.003
    3  0.001  0.000  0.003  0.003
    4  0.000  0.000  0.002  0.003
    5  0.000  0.000  0.005  0.005
    6  0.001  0.000  0.003  0.004
    7  0.001  0.000  0.003  0.003
    8  0.001  0.000  0.003  0.004
    9  0.000  0.000  0.000  0.000
   10  0.014  0.001  0.009  0.024
   11  0.002  0.001  0.027  0.031
   12  0.003  0.000  0.027  0.030
   13  0.003  0.001  0.027  0.031
   14  0.010  0.000  0.018  0.028
   15  0.000  0.000  0.015  0.015
   16  0.003  0.000  0.027  0.031
   17  0.000  0.000  0.015  0.015
   18  0.000  0.000  0.014  0.015
   19  0.003  0.001  0.012  0.016
   20  0.040  0.000  0.013  0.053
   21  0.010  0.001  0.073  0.083
   22  0.001  0.000  0.057  0.059
   23  0.010  0.001  0.073  0.084
   24  0.006  0.001  0.012  0.019
   25  0.011  0.000  0.036  0.047
   26  0.003  0.001  0.012  0.016
   27  0.001  0.000  0.058  0.060
   28  0.000  0.000  0.002  0.002
   29  0.002  0.001  0.008  0.011
   30  0.001  0.000  0.007  0.008
   31  0.002  0.001  0.008  0.011
   32  0.000  0.000  0.006  0.007
   33  0.001  0.000  0.006  0.008
   34  0.000  0.000  0.006  0.007
   35  0.000  0.000  0.004  0.004
   36  0.000  0.001  0.041  0.043
   37  0.000  0.000  0.000  0.000
   38  0.000  0.005  0.000  0.005
   39  0.000  0.000  0.000  0.000
tot    0.132  0.023  0.643  0.798
 
band    11 # energy   -5.25545999 # occ.  2.00000000
 
ion      s      p      d    tot
    1  0.000  0.000  0.008  0.009
    2  0.001  0.000  0.003  0.004
    3  0.001  0.000  0.002  0.004
    4  0.001  0.000  0.003  0.004
    5  0.000  0.000  0.005  0.005
    6  0.000  0.000  0.002  0.003
    7  0.001  0.000  0.002  0.004
    8  0.000  0.000  0.002  0.003
    9  0.000  0.000  0.000  0.000
   10  0.000  0.000  0.032  0.033
   11  0.007  0.001  0.021  0.029
   12  0.010  0.001  0.015  0.026
   13  0.007  0.001  0.021  0.029
   14  0.000  0.001  0.030  0.031
   15  0.000  0.000  0.014  0.015
   16  0.010  0.001  0.015  0.026
   17  0.000  0.000  0.014  0.015
   18  0.000  0.000  0.015  0.015
   19  0.008  0.001  0.028  0.037
   20  0.000  0.001  0.093  0.094
   21  0.030  0.000  0.033  0.064
   22  0.004  0.001  0.028  0.033
   23  0.030  0.000  0.032  0.063
   24  0.000  0.000  0.073  0.073
   25  0.000  0.002  0.004  0.006
   26  0.008  0.001  0.028  0.037
   27  0.004  0.001  0.027  0.032
   28  0.000  0.000  0.002  0.002
   29  0.000  0.000  0.006  0.006
   30  0.001  0.001  0.007  0.009
   31  0.000  0.000  0.006  0.006
   32  0.002  0.001  0.008  0.010
   33  0.001  0.001  0.007  0.009
   34  0.002  0.001  0.008  0.010
   35  0.000  0.000  0.004  0.004
   36  0.000  0.001  0.041  0.043
   37  0.000  0.000  0.000  0.000
   38  0.000  0.005  0.000  0.005
   39  0.000  0.000  0.000  0.000
tot    0.132  0.023  0.643  0.798
 
band    12 # energy   -5.22306355 # occ.  2.00000000
 
ion      s      p      d    tot
    1  0.000  0.000  0.001  0.001
    2  0.000  0.000  0.003  0.003
    3  0.001  0.000  0.005  0.006
    4  0.001  0.000  0.004  0.005
    5  0.000  0.000  0.006  0.006
    6  0.001  0.000  0.003  0.004
    7  0.001  0.000  0.005  0.007
    8  0.000  0.000  0.002  0.002
    9  0.000  0.000  0.007  0.007
   10  0.000  0.000  0.032  0.032
   11  0.009  0.000  0.046  0.055
   12  0.000  0.001  0.035  0.036
   13  0.001  0.000  0.088  0.089
   14  0.015  0.001  0.014  0.029
   15  0.012  0.001  0.027  0.040
   16  0.000  0.001  0.033  0.034
   17  0.001  0.001  0.027  0.029
   18  0.021  0.001  0.027  0.048
   19  0.007  0.000  0.032  0.039
   20  0.000  0.000  0.032  0.033
   21  0.000  0.001  0.040  0.041
   22  0.001  0.001  0.024  0.026
   23  0.000  0.001  0.036  0.036
   24  0.015  0.001  0.024  0.041
   25  0.012  0.001  0.013  0.025
   26  0.001  0.000  0.057  0.058
   27  0.009  0.001  0.024  0.034
   28  0.000  0.000  0.004  0.005
   29  0.001  0.000  0.004  0.005
   30  0.000  0.000  0.004  0.004
   31  0.001  0.000  0.003  0.003
   32  0.000  0.000  0.004  0.005
   33  0.000  0.000  0.003  0.003
   34  0.001  0.000  0.004  0.006
   35  0.000  0.000  0.007  0.007
   36  0.000  0.000  0.004  0.004
   37  0.000  0.000  0.000  0.000
   38  0.000  0.000  0.000  0.000
   39  0.000  0.000  0.000  0.000
tot    0.111  0.015  0.684  0.810
 
band    13 # energy   -5.22306329 # occ.  2.00000000
 
ion      s      p      d    tot
    1  0.000  0.000  0.001  0.001
    2  0.001  0.000  0.005  0.006
    3  0.000  0.000  0.003  0.003
    4  0.000  0.000  0.003  0.004
    5  0.000  0.000  0.006  0.006
    6  0.001  0.000  0.004  0.005
    7  0.000  0.000  0.002  0.002
    8  0.001  0.000  0.005  0.007
    9  0.000  0.000  0.007  0.007
   10  0.000  0.001  0.035  0.036
   11  0.007  0.000  0.053  0.061
   12  0.000  0.000  0.031  0.032
   13  0.016  0.001  0.010  0.027
   14  0.001  0.000  0.085  0.086
   15  0.010  0.001  0.027  0.038
   16  0.000  0.001  0.033  0.034
   17  0.021  0.001  0.026  0.049
   18  0.002  0.001  0.027  0.030
   19  0.006  0.000  0.036  0.043
   20  0.000  0.001  0.040  0.041
   21  0.000  0.000  0.032  0.032
   22  0.016  0.001  0.024  0.041
   23  0.000  0.001  0.037  0.037
   24  0.001  0.001  0.024  0.027
   25  0.001  0.000  0.055  0.057
   26  0.012  0.001  0.011  0.024
   27  0.008  0.001  0.024  0.033
   28  0.000  0.000  0.004  0.005
   29  0.000  0.000  0.003  0.004
   30  0.001  0.000  0.003  0.005
   31  0.001  0.000  0.004  0.005
   32  0.001  0.000  0.003  0.003
   33  0.001  0.000  0.004  0.006
   34  0.000  0.000  0.003  0.003
   35  0.000  0.000  0.007  0.007
   36  0.000  0.000  0.004  0.004
   37  0.000  0.000  0.000  0.000
   38  0.000  0.000  0.000  0.000
   39  0.000  0.000  0.000  0.000
tot    0.111  0.015  0.684  0.810
 
band    14 # energy   -5.22148015 # occ.  2.00000000
 
ion      s      p      d    tot
    1  0.000  0.000  0.015  0.015
    2  0.002  0.000  0.007  0.009
    3  0.002  0.000  0.007  0.009
    4  0.002  0.000  0.007  0.009
    5  0.001  0.000  0.003  0.004
    6  0.002  0.000  0.007  0.009
    7  0.002  0.000  0.007  0.009
    8  0.002  0.000  0.007  0.009
    9  0.008  0.001  0.000  0.009
   10  0.002  0.000  0.045  0.048
   11  0.007  0.001  0.014  0.022
   12  0.002  0.000  0.046  0.048
   13  0.007  0.001  0.014  0.022
   14  0.007  0.001  0.014  0.022
   15  0.008  0.000  0.030  0.039
   16  0.002  0.000  0.046  0.048
   17  0.008  0.000  0.030  0.039
   18  0.008  0.000  0.030  0.039
   19  0.000  0.000  0.042  0.042
   20  0.014  0.001  0.033  0.048
   21  0.014  0.001  0.033  0.048
   22  0.005  0.001  0.007  0.013
   23  0.014  0.001  0.033  0.048
   24  0.005  0.001  0.007  0.012
   25  0.000  0.000  0.042  0.042
   26  0.000  0.000  0.042  0.042
   27  0.005  0.001  0.007  0.013
   28  0.004  0.000  0.000  0.004
   29  0.001  0.000  0.008  0.009
   30  0.001  0.000  0.008  0.009
   31  0.001  0.000  0.008  0.009
   32  0.001  0.000  0.008  0.009
   33  0.001  0.000  0.008  0.009
   34  0.001  0.000  0.008  0.009
   35  0.003  0.000  0.001  0.005
   36  0.000  0.005  0.002  0.007
   37  0.001  0.001  0.000  0.001
   38  0.000  0.000  0.000  0.000
   39  0.000  0.000  0.000  0.000
tot    0.144  0.021  0.628  0.793
 
band    15 # energy   -5.21102300 # occ.  2.00000000
 
ion      s      p      d    tot
    1  0.002  0.001  0.002  0.004
    2  0.000  0.000  0.005  0.005
    3  0.000  0.000  0.005  0.005
    4  0.000  0.000  0.005  0.005
    5  0.005  0.001  0.004  0.011
    6  0.000  0.000  0.005  0.005
    7  0.000  0.000  0.005  0.005
    8  0.000  0.000  0.005  0.005
    9  0.001  0.000  0.002  0.002
   10  0.011  0.001  0.005  0.017
   11  0.008  0.000  0.052  0.060
   12  0.011  0.001  0.005  0.017
   13  0.008  0.000  0.052  0.060
   14  0.008  0.000  0.051  0.060
   15  0.000  0.001  0.035  0.036
   16  0.011  0.001  0.005  0.017
   17  0.000  0.001  0.035  0.036
   18  0.000  0.001  0.035  0.036
   19  0.014  0.001  0.012  0.026
   20  0.001  0.001  0.025  0.027
   21  0.001  0.001  0.025  0.027
   22  0.005  0.000  0.064  0.070
   23  0.001  0.001  0.025  0.027
   24  0.005  0.000  0.064  0.069
   25  0.014  0.001  0.012  0.026
   26  0.014  0.001  0.012  0.026
   27  0.005  0.000  0.064  0.070
   28  0.004  0.001  0.003  0.007
   29  0.000  0.000  0.004  0.004
   30  0.000  0.000  0.004  0.004
   31  0.000  0.000  0.004  0.004
   32  0.000  0.000  0.004  0.004
   33  0.000  0.000  0.004  0.004
   34  0.000  0.000  0.004  0.004
   35  0.004  0.001  0.008  0.012
   36  0.000  0.000  0.000  0.000
   37  0.000  0.000  0.000  0.000
   38  0.000  0.000  0.000  0.000
   39  0.000  0.000  0.000  0.000
tot    0.132  0.017  0.652  0.801
 
band    16 # energy   -5.19278335 # occ.  2.00000000
 
ion      s      p      d    tot
    1  0.000  0.001  0.010  0.011
    2  0.001  0.000  0.009  0.011
    3  0.001  0.000  0.009  0.011
    4  0.001  0.000  0.009  0.011
    5  0.001  0.000  0.000  0.001
    6  0.001  0.000  0.009  0.011
    7  0.001  0.000  0.009  0.011
    8  0.001  0.000  0.009  0.011
    9  0.007  0.000  0.010  0.017
   10  0.005  0.000  0.014  0.019
   11  0.000  0.000  0.039  0.040
   12  0.005  0.000  0.014  0.019
   13  0.000  0.000  0.039  0.040
   14  0.001  0.000  0.038  0.039
   15  0.000  0.000  0.040  0.040
   16  0.005  0.000  0.014  0.019
   17  0.000  0.000  0.040  0.040
   18  0.000  0.000  0.039  0.040
   19  0.001  0.001  0.002  0.004
   20  0.001  0.000  0.036  0.037
   21  0.001  0.000  0.036  0.037
   22  0.003  0.000  0.058  0.060
   23  0.001  0.000  0.036  0.037
   24  0.003  0.000  0.058  0.060
   25  0.001  0.001  0.002  0.004
   26  0.001  0.001  0.002  0.004
   27  0.003  0.000  0.058  0.060
   28  0.008  0.000  0.001  0.009
   29  0.003  0.000  0.014  0.017
   30  0.003  0.000  0.014  0.017
   31  0.003  0.000  0.014  0.017
   32  0.002  0.000  0.014  0.017
   33  0.003  0.000  0.014  0.017
   34  0.002  0.000  0.014  0.017
   35  0.004  0.000  0.023  0.028
   36  0.000  0.001  0.000  0.001
   37  0.000  0.000  0.000  0.000
   38  0.000  0.000  0.000  0.000
   39  0.000  0.000  0.000  0.000
tot    0.073  0.007  0.751  0.831
 
band    17 # energy   -5.19148505 # occ.  2.00000000
 
ion      s      p      d    tot
    1  0.000  0.001  0.010  0.011
    2  0.000  0.000  0.008  0.009
    3  0.002  0.001  0.008  0.011
    4  0.000  0.000  0.008  0.009
    5  0.000  0.000  0.010  0.010
    6  0.003  0.001  0.005  0.009
    7  0.002  0.001  0.008  0.011
    8  0.003  0.001  0.005  0.009
    9  0.000  0.000  0.007  0.007
   10  0.000  0.000  0.092  0.092
   11  0.004  0.000  0.033  0.037
   12  0.015  0.000  0.027  0.042
   13  0.004  0.000  0.033  0.037
   14  0.000  0.001  0.013  0.014
   15  0.004  0.000  0.032  0.036
   16  0.015  0.000  0.027  0.042
   17  0.004  0.000  0.032  0.036
   18  0.000  0.000  0.063  0.063
   19  0.002  0.000  0.024  0.026
   20  0.000  0.000  0.035  0.036
   21  0.001  0.000  0.026  0.027
   22  0.006  0.000  0.019  0.025
   23  0.001  0.000  0.025  0.027
   24  0.000  0.000  0.035  0.035
   25  0.000  0.000  0.028  0.028
   26  0.002  0.000  0.024  0.026
   27  0.006  0.000  0.018  0.025
   28  0.000  0.000  0.011  0.011
   29  0.004  0.001  0.005  0.010
   30  0.002  0.001  0.009  0.011
   31  0.004  0.001  0.005  0.010
   32  0.000  0.000  0.007  0.007
   33  0.002  0.001  0.009  0.011
   34  0.000  0.000  0.007  0.007
   35  0.000  0.000  0.003  0.003
   36  0.000  0.000  0.016  0.017
   37  0.000  0.000  0.000  0.000
   38  0.000  0.000  0.000  0.000
   39  0.000  0.000  0.000  0.000
tot    0.087  0.011  0.729  0.826
 
band    18 # energy   -5.19146201 # occ.  2.00000000
 
ion      s      p      d    tot
    1  0.000  0.001  0.010  0.011
    2  0.003  0.001  0.006  0.010
    3  0.002  0.000  0.006  0.008
    4  0.003  0.001  0.006  0.010
    5  0.000  0.000  0.010  0.010
    6  0.000  0.000  0.009  0.010
    7  0.002  0.000  0.006  0.008
    8  0.000  0.000  0.009  0.010
    9  0.000  0.000  0.007  0.007
   10  0.020  0.000  0.005  0.025
   11  0.001  0.000  0.019  0.021
   12  0.005  0.000  0.070  0.075
   13  0.001  0.000  0.019  0.021
   14  0.005  0.000  0.040  0.045
   15  0.001  0.000  0.052  0.054
   16  0.005  0.000  0.070  0.076
   17  0.001  0.000  0.052  0.054
   18  0.006  0.000  0.022  0.027
   19  0.001  0.000  0.027  0.028
   20  0.001  0.001  0.022  0.024
   21  0.000  0.000  0.032  0.032
   22  0.002  0.000  0.030  0.032
   23  0.000  0.000  0.032  0.033
   24  0.008  0.000  0.013  0.021
   25  0.003  0.000  0.023  0.026
   26  0.001  0.000  0.027  0.028
   27  0.002  0.000  0.030  0.032
   28  0.000  0.000  0.011  0.011
   29  0.000  0.000  0.009  0.009
   30  0.002  0.000  0.005  0.008
   31  0.000  0.000  0.009  0.009
   32  0.004  0.001  0.007  0.012
   33  0.002  0.000  0.005  0.008
   34  0.004  0.001  0.007  0.012
   35  0.000  0.000  0.003  0.003
   36  0.000  0.000  0.016  0.017
   37  0.000  0.000  0.000  0.000
   38  0.000  0.000  0.000  0.000
   39  0.000  0.000  0.000  0.000
tot    0.087  0.011  0.729  0.826
 
band    19 # energy   -5.18213761 # occ.  2.00000000
 
ion      s      p      d    tot
    1  0.000  0.000  0.010  0.010
    2  0.000  0.000  0.008  0.009
    3  0.000  0.000  0.007  0.007
    4  0.000  0.000  0.008  0.009
    5  0.000  0.000  0.002  0.002
    6  0.002  0.000  0.005  0.007
    7  0.001  0.000  0.006  0.007
    8  0.002  0.000  0.005  0.007
    9  0.000  0.000  0.015  0.015
   10  0.001  0.000  0.044  0.045
   11  0.000  0.000  0.043  0.044
   12  0.000  0.000  0.019  0.020
   13  0.001  0.000  0.041  0.042
   14  0.002  0.000  0.015  0.017
   15  0.001  0.000  0.067  0.068
   16  0.000  0.000  0.018  0.018
   17  0.002  0.000  0.063  0.065
   18  0.006  0.000  0.022  0.029
   19  0.001  0.000  0.069  0.070
   20  0.000  0.000  0.036  0.037
   21  0.000  0.000  0.022  0.023
   22  0.001  0.000  0.039  0.041
   23  0.000  0.000  0.021  0.021
   24  0.005  0.000  0.042  0.046
   25  0.006  0.000  0.007  0.014
   26  0.002  0.000  0.064  0.066
   27  0.001  0.000  0.039  0.040
   28  0.000  0.000  0.009  0.009
   29  0.002  0.000  0.007  0.009
   30  0.001  0.000  0.004  0.006
   31  0.001  0.000  0.007  0.009
   32  0.000  0.000  0.009  0.009
   33  0.001  0.000  0.004  0.006
   34  0.000  0.000  0.009  0.009
   35  0.000  0.000  0.014  0.014
   36  0.000  0.000  0.003  0.004
   37  0.000  0.000  0.000  0.000
   38  0.000  0.000  0.000  0.000
   39  0.000  0.000  0.000  0.000
tot    0.043  0.006  0.802  0.851
 
band    20 # energy   -5.18211550 # occ.  2.00000000
 
ion      s      p      d    tot
    1  0.000  0.000  0.010  0.010
    2  0.001  0.000  0.005  0.006
    3  0.001  0.000  0.006  0.008
    4  0.001  0.000  0.005  0.006
    5  0.000  0.000  0.002  0.002
    6  0.000  0.000  0.008  0.008
    7  0.001  0.000  0.007  0.008
    8  0.000  0.000  0.008  0.009
    9  0.000  0.000  0.015  0.015
   10  0.000  0.000  0.010  0.010
   11  0.002  0.000  0.023  0.025
   12  0.001  0.000  0.034  0.035
   13  0.002  0.000  0.025  0.027
   14  0.000  0.000  0.052  0.052
   15  0.005  0.000  0.035  0.040
   16  0.001  0.000  0.036  0.037
   17  0.005  0.000  0.038  0.043
   18  0.000  0.000  0.079  0.079
   19  0.005  0.000  0.025  0.030
   20  0.000  0.000  0.017  0.017
   21  0.000  0.000  0.031  0.031
   22  0.003  0.000  0.041  0.044
   23  0.000  0.000  0.032  0.033
   24  0.000  0.000  0.039  0.039
   25  0.000  0.000  0.086  0.086
   26  0.005  0.000  0.029  0.034
   27  0.004  0.000  0.041  0.045
   28  0.000  0.000  0.009  0.009
   29  0.000  0.000  0.006  0.007
   30  0.001  0.000  0.009  0.010
   31  0.000  0.000  0.006  0.007
   32  0.002  0.000  0.005  0.007
   33  0.001  0.000  0.009  0.010
   34  0.002  0.000  0.005  0.007
   35  0.000  0.000  0.014  0.014
   36  0.000  0.000  0.003  0.004
   37  0.000  0.000  0.000  0.000
   38  0.000  0.000  0.000  0.000
   39  0.000  0.000  0.000  0.000