 vasp.6.2.0 18Jan21 (build Jun 12 2021 23:27:24) complex                        
  
 executed on             LinuxIFC date 2022.05.26  20:00:27
 running on   28 total cores
 distrk:  each k-point on   28 cores,    1 groups
 distr:  one band on NCORE=   1 cores,   28 groups


--------------------------------------------------------------------------------------------------------


 INCAR:
   ISMEAR = -5
   SIGMA = 0.1
   ISPIN = 1
   EDIFF = 1.d-5
   EDIFFG = -0.01
   NSW = 0
   NELM = 150
   ENCUT = 500
   ISIF = 2
   IBRION = 2
   LREAL = Auto
   ALGO = Fast
   ICHARG = 11
   LORBIT = 10
   LCHARG = .F.
   LWAVE = .F.

 POTCAR:    PAW_PBE Cu 22Jun2005                  
 POTCAR:    PAW_PBE Ni 02Aug2007                  
 POTCAR:    PAW_PBE H 15Jun2001                   
 -----------------------------------------------------------------------------
|                                                                             |
|           W    W    AA    RRRRR   N    N  II  N    N   GGGG   !!!           |
|           W    W   A  A   R    R  NN   N  II  NN   N  G    G  !!!           |
|           W    W  A    A  R    R  N N  N  II  N N  N  G       !!!           |
|           W WW W  AAAAAA  RRRRR   N  N N  II  N  N N  G  GGG   !            |
|           WW  WW  A    A  R   R   N   NN  II  N   NN  G    G                |
|           W    W  A    A  R    R  N    N  II  N    N   GGGG   !!!           |
|                                                                             |
|     For optimal performance we recommend to set                             |
|       NCORE = 2 up to number-of-cores-per-socket                            |
|     NCORE specifies how many cores store one orbital (NPAR=cpu/NCORE).      |
|     This setting can greatly improve the performance of VASP for DFT.       |
|     The default, NCORE=1 might be grossly inefficient on modern             |
|     multi-core architectures or massively parallel machines. Do your        |
|     own testing! More info at https://www.vasp.at/wiki/index.php/NCORE      |
|     Unfortunately you need to use the default for GW and RPA                |
|     calculations (for HF NCORE is supported but not extensively tested      |
|     yet).                                                                   |
|                                                                             |
 -----------------------------------------------------------------------------

 POTCAR:    PAW_PBE Cu 22Jun2005                  
   VRHFIN =Cu: d10 p1                                                                               
   LEXCH  = PE                                                                                      
   EATOM  =  1390.9808 eV,  102.2342 Ry                                                             
                                                                                                    
   TITEL  = PAW_PBE Cu 22Jun2005                                                                    
   LULTRA =        F    use ultrasoft PP ?                                                          
   IUNSCR =        1    unscreen: 0-lin 1-nonlin 2-no                                               
   RPACOR =    2.000    partial core radius                                                         
   POMASS =   63.546; ZVAL   =   11.000    mass and valenz                                          
   RCORE  =    2.300    outmost cutoff radius                                                       
   RWIGS  =    2.200; RWIGS  =    1.164    wigner-seitz radius (au A)                               
   ENMAX  =  295.446; ENMIN  =  221.585 eV                                                          
   ICORE  =        3    local potential                                                             
   LCOR   =        T    correct aug charges                                                         
   LPAW   =        T    paw PP                                                                      
   EAUG   =  586.980                                                                                
   DEXC   =    0.000                                                                                
   RMAX   =    2.344    core radius for proj-oper                                                   
   RAUG   =    1.300    factor for augmentation sphere                                              
   RDEP   =    2.302    radius for radial grids                                                     
   RDEPT  =    1.771    core radius for aug-charge                                                  
                                                                                                    
   Atomic configuration                                                                             
    9 entries                                                                                       
     n  l   j            E        occ.                                                              
     1  0  0.50     -8850.2468   2.0000                                                             
     2  0  0.50     -1062.3498   2.0000                                                             
     2  1  1.50      -916.8226   6.0000                                                             
     3  0  0.50      -114.6929   2.0000                                                             
     3  1  1.50       -72.1325   6.0000                                                             
     3  2  2.50        -5.0394  10.0000                                                             
     4  0  0.50        -4.6097   1.0000                                                             
     4  1  0.50        -4.0817   0.0000                                                             
     4  3  2.50        -1.3606   0.0000                                                             
   Description                                                                                      
     l       E           TYP  RCUT    TYP  RCUT                                                     
     2     -5.0393973     23  2.200                                                                 
     2     10.8846608     23  2.200                                                                 
     0     -4.6097109     23  2.200                                                                 
     0      8.2520465     23  2.200                                                                 
     1     -2.7211652     23  2.200                                                                 
     1     21.7055443     23  2.200                                                                 
     3      2.7211652     23  2.300                                                                 
  local pseudopotential read in
  partial core-charges read in
  partial kinetic energy density read in
  atomic valenz-charges read in
  non local Contribution for L=           2  read in
    real space projection operators read in
  non local Contribution for L=           2  read in
    real space projection operators read in
  non local Contribution for L=           0  read in
    real space projection operators read in
  non local Contribution for L=           0  read in
    real space projection operators read in
  non local Contribution for L=           1  read in
    real space projection operators read in
  non local Contribution for L=           1  read in
    real space projection operators read in
    PAW grid and wavefunctions read in
 
   number of l-projection  operators is LMAX  =           6
   number of lm-projection operators is LMMAX =          18
 
 POTCAR:    PAW_PBE Ni 02Aug2007                  
   VRHFIN =Ni:                                                                                      
   LEXCH  = PE                                                                                      
   EATOM  =  1077.6739 eV,   79.2068 Ry                                                             
                                                                                                    
   TITEL  = PAW_PBE Ni 02Aug2007                                                                    
   LULTRA =        F    use ultrasoft PP ?                                                          
   IUNSCR =        1    unscreen: 0-lin 1-nonlin 2-no                                               
   RPACOR =    2.000    partial core radius                                                         
   POMASS =   58.690; ZVAL   =   10.000    mass and valenz                                          
   RCORE  =    2.300    outmost cutoff radius                                                       
   RWIGS  =    2.430; RWIGS  =    1.286    wigner-seitz radius (au A)                               
   ENMAX  =  269.532; ENMIN  =  202.149 eV                                                          
   RCLOC  =    1.201    cutoff for local pot                                                        
   LCOR   =        T    correct aug charges                                                         
   LPAW   =        T    paw PP                                                                      
   EAUG   =  544.565                                                                                
   DEXC   =    0.000                                                                                
   RMAX   =    2.357    core radius for proj-oper                                                   
   RAUG   =    1.300    factor for augmentation sphere                                              
   RDEP   =    2.390    radius for radial grids                                                     
   RDEPT  =    1.838    core radius for aug-charge                                                  
                                                                                                    
   Atomic configuration                                                                             
    9 entries                                                                                       
     n  l   j            E        occ.                                                              
     1  0  0.50     -8206.4253   2.0000                                                             
     2  0  0.50      -976.1748   2.0000                                                             
     2  1  1.50      -839.0571   6.0000                                                             
     3  0  0.50      -105.9991   2.0000                                                             
     3  1  1.50       -66.4603   6.0000                                                             
     3  2  2.50        -4.6458   9.0000                                                             
     4  0  0.50        -4.4926   1.0000                                                             
     4  1  1.50        -4.0817   0.0000                                                             
     4  3  2.50        -1.3606   0.0000                                                             
   Description                                                                                      
     l       E           TYP  RCUT    TYP  RCUT                                                     
     2     -4.6457903     23  2.300                                                                 
     2     -6.0063729     23  2.300                                                                 
     0     -4.4925590     23  2.300                                                                 
     0      5.0102601     23  2.300                                                                 
     1     -2.7211652     23  2.300                                                                 
     1     16.5183231     23  2.300                                                                 
  local pseudopotential read in
  partial core-charges read in
  partial kinetic energy density read in
  atomic valenz-charges read in
  non local Contribution for L=           2  read in
    real space projection operators read in
  non local Contribution for L=           2  read in
    real space projection operators read in
  non local Contribution for L=           0  read in
    real space projection operators read in
  non local Contribution for L=           0  read in
    real space projection operators read in
  non local Contribution for L=           1  read in
    real space projection operators read in
  non local Contribution for L=           1  read in
    real space projection operators read in
    PAW grid and wavefunctions read in
 
   number of l-projection  operators is LMAX  =           6
   number of lm-projection operators is LMMAX =          18
 
 POTCAR:    PAW_PBE H 15Jun2001                   
   VRHFIN =H: ultrasoft test                                                                        
   LEXCH  = PE                                                                                      
   EATOM  =    12.4884 eV,    0.9179 Ry                                                             
                                                                                                    
   TITEL  = PAW_PBE H 15Jun2001                                                                     
   LULTRA =        F    use ultrasoft PP ?                                                          
   IUNSCR =        0    unscreen: 0-lin 1-nonlin 2-no                                               
   RPACOR =    0.000    partial core radius                                                         
   POMASS =    1.000; ZVAL   =    1.000    mass and valenz                                          
   RCORE  =    1.100    outmost cutoff radius                                                       
   RWIGS  =    0.700; RWIGS  =    0.370    wigner-seitz radius (au A)                               
   ENMAX  =  250.000; ENMIN  =  200.000 eV                                                          
   RCLOC  =    0.701    cutoff for local pot                                                        
   LCOR   =        T    correct aug charges                                                         
   LPAW   =        T    paw PP                                                                      
   EAUG   =  400.000                                                                                
   RMAX   =    1.123    core radius for proj-oper                                                   
   RAUG   =    1.200    factor for augmentation sphere                                              
   RDEP   =    1.112    radius for radial grids                                                     
   RDEPT  =    0.926    core radius for aug-charge                                                  
                                                                                                    
   Atomic configuration                                                                             
    2 entries                                                                                       
     n  l   j            E        occ.                                                              
     1  0  0.50        -6.4927   1.0000                                                             
     2  1  0.50        -3.4015   0.0000                                                             
   Description                                                                                      
     l       E           TYP  RCUT    TYP  RCUT                                                     
     0     -6.4927494     23  1.100                                                                 
     0      6.8029130     23  1.100                                                                 
     1     -4.0817478     23  1.100                                                                 
  local pseudopotential read in
  atomic valenz-charges read in
  non local Contribution for L=           0  read in
    real space projection operators read in
  non local Contribution for L=           0  read in
    real space projection operators read in
  non local Contribution for L=           1  read in
    real space projection operators read in
    PAW grid and wavefunctions read in
 
   number of l-projection  operators is LMAX  =           3
   number of lm-projection operators is LMMAX =           5
 
 Optimization of the real space projectors (new method)

 maximal supplied QI-value         = 16.25
 optimisation between [QCUT,QGAM] = [ 11.38, 22.75] = [ 36.24,144.96] Ry 
 Optimized for a Real-space Cutoff    1.52 Angstroem

   l    n(q)    QCUT    max X(q) W(low)/X(q) W(high)/X(q)  e(spline) 
   2      9    11.376     4.610    0.21E-03    0.10E-03    0.26E-06
   2      9    11.376     8.522    0.33E-03    0.16E-03    0.37E-06
   0     10    11.376    51.609    0.62E-04    0.20E-04    0.13E-06
   0     10    11.376    27.747    0.54E-04    0.20E-04    0.13E-06
   1     10    11.376    20.408    0.13E-04    0.99E-04    0.19E-06
   1     10    11.376    13.425    0.12E-04    0.87E-04    0.17E-06
 Optimization of the real space projectors (new method)

 maximal supplied QI-value         = 16.25
 optimisation between [QCUT,QGAM] = [ 11.38, 22.75] = [ 36.24,144.96] Ry 
 Optimized for a Real-space Cutoff    1.39 Angstroem

   l    n(q)    QCUT    max X(q) W(low)/X(q) W(high)/X(q)  e(spline) 
   2      8    11.376    60.317    0.19E-03    0.33E-04    0.13E-06
   2      8    11.376    55.921    0.20E-03    0.34E-04    0.14E-06
   0      9    11.376    51.690    0.82E-04    0.12E-03    0.20E-06
   0      9    11.376    30.015    0.74E-04    0.11E-03    0.18E-06
   1      9    11.376    18.849    0.39E-03    0.12E-03    0.13E-06
   1      9    11.376    14.624    0.33E-03    0.10E-03    0.11E-06
 Optimization of the real space projectors (new method)

 maximal supplied QI-value         = 34.20
 optimisation between [QCUT,QGAM] = [ 11.29, 22.57] = [ 35.68,142.71] Ry 
 Optimized for a Real-space Cutoff    1.16 Angstroem

   l    n(q)    QCUT    max X(q) W(low)/X(q) W(high)/X(q)  e(spline) 
   0      8    11.287    19.460    0.40E-03    0.73E-03    0.16E-06
   0      8    11.287    12.209    0.38E-03    0.70E-03    0.15E-06
   1      7    11.287     4.655    0.22E-03    0.25E-04    0.22E-06
  PAW_PBE Cu 22Jun2005                  :
 energy of atom  1       EATOM=-1390.9808
 kinetic energy error for atom=    0.0043 (will be added to EATOM!!)
  PAW_PBE Ni 02Aug2007                  :
 energy of atom  2       EATOM=-1077.6739
 kinetic energy error for atom=    0.0030 (will be added to EATOM!!)
  PAW_PBE H 15Jun2001                   :
 energy of atom  3       EATOM=  -12.4884
 kinetic energy error for atom=    0.0020 (will be added to EATOM!!)
 
 
 POSCAR: Cu-Ni-H
  positions in direct lattice
  velocities in cartesian coordinates
 exchange correlation table for  LEXCH =        8
   RHO(1)=    0.500       N(1)  =     2000
   RHO(2)=  100.500       N(2)  =     4000

 VTST: version 3.2, (02/03/18)

 CHAIN: initializing optimizer
 
 OPT: Using VASP Conjugate-Gradient optimizer
 CHAIN: Read ICHAIN            0
 
 POSCAR: Cu-Ni-H
  positions in direct lattice
  velocities in cartesian coordinates
 


--------------------------------------------------------------------------------------------------------


 ion  position               nearest neighbor table
   1  0.000  0.000  0.252-   7 2.57   3 2.57   4 2.57   2 2.57   6 2.57   8 2.57  12 2.57  10 2.57
                            16 2.57
   2  0.333  0.000  0.252-   8 2.57   9 2.57   5 2.57   1 2.57   3 2.57  11 2.57   4 2.57  10 2.57
                            17 2.57
   3  0.667  0.000  0.252-   1 2.57   7 2.57   6 2.57   9 2.57   2 2.57  12 2.57   5 2.57  18 2.57
                            11 2.57
   4  0.000  0.333  0.252-   5 2.57   6 2.57   1 2.57   7 2.57   2 2.57  13 2.57   9 2.57  10 2.57
                            15 2.57
   5  0.333  0.333  0.252-   4 2.57   2 2.57   7 2.57  13 2.57   8 2.57   6 2.57   3 2.57  11 2.57
                            14 2.57
   6  0.667  0.333  0.252-   4 2.57   9 2.57  15 2.57   3 2.57   1 2.57   8 2.57  14 2.57   5 2.57
                            12 2.57
   7  0.000  0.667  0.252-   1 2.57   3 2.57  16 2.57  18 2.57   4 2.57   5 2.57   8 2.57   9 2.57
                            13 2.57
   8  0.333  0.667  0.252-   9 2.57   2 2.57  17 2.57   6 2.57   1 2.57   7 2.57   5 2.57  14 2.57
                            16 2.57
   9  0.667  0.667  0.252-   8 2.57   6 2.57   2 2.57  17 2.57   3 2.57   7 2.57   4 2.57  15 2.57
                            18 2.57
  10  0.111  0.111  0.351-  20 2.55  26 2.56  19 2.56  11 2.57  12 2.57  13 2.57   1 2.57   2 2.57
                             4 2.57  15 2.57  16 2.57  17 2.57
  11  0.444  0.111  0.351-  20 2.55  21 2.55  27 2.56  10 2.57  13 2.57   2 2.57  17 2.57  14 2.57
                            12 2.57   5 2.57   3 2.57  18 2.57
  12  0.778  0.111  0.351-  21 2.55  19 2.56  25 2.56  15 2.57  10 2.57  14 2.57  18 2.57   3 2.57
                             1 2.57  16 2.57  11 2.57   6 2.57
  13  0.111  0.444  0.351-  23 2.55  20 2.55  22 2.56  16 2.57  18 2.57  10 2.57  11 2.57  14 2.57
                             5 2.57   4 2.57   7 2.57  15 2.57
  14  0.444  0.444  0.351-  21 2.55  23 2.55  24 2.56  15 2.57  17 2.57  12 2.57  16 2.57  13 2.57
                            11 2.57   6 2.57   8 2.57   5 2.57
  15  0.778  0.444  0.351-  24 2.55  22 2.55  19 2.56  14 2.57  17 2.57  12 2.57   6 2.57  18 2.57
                            10 2.57   9 2.57  13 2.57   4 2.57
  16  0.111  0.778  0.351-  23 2.55  25 2.56  26 2.56  18 2.57  13 2.57   7 2.57  14 2.57  17 2.57
                            12 2.57  10 2.57   8 2.57   1 2.57
  17  0.444  0.778  0.351-  27 2.55  24 2.55  26 2.56  14 2.57  15 2.57   8 2.57   9 2.57  11 2.57
                            16 2.57  18 2.57  10 2.57   2 2.57
  18  0.778  0.778  0.351-  22 2.55  27 2.55  25 2.56  16 2.57  13 2.57   7 2.57  15 2.57  12 2.57
                            17 2.57   9 2.57   3 2.57  11 2.57
  19  0.889  0.223  0.449-  28 2.54  32 2.55  31 2.55  15 2.56  12 2.56  10 2.56  22 2.56  24 2.56
                            21 2.57  20 2.57  25 2.57  26 2.57
  20  0.222  0.222  0.448-  36 2.48  29 2.54  31 2.54  10 2.55  11 2.55  13 2.55  26 2.57  19 2.57
                            27 2.57  22 2.57  23 2.57  21 2.57
  21  0.556  0.222  0.448-  36 2.48  32 2.54  30 2.54  12 2.55  14 2.55  11 2.55  19 2.57  25 2.57
                            24 2.57  27 2.57  20 2.57  23 2.57
  22  0.889  0.556  0.449-  35 2.54  31 2.55  33 2.55  18 2.55  15 2.55  13 2.56  19 2.56  25 2.56
                            24 2.57  27 2.57  23 2.57  20 2.57
  23  0.222  0.556  0.448-  36 2.48  33 2.54  34 2.54  16 2.55  13 2.55  14 2.55  25 2.57  26 2.57
                            22 2.57  24 2.57  20 2.57  21 2.57
  24  0.556  0.556  0.449-  35 2.54  32 2.55  34 2.55  15 2.55  17 2.55  14 2.56  19 2.56  26 2.56
                            22 2.57  27 2.57  21 2.57  23 2.57
  25  0.889  0.889  0.449-  28 2.54  33 2.55  30 2.55  18 2.56  16 2.56  12 2.56  22 2.56  27 2.56
                            21 2.57  23 2.57  19 2.57  26 2.57
  26  0.223  0.889  0.449-  28 2.54  29 2.55  34 2.55  17 2.56  10 2.56  16 2.56  27 2.56  24 2.56
                            20 2.57  23 2.57  25 2.57  19 2.57
  27  0.556  0.889  0.449-  35 2.54  29 2.55  30 2.55  17 2.55  18 2.55  11 2.56  26 2.56  25 2.56
                            24 2.57  22 2.57  20 2.57  21 2.57
  28  0.000  0.000  0.546-  25 2.54  19 2.54  26 2.54  33 2.57  30 2.57  31 2.57  29 2.57  32 2.57
                            34 2.57
  29  0.333  0.002  0.546-  20 2.54  27 2.55  31 2.55  36 2.55  30 2.55  26 2.55  28 2.57  35 2.57
                            34 2.60
  30  0.665  0.002  0.546-  21 2.54  27 2.55  32 2.55  36 2.55  29 2.55  25 2.55  28 2.57  35 2.57
                            33 2.60
  31  0.002  0.333  0.546-  20 2.54  22 2.55  29 2.55  36 2.55  33 2.55  19 2.55  28 2.57  35 2.57
                            32 2.60
  32  0.665  0.333  0.546-  21 2.54  24 2.55  30 2.55  36 2.55  34 2.55  19 2.55  28 2.57  35 2.57
                            31 2.60
  33  0.002  0.665  0.546-  23 2.54  22 2.55  34 2.55  36 2.55  31 2.55  25 2.55  28 2.57  35 2.57
                            30 2.60
  34  0.333  0.665  0.546-  23 2.54  24 2.55  33 2.55  36 2.55  32 2.55  26 2.55  28 2.57  35 2.57
                            29 2.60
  35  0.667  0.667  0.546-  24 2.54  27 2.54  22 2.54  34 2.57  32 2.57  29 2.57  30 2.57  33 2.57
                            31 2.57
  36  0.333  0.333  0.542-  37 1.48  23 2.48  20 2.48  21 2.48  31 2.55  29 2.55  33 2.55  34 2.55
                            32 2.55  30 2.55
  37  0.333  0.333  0.612-  36 1.48
 
  LATTYP: Found a hexagonal cell.
 ALAT       =     7.6967864036
 C/A-ratio  =     2.7653617908
  
  Lattice vectors:
  
 A1 = (  -3.8483927580,  -6.6656128093,   0.0000000000)
 A2 = (   7.6967864037,   0.0000000000,   0.0000000000)
 A3 = (   0.0000000000,   0.0000000000,  21.2843990326)


Analysis of symmetry for initial positions (statically):
=====================================================================
 Subroutine PRICEL returns:
 Original cell was already a primitive cell.
 

 Routine SETGRP: Setting up the symmetry group for a 
 hexagonal supercell.


 Subroutine GETGRP returns: Found  6 space group operations
 (whereof  6 operations were pure point group operations)
 out of a pool of 24 trial point group operations.


The static configuration has the point symmetry C_3v.


Analysis of symmetry for dynamics (positions and initial velocities):
=====================================================================
 Subroutine PRICEL returns:
 Original cell was already a primitive cell.
 

 Routine SETGRP: Setting up the symmetry group for a 
 hexagonal supercell.


 Subroutine GETGRP returns: Found  6 space group operations
 (whereof  6 operations were pure point group operations)
 out of a pool of 24 trial point group operations.


The dynamic configuration has the point symmetry C_3v.


Analysis of constrained symmetry for selective dynamics:
=====================================================================
 Subroutine PRICEL returns:
 Original cell was already a primitive cell.
 

 Routine SETGRP: Setting up the symmetry group for a 
 hexagonal supercell.


 Subroutine GETGRP returns: Found  6 space group operations
 (whereof  6 operations were pure point group operations)
 out of a pool of 24 trial point group operations.


The constrained configuration has the point symmetry C_3v.


 Subroutine INISYM returns: Found  6 space group operations
 (whereof  6 operations are pure point group operations),
 and found     1 'primitive' translations


----------------------------------------------------------------------------------------

                                     Primitive cell                                     

  volume of cell :    1091.9705

  direct lattice vectors                    reciprocal lattice vectors
     7.696786404  0.000000000  0.000000000     0.129924354 -0.075011849  0.000000000
     3.848392758  6.665612809  0.000000000     0.000000000  0.150023716  0.000000000
     0.000000000  0.000000000 21.284399033     0.000000000  0.000000000  0.046982769

  length of vectors
     7.696786404  7.696786404 21.284399033     0.150023716  0.150023716  0.046982769

  position of ions in fractional coordinates (direct lattice)
     0.000000000  0.000000000  0.252370745
     0.333333343  0.000000000  0.252370745
     0.666666687  0.000000000  0.252370745
     1.000000000  0.333333343  0.252370745
     0.333333313  0.333333343  0.252370745
     0.666666687  0.333333343  0.252370745
     1.000000000  0.666666687  0.252370745
     0.333333373  0.666666687  0.252370745
     0.666666627  0.666666687  0.252370745
     0.111111119  0.111111112  0.350790262
     0.444444418  0.111111112  0.350790262
     0.777777791  0.111111112  0.350790262
     0.111111119  0.444444448  0.350790262
     0.444444478  0.444444448  0.350790262
     0.777777731  0.444444448  0.350790262
     0.111111112  0.777777731  0.350790262
     0.444444478  0.777777731  0.350790262
     0.777777851  0.777777731  0.350790262
     0.888717636  0.222564743  0.448718893
     0.222205667  0.222205652  0.448344711
     0.555588727  0.222205652  0.448344711
     0.888848763  0.555575588  0.448595816
     0.222205637  0.555588667  0.448344711
     0.555575648  0.555575588  0.448595816
     0.888717636  0.888717636  0.448718893
     0.222564758  0.888717636  0.448718893
     0.555575588  0.888848763  0.448595816
     0.000000000  0.000000000  0.545716777
     0.333207055  0.002169920  0.545941940
     0.664623055  0.002169920  0.545941940
     0.002169920  0.333207055  0.545941940
     0.664623055  0.333207055  0.545941940
     0.002169920  0.664623055  0.545941940
     0.333207085  0.664623055  0.545941940
     0.666666627  0.666666687  0.545643740
     0.333333313  0.333333343  0.541955855
     0.333333313  0.333333343  0.611658359

  ion indices of the primitive-cell ions
   primitive index   ion index
                 1           1
                 2           2
                 3           3
                 4           4
                 5           5
                 6           6
                 7           7
                 8           8
                 9           9
                10          10
                11          11
                12          12
                13          13
                14          14
                15          15
                16          16
                17          17
                18          18
                19          19
                20          20
                21          21
                22          22
                23          23
                24          24
                25          25
                26          26
                27          27
                28          28
                29          29
                30          30
                31          31
                32          32
                33          33
                34          34
                35          35
                36          36
                37          37

----------------------------------------------------------------------------------------

 
 
 KPOINTS: Automatic mesh                          

Automatic generation of k-mesh.
 Grid dimensions read from file:
 generate k-points for:    8    8    1

 Generating k-lattice:

  Cartesian coordinates                     Fractional coordinates (reciprocal lattice)
     0.016240544 -0.009376481  0.000000000     0.125000000 -0.000000000  0.000000000
     0.000000000  0.018752964  0.000000000     0.000000000  0.125000000  0.000000000
     0.000000000  0.000000000  0.046982769     0.000000000  0.000000000  1.000000000

  Length of vectors
     0.018752964  0.018752964  0.046982769

  Shift w.r.t. Gamma in fractional coordinates (k-lattice)
     0.000000000  0.000000000  0.000000000

 TETIRR: Found     36 inequivalent tetrahedra from      384
 
 Subroutine IBZKPT returns following result:
 ===========================================
 
 Found     10 irreducible k-points:
 
 Following reciprocal coordinates:
            Coordinates               Weight
  0.000000  0.000000  0.000000      1.000000
  0.125000 -0.000000  0.000000      6.000000
  0.250000 -0.000000  0.000000      6.000000
  0.375000 -0.000000  0.000000      6.000000
  0.500000 -0.000000  0.000000      3.000000
  0.250000  0.125000  0.000000      6.000000
  0.375000  0.125000  0.000000     12.000000
  0.500000  0.125000  0.000000     12.000000
  0.500000  0.250000  0.000000      6.000000
 -0.375000  0.250000  0.000000      6.000000
 
 Following cartesian coordinates:
            Coordinates               Weight
  0.000000  0.000000  0.000000      1.000000
  0.016241 -0.009376  0.000000      6.000000
  0.032481 -0.018753  0.000000      6.000000
  0.048722 -0.028129  0.000000      6.000000
  0.064962 -0.037506  0.000000      3.000000
  0.032481  0.000000  0.000000      6.000000
  0.048722 -0.009376  0.000000     12.000000
  0.064962 -0.018753  0.000000     12.000000
  0.064962  0.000000  0.000000      6.000000
 -0.048722  0.065635  0.000000      6.000000
 


--------------------------------------------------------------------------------------------------------




 Dimension of arrays:
   k-points           NKPTS =     10   k-points in BZ     NKDIM =     10   number of bands    NBANDS=    252
   number of dos      NEDOS =    301   number of ions     NIONS =     37
   non local maximal  LDIM  =      6   non local SUM 2l+1 LMDIM =     18
   total plane-waves  NPLWV = 211680
   max r-space proj   IRMAX =   2893   max aug-charges    IRDMAX=   6482
   dimension x,y,z NGX =    42 NGY =   42 NGZ =  120
   dimension x,y,z NGXF=    84 NGYF=   84 NGZF=  240
   support grid    NGXF=    84 NGYF=   84 NGZF=  240
   ions per type =              35   1   1
   NGX,Y,Z   is equivalent  to a cutoff of   9.07,  9.07,  9.37 a.u.
   NGXF,Y,Z  is equivalent  to a cutoff of  18.14, 18.14, 18.75 a.u.

 SYSTEM =  unknown system                          
 POSCAR =  Cu-Ni-H                                 

 Startparameter for this run:
   NWRITE =      2    write-flag & timer
   PREC   = normal    normal or accurate (medium, high low for compatibility)
   ISTART =      0    job   : 0-new  1-cont  2-samecut
   ICHARG =     11    charge: 1-file 2-atom 10-const
   ISPIN  =      1    spin polarized calculation?
   LNONCOLLINEAR =      F non collinear calculations
   LSORBIT =      F    spin-orbit coupling
   INIWAV =      1    electr: 0-lowe 1-rand  2-diag
   LASPH  =      F    aspherical Exc in radial PAW
   METAGGA=      F    non-selfconsistent MetaGGA calc.

 Electronic Relaxation 1
   ENCUT  =  500.0 eV  36.75 Ry    6.06 a.u.  14.03 14.03 38.81*2*pi/ulx,y,z
   ENINI  =  500.0     initial cutoff
   ENAUG  =  587.0 eV  augmentation charge cutoff
   NELM   =    150;   NELMIN=  2; NELMDL= -5     # of ELM steps 
   EDIFF  = 0.1E-04   stopping-criterion for ELM
   LREAL  =      T    real-space projection
   NLSPLINE    = F    spline interpolate recip. space projectors
   LCOMPAT=      F    compatible to vasp.4.4
   GGA_COMPAT  = T    GGA compatible to vasp.4.4-vasp.4.6
   LMAXPAW     = -100 max onsite density
   LMAXMIX     =    2 max onsite mixed and CHGCAR
   VOSKOWN=      0    Vosko Wilk Nusair interpolation
   ROPT   =   -0.00050  -0.00050  -0.00050
 Ionic relaxation
   EDIFFG = -.1E-01   stopping-criterion for IOM
   NSW    =      0    number of steps for IOM
   NBLOCK =      1;   KBLOCK =      1    inner block; outer block 
   IBRION =     -1    ionic relax: 0-MD 1-quasi-New 2-CG
   NFREE  =      1    steps in history (QN), initial steepest desc. (CG)
   ISIF   =      2    stress and relaxation
   IWAVPR =     10    prediction:  0-non 1-charg 2-wave 3-comb
   ISYM   =      2    0-nonsym 1-usesym 2-fastsym
   LCORR  =      T    Harris-Foulkes like correction to forces

   POTIM  = 0.5000    time-step for ionic-motion
   TEIN   =    0.0    initial temperature
   TEBEG  =    0.0;   TEEND  =   0.0 temperature during run
   SMASS  =  -3.00    Nose mass-parameter (am)
   estimated Nose-frequenzy (Omega)   =  0.10E-29 period in steps = 0.13E+47 mass=  -0.135E-26a.u.
   SCALEE = 1.0000    scale energy and forces
   NPACO  =    256;   APACO  = 16.0  distance and # of slots for P.C.
   PSTRESS=    0.0 pullay stress

  Mass of Ions in am
   POMASS =  63.55 58.69  1.00
  Ionic Valenz
   ZVAL   =  11.00 10.00  1.00
  Atomic Wigner-Seitz radii
   RWIGS  =  -1.00 -1.00 -1.00
  virtual crystal weights 
   VCA    =   1.00  1.00  1.00
   NELECT =     396.0000    total number of electrons
   NUPDOWN=      -1.0000    fix difference up-down

 DOS related values:
   EMIN   =  10.00;   EMAX   =-10.00  energy-range for DOS
   EFERMI =   0.00
   ISMEAR =    -5;   SIGMA  =   0.10  broadening in eV -4-tet -1-fermi 0-gaus

 Electronic relaxation 2 (details)
   IALGO  =     68    algorithm
   LDIAG  =      T    sub-space diagonalisation (order eigenvalues)
   LSUBROT=      F    optimize rotation matrix (better conditioning)
   TURBO    =      0    0=normal 1=particle mesh
   IRESTART =      0    0=no restart 2=restart with 2 vectors
   NREBOOT  =      0    no. of reboots
   NMIN     =      0    reboot dimension
   EREF     =   0.00    reference energy to select bands
   IMIX   =      4    mixing-type and parameters
     AMIX     =   0.40;   BMIX     =  1.00
     AMIX_MAG =   1.60;   BMIX_MAG =  1.00
     AMIN     =   0.10
     WC   =   100.;   INIMIX=   1;  MIXPRE=   1;  MAXMIX= -45

 Intra band minimization:
   WEIMIN = 0.0000     energy-eigenvalue tresh-hold
   EBREAK =  0.99E-08  absolut break condition
   DEPER  =   0.30     relativ break condition  

   TIME   =   0.40     timestep for ELM

  volume/ion in A,a.u.               =      29.51       199.16
  Fermi-wavevector in a.u.,A,eV,Ry     =   1.167445  2.206150 18.543744  1.362927
  Thomas-Fermi vector in A             =   2.303945
 
 Write flags
   LWAVE        =      F    write WAVECAR
   LDOWNSAMPLE  =      F    k-point downsampling of WAVECAR
   LCHARG       =      F    write CHGCAR
   LVTOT        =      F    write LOCPOT, total local potential
   LVHAR        =      F    write LOCPOT, Hartree potential only
   LELF         =      F    write electronic localiz. function (ELF)
   LORBIT       =     10    0 simple, 1 ext, 2 COOP (PROOUT), +10 PAW based schemes


 Dipole corrections
   LMONO  =      F    monopole corrections only (constant potential shift)
   LDIPOL =      F    correct potential (dipole corrections)
   IDIPOL =      0    1-x, 2-y, 3-z, 4-all directions 
   EPSILON=  1.0000000 bulk dielectric constant

 Exchange correlation treatment:
   GGA     =    --    GGA type
   LEXCH   =     8    internal setting for exchange type
   VOSKOWN=      0    Vosko Wilk Nusair interpolation
   LHFCALC =     F    Hartree Fock is set to
   LHFONE  =     F    Hartree Fock one center treatment
   AEXX    =    0.0000 exact exchange contribution

 Linear response parameters
   LEPSILON=     F    determine dielectric tensor
   LRPA    =     F    only Hartree local field effects (RPA)
   LNABLA  =     F    use nabla operator in PAW spheres
   LVEL    =     F    velocity operator in full k-point grid
   LINTERFAST=   F  fast interpolation
   KINTER  =     0    interpolate to denser k-point grid
   CSHIFT  =0.1000    complex shift for real part using Kramers Kronig
   OMEGAMAX=  -1.0    maximum frequency
   DEG_THRESHOLD= 0.2000000E-02 threshold for treating states as degnerate
   RTIME   =   -0.100 relaxation time in fs
  (WPLASMAI=    0.000 imaginary part of plasma frequency in eV, 0.658/RTIME)
   DFIELD  = 0.0000000 0.0000000 0.0000000 field for delta impulse in time
 
 Orbital magnetization related:
   ORBITALMAG=     F  switch on orbital magnetization
   LCHIMAG   =     F  perturbation theory with respect to B field
   DQ        =  0.001000  dq finite difference perturbation B field
   LLRAUG    =     F  two centre corrections for induced B field



--------------------------------------------------------------------------------------------------------


 Static calculation
 charge density and potential remain constant during run
 non-spin polarized calculation
 RMM-DIIS sequential band-by-band and
  variant of blocked Davidson during initial phase
 perform sub-space diagonalisation
    before iterative eigenvector-optimisation
 no mixing
 using additional bands           54
 real space projection scheme for non local part
 use partial core corrections
 calculate Harris-corrections to forces 
   (improved forces if not selfconsistent)
 use gradient corrections 
 WARNING: stress and forces are not correct
  (second derivative of E(xc) not defined)
 use of overlap-Matrix (Vanderbilt PP)
 Fermi weights with tetrahedron method with Bloechl corrections


--------------------------------------------------------------------------------------------------------


  energy-cutoff  :      500.00
  volume of cell :     1091.97
      direct lattice vectors                 reciprocal lattice vectors
     7.696786404  0.000000000  0.000000000     0.129924354 -0.075011849  0.000000000
     3.848392758  6.665612809  0.000000000     0.000000000  0.150023716  0.000000000
     0.000000000  0.000000000 21.284399033     0.000000000  0.000000000  0.046982769

  length of vectors
     7.696786404  7.696786404 21.284399033     0.150023716  0.150023716  0.046982769


 
 k-points in units of 2pi/SCALE and weight: Automatic mesh                          
   0.00000000  0.00000000  0.00000000       0.016
   0.01624054 -0.00937648  0.00000000       0.094
   0.03248109 -0.01875296  0.00000000       0.094
   0.04872163 -0.02812944  0.00000000       0.094
   0.06496218 -0.03750592  0.00000000       0.047
   0.03248109  0.00000000  0.00000000       0.094
   0.04872163 -0.00937648  0.00000000       0.188
   0.06496218 -0.01875296  0.00000000       0.188
   0.06496218  0.00000000  0.00000000       0.094
  -0.04872163  0.06563537  0.00000000       0.094
 
 k-points in reciprocal lattice and weights: Automatic mesh                          
   0.00000000  0.00000000  0.00000000       0.016
   0.12500000 -0.00000000  0.00000000       0.094
   0.25000000 -0.00000000  0.00000000       0.094
   0.37500000 -0.00000000  0.00000000       0.094
   0.50000000 -0.00000000  0.00000000       0.047
   0.25000000  0.12500000  0.00000000       0.094
   0.37500000  0.12500000  0.00000000       0.188
   0.50000000  0.12500000  0.00000000       0.188
   0.50000000  0.25000000  0.00000000       0.094
  -0.37500000  0.25000000  0.00000000       0.094
 
 position of ions in fractional coordinates (direct lattice) 
   0.00000000  0.00000000  0.25237075
   0.33333334  0.00000000  0.25237075
   0.66666669  0.00000000  0.25237075
   0.00000000  0.33333334  0.25237075
   0.33333331  0.33333334  0.25237075
   0.66666669  0.33333334  0.25237075
   0.00000000  0.66666669  0.25237075
   0.33333337  0.66666669  0.25237075
   0.66666663  0.66666669  0.25237075
   0.11111112  0.11111111  0.35079026
   0.44444442  0.11111111  0.35079026
   0.77777779  0.11111111  0.35079026
   0.11111112  0.44444445  0.35079026
   0.44444448  0.44444445  0.35079026
   0.77777773  0.44444445  0.35079026
   0.11111111  0.77777773  0.35079026
   0.44444448  0.77777773  0.35079026
   0.77777785  0.77777773  0.35079026
   0.88871764  0.22256474  0.44871889
   0.22220567  0.22220565  0.44834471
   0.55558873  0.22220565  0.44834471
   0.88884876  0.55557559  0.44859582
   0.22220564  0.55558867  0.44834471
   0.55557565  0.55557559  0.44859582
   0.88871764  0.88871764  0.44871889
   0.22256476  0.88871764  0.44871889
   0.55557559  0.88884876  0.44859582
   0.00000000  0.00000000  0.54571678
   0.33320706  0.00216992  0.54594194
   0.66462305  0.00216992  0.54594194
   0.00216992  0.33320706  0.54594194
   0.66462305  0.33320706  0.54594194
   0.00216992  0.66462305  0.54594194
   0.33320709  0.66462305  0.54594194
   0.66666663  0.66666669  0.54564374
   0.33333331  0.33333334  0.54195585
   0.33333331  0.33333334  0.61165836
 
 position of ions in cartesian coordinates  (Angst):
   0.00000000  0.00000000  5.37155964
   2.56559554  0.00000000  5.37155964
   5.13119109  0.00000000  5.37155964
   1.28279762  2.22187100  5.37155964
   3.84839293  2.22187100  5.37155964
   6.41398872  2.22187100  5.37155964
   2.56559525  4.44374201  5.37155964
   5.13119102  4.44374201  5.37155964
   7.69678588  4.44374201  5.37155964
   1.28279775  0.74062365  7.46635991
   3.84839295  0.74062365  7.46635991
   6.41398873  0.74062365  7.46635991
   2.56559535  2.96249461  7.46635991
   5.13119101  2.96249461  7.46635991
   7.69678586  2.96249461  7.46635991
   3.84839268  5.18436521  7.46635991
   6.41398840  5.18436521  7.46635991
   8.97958418  5.18436521  7.46635991
   7.69678637  1.48353040  9.55071198
   2.56540417  1.48113684  9.54274773
   5.13138238  1.48113684  9.54274773
   8.97935215  3.70325176  9.54809236
   3.84839272  3.70333893  9.54274773
   6.41422017  3.70325176  9.54809236
  10.26040434  5.92384766  9.55071198
   5.13316792  5.92384766  9.55071198
   7.69678578  5.92472170  9.54809236
   0.00000000  0.00000000 11.61525363
   2.57297424  0.01446385 11.62004611
   5.12381239  0.01446385 11.62004611
   1.29901303  2.22102922 11.62004611
   6.39777331  2.22102922 11.62004611
   2.57443196  4.43011995 11.62004611
   5.12235431  4.43011995 11.62004611
   7.69678588  4.44374201 11.61369909
   3.84839293  2.22187100 11.53520467
   3.84839293  2.22187100 13.01878059
 


--------------------------------------------------------------------------------------------------------


 k-point   1 :   0.0000 0.0000 0.0000  plane waves:   27671
 k-point   2 :   0.1250-0.0000 0.0000  plane waves:   27649
 k-point   3 :   0.2500-0.0000 0.0000  plane waves:   27714
 k-point   4 :   0.3750-0.0000 0.0000  plane waves:   27740
 k-point   5 :   0.5000-0.0000 0.0000  plane waves:   27782
 k-point   6 :   0.2500 0.1250 0.0000  plane waves:   27698
 k-point   7 :   0.3750 0.1250 0.0000  plane waves:   27702
 k-point   8 :   0.5000 0.1250 0.0000  plane waves:   27747
 k-point   9 :   0.5000 0.2500 0.0000  plane waves:   27734
 k-point  10 :  -0.3750 0.2500 0.0000  plane waves:   27782

 maximum and minimum number of plane-waves per node :     27782    27649

 maximum number of plane-waves:     27782
 maximum index in each direction: 
   IXMAX=   14   IYMAX=   14   IZMAX=   38
   IXMIN=  -14   IYMIN=  -14   IZMIN=  -38


 serial   3D FFT for wavefunctions
 parallel 3D FFT for charge:
    minimum data exchange during FFTs selected (reduces bandwidth)


 total amount of memory used by VASP MPI-rank0   104411. kBytes
=======================================================================

   base      :      30000. kBytes
   nonlr-proj:      17525. kBytes
   fftplans  :       2916. kBytes
   grid      :      12390. kBytes
   one-center:        575. kBytes
   wavefun   :      41005. kBytes
 
     INWAV:  cpu time    0.0000: real time    0.0000
 initial charge density was supplied:
 number of electron     395.9999787 magnetization 
 keeping initial charge density in first step


--------------------------------------------------------------------------------------------------------


 Maximum index for non-local projection operator         2776
 Maximum index for augmentation-charges          370 (set IRDMAX)


--------------------------------------------------------------------------------------------------------


 First call to EWALD:  gamma=   0.172
 Maximum number of real-space cells 4x 4x 2
 Maximum number of reciprocal cells 2x 2x 5

    FEWALD:  cpu time    0.0013: real time    0.0013


--------------------------------------- Iteration      1(   1)  ---------------------------------------


    POTLOK:  cpu time    0.0261: real time    0.0265
    SETDIJ:  cpu time    0.0039: real time    0.0042
     EDDAV:  cpu time    5.7002: real time    5.7020
 BZINTS: Fermi energy:   13.381790;  396.000000 electrons
         Band energy: 0.256535E+04;  BLOECHL correction:   -0.002768
       DOS:  cpu time    0.0100: real time    0.0100
    --------------------------------------------
      LOOP:  cpu time    5.7402: real time    5.7427

 eigenvalue-minimisations  :  5040
 total energy-change (2. order) : 0.3507122E+04  (-0.1701578E+05)
 number of electron     395.9999787 magnetization 
 augmentation part      395.9999787 magnetization 

 Free energy of the ion-electron system (eV)
  ---------------------------------------------------
  alpha Z        PSCENC =       863.24108902
  Ewald energy   TEWEN  =    149269.19212856
  -Hartree energ DENC   =   -196720.83304278
  -exchange      EXHF   =         0.00000000
  -V(xc)+E(xc)   XCENC  =      1591.18272480
  PAW double counting   =     46746.91993749   -50582.26696117
  entropy T*S    EENTRO =         0.00000000
  eigenvalues    EBANDS =      2565.34935442
  atomic energy  EATOM  =     49774.33642393
  Solvation  Ediel_sol  =         0.00000000
  ---------------------------------------------------
  free energy    TOTEN  =      3507.12165426 eV

  energy without entropy =     3507.12165426  energy(sigma->0) =     3507.12165426


--------------------------------------------------------------------------------------------------------




--------------------------------------- Iteration      1(   2)  ---------------------------------------


     EDDAV:  cpu time    5.6651: real time    5.6657
 BZINTS: Fermi energy:    2.843793;  396.000000 electrons
         Band energy:-0.621373E+03;  BLOECHL correction:   -0.001833
       DOS:  cpu time    0.0104: real time    0.0104
    --------------------------------------------
      LOOP:  cpu time    5.6756: real time    5.6761

 eigenvalue-minimisations  :  5040
 total energy-change (2. order) :-0.3186723E+04  (-0.3057105E+04)
 number of electron     395.9999787 magnetization 
 augmentation part      395.9999787 magnetization 

 Free energy of the ion-electron system (eV)
  ---------------------------------------------------
  alpha Z        PSCENC =       863.24108902
  Ewald energy   TEWEN  =    149269.19212856
  -Hartree energ DENC   =   -196720.83304278
  -exchange      EXHF   =         0.00000000
  -V(xc)+E(xc)   XCENC  =      1591.18272480
  PAW double counting   =     46746.91993749   -50582.26696117
  entropy T*S    EENTRO =         0.00000000
  eigenvalues    EBANDS =      -621.37333209
  atomic energy  EATOM  =     49774.33642393
  Solvation  Ediel_sol  =         0.00000000
  ---------------------------------------------------
  free energy    TOTEN  =       320.39896776 eV

  energy without entropy =      320.39896776  energy(sigma->0) =      320.39896776


--------------------------------------------------------------------------------------------------------




--------------------------------------- Iteration      1(   3)  ---------------------------------------


     EDDAV:  cpu time    5.9700: real time    5.9733
 BZINTS: Fermi energy:    0.091947;  396.000000 electrons
         Band energy:-0.105249E+04;  BLOECHL correction:   -0.061181
       DOS:  cpu time    0.0098: real time    0.0098
    --------------------------------------------
      LOOP:  cpu time    5.9798: real time    5.9831

 eigenvalue-minimisations  :  5376
 total energy-change (2. order) :-0.4311158E+03  (-0.4007741E+03)
 number of electron     395.9999787 magnetization 
 augmentation part      395.9999787 magnetization 

 Free energy of the ion-electron system (eV)
  ---------------------------------------------------
  alpha Z        PSCENC =       863.24108902
  Ewald energy   TEWEN  =    149269.19212856
  -Hartree energ DENC   =   -196720.83304278
  -exchange      EXHF   =         0.00000000
  -V(xc)+E(xc)   XCENC  =      1591.18272480
  PAW double counting   =     46746.91993749   -50582.26696117
  entropy T*S    EENTRO =         0.00000000
  eigenvalues    EBANDS =     -1052.48909078
  atomic energy  EATOM  =     49774.33642393
  Solvation  Ediel_sol  =         0.00000000
  ---------------------------------------------------
  free energy    TOTEN  =      -110.71679093 eV

  energy without entropy =     -110.71679093  energy(sigma->0) =     -110.71679093


--------------------------------------------------------------------------------------------------------




--------------------------------------- Iteration      1(   4)  ---------------------------------------


     EDDAV:  cpu time    6.1813: real time    6.1818
 BZINTS: Fermi energy:    0.014070;  396.000000 electrons
         Band energy:-0.107220E+04;  BLOECHL correction:   -0.059563
       DOS:  cpu time    0.0103: real time    0.0103
    --------------------------------------------
      LOOP:  cpu time    6.1916: real time    6.1921

 eigenvalue-minimisations  :  5600
 total energy-change (2. order) :-0.1971411E+02  (-0.1958562E+02)
 number of electron     395.9999787 magnetization 
 augmentation part      395.9999787 magnetization 

 Free energy of the ion-electron system (eV)
  ---------------------------------------------------
  alpha Z        PSCENC =       863.24108902
  Ewald energy   TEWEN  =    149269.19212856
  -Hartree energ DENC   =   -196720.83304278
  -exchange      EXHF   =         0.00000000
  -V(xc)+E(xc)   XCENC  =      1591.18272480
  PAW double counting   =     46746.91993749   -50582.26696117
  entropy T*S    EENTRO =         0.00000000
  eigenvalues    EBANDS =     -1072.20319974
  atomic energy  EATOM  =     49774.33642393
  Solvation  Ediel_sol  =         0.00000000
  ---------------------------------------------------
  free energy    TOTEN  =      -130.43089990 eV

  energy without entropy =     -130.43089990  energy(sigma->0) =     -130.43089990


--------------------------------------------------------------------------------------------------------




--------------------------------------- Iteration      1(   5)  ---------------------------------------


     EDDAV:  cpu time    6.3847: real time    6.3853
 BZINTS: Fermi energy:    0.012635;  396.000000 electrons
         Band energy:-0.107260E+04;  BLOECHL correction:   -0.059534
       DOS:  cpu time    0.0103: real time    0.0103
    --------------------------------------------
      LOOP:  cpu time    6.3950: real time    6.3956

 eigenvalue-minimisations  :  5824
 total energy-change (2. order) :-0.3946202E+00  (-0.3945310E+00)
 number of electron     395.9999787 magnetization 
 augmentation part      395.9999787 magnetization 

 Free energy of the ion-electron system (eV)
  ---------------------------------------------------
  alpha Z        PSCENC =       863.24108902
  Ewald energy   TEWEN  =    149269.19212856
  -Hartree energ DENC   =   -196720.83304278
  -exchange      EXHF   =         0.00000000
  -V(xc)+E(xc)   XCENC  =      1591.18272480
  PAW double counting   =     46746.91993749   -50582.26696117
  entropy T*S    EENTRO =         0.00000000
  eigenvalues    EBANDS =     -1072.59781990
  atomic energy  EATOM  =     49774.33642393
  Solvation  Ediel_sol  =         0.00000000
  ---------------------------------------------------
  free energy    TOTEN  =      -130.82552005 eV

  energy without entropy =     -130.82552005  energy(sigma->0) =     -130.82552005


--------------------------------------------------------------------------------------------------------




--------------------------------------- Iteration      1(   6)  ---------------------------------------


    EDDIAG:  cpu time    1.0487: real time    1.0491
  RMM-DIIS:  cpu time    3.0842: real time    3.0844
    ORTHCH:  cpu time    0.2092: real time    0.2092
 BZINTS: Fermi energy:    0.012582;  396.000000 electrons
         Band energy:-0.107261E+04;  BLOECHL correction:   -0.059530
       DOS:  cpu time    0.0100: real time    0.0100
    --------------------------------------------
      LOOP:  cpu time    4.3521: real time    4.3528

 eigenvalue-minimisations  :  5377
 total energy-change (2. order) :-0.1049659E-01  (-0.1049788E-01)
 number of electron     395.9999787 magnetization 
 augmentation part      395.9999787 magnetization 

 Free energy of the ion-electron system (eV)
  ---------------------------------------------------
  alpha Z        PSCENC =       863.24108902
  Ewald energy   TEWEN  =    149269.19212856
  -Hartree energ DENC   =   -196720.83304278
  -exchange      EXHF   =         0.00000000
  -V(xc)+E(xc)   XCENC  =      1591.18272480
  PAW double counting   =     46746.91993749   -50582.26696117
  entropy T*S    EENTRO =         0.00000000
  eigenvalues    EBANDS =     -1072.60831649
  atomic energy  EATOM  =     49774.33642393
  Solvation  Ediel_sol  =         0.00000000
  ---------------------------------------------------
  free energy    TOTEN  =      -130.83601664 eV

  energy without entropy =     -130.83601664  energy(sigma->0) =     -130.83601664


--------------------------------------------------------------------------------------------------------




--------------------------------------- Iteration      1(   7)  ---------------------------------------


    EDDIAG:  cpu time    1.0493: real time    1.0495
  RMM-DIIS:  cpu time    4.4267: real time    4.4270
    ORTHCH:  cpu time    0.2082: real time    0.2082
 BZINTS: Fermi energy:    0.012561;  396.000000 electrons
         Band energy:-0.107261E+04;  BLOECHL correction:   -0.059528
       DOS:  cpu time    0.0103: real time    0.0103
    --------------------------------------------
      LOOP:  cpu time    5.6945: real time    5.6950

 eigenvalue-minimisations  :  7816
 total energy-change (2. order) :-0.4595100E-02  (-0.4604276E-02)
 number of electron     395.9999787 magnetization 
 augmentation part      395.9999787 magnetization 

 Free energy of the ion-electron system (eV)
  ---------------------------------------------------
  alpha Z        PSCENC =       863.24108902
  Ewald energy   TEWEN  =    149269.19212856
  -Hartree energ DENC   =   -196720.83304278
  -exchange      EXHF   =         0.00000000
  -V(xc)+E(xc)   XCENC  =      1591.18272480
  PAW double counting   =     46746.91993749   -50582.26696117
  entropy T*S    EENTRO =         0.00000000
  eigenvalues    EBANDS =     -1072.61291159
  atomic energy  EATOM  =     49774.33642393
  Solvation  Ediel_sol  =         0.00000000
  ---------------------------------------------------
  free energy    TOTEN  =      -130.84061174 eV

  energy without entropy =     -130.84061174  energy(sigma->0) =     -130.84061174


--------------------------------------------------------------------------------------------------------




--------------------------------------- Iteration      1(   8)  ---------------------------------------


    EDDIAG:  cpu time    1.0496: real time    1.0500
  RMM-DIIS:  cpu time    3.8163: real time    3.8164
    ORTHCH:  cpu time    0.2085: real time    0.2086
 BZINTS: Fermi energy:    0.012560;  396.000000 electrons
         Band energy:-0.107261E+04;  BLOECHL correction:   -0.059528
       DOS:  cpu time    0.0100: real time    0.0100
    --------------------------------------------
      LOOP:  cpu time    5.0844: real time    5.0850

 eigenvalue-minimisations  :  6705
 total energy-change (2. order) :-0.2940187E-03  (-0.3009657E-03)
 number of electron     395.9999787 magnetization 
 augmentation part      395.9999787 magnetization 

 Free energy of the ion-electron system (eV)
  ---------------------------------------------------
  alpha Z        PSCENC =       863.24108902
  Ewald energy   TEWEN  =    149269.19212856
  -Hartree energ DENC   =   -196720.83304278
  -exchange      EXHF   =         0.00000000
  -V(xc)+E(xc)   XCENC  =      1591.18272480
  PAW double counting   =     46746.91993749   -50582.26696117
  entropy T*S    EENTRO =         0.00000000
  eigenvalues    EBANDS =     -1072.61320560
  atomic energy  EATOM  =     49774.33642393
  Solvation  Ediel_sol  =         0.00000000
  ---------------------------------------------------
  free energy    TOTEN  =      -130.84090576 eV

  energy without entropy =     -130.84090576  energy(sigma->0) =     -130.84090576


--------------------------------------------------------------------------------------------------------




--------------------------------------- Iteration      1(   9)  ---------------------------------------


    EDDIAG:  cpu time    1.0497: real time    1.0500
  RMM-DIIS:  cpu time    4.3588: real time    4.3592
    ORTHCH:  cpu time    0.2082: real time    0.2082
 BZINTS: Fermi energy:    0.012560;  396.000000 electrons
         Band energy:-0.107261E+04;  BLOECHL correction:   -0.059528
       DOS:  cpu time    0.0101: real time    0.0101
    --------------------------------------------
      LOOP:  cpu time    5.6268: real time    5.6274

 eigenvalue-minimisations  :  7775
 total energy-change (2. order) :-0.8678032E-04  (-0.8659731E-04)
 number of electron     395.9999787 magnetization 
 augmentation part      395.9999787 magnetization 

 Free energy of the ion-electron system (eV)
  ---------------------------------------------------
  alpha Z        PSCENC =       863.24108902
  Ewald energy   TEWEN  =    149269.19212856
  -Hartree energ DENC   =   -196720.83304278
  -exchange      EXHF   =         0.00000000
  -V(xc)+E(xc)   XCENC  =      1591.18272480
  PAW double counting   =     46746.91993749   -50582.26696117
  entropy T*S    EENTRO =         0.00000000
  eigenvalues    EBANDS =     -1072.61329239
  atomic energy  EATOM  =     49774.33642393
  Solvation  Ediel_sol  =         0.00000000
  ---------------------------------------------------
  free energy    TOTEN  =      -130.84099254 eV

  energy without entropy =     -130.84099254  energy(sigma->0) =     -130.84099254


--------------------------------------------------------------------------------------------------------




--------------------------------------- Iteration      1(  10)  ---------------------------------------


    EDDIAG:  cpu time    1.0495: real time    1.0498
  RMM-DIIS:  cpu time    3.2886: real time    3.2888
    ORTHCH:  cpu time    0.2087: real time    0.2087
 BZINTS: Fermi energy:    0.012560;  396.000000 electrons
         Band energy:-0.107261E+04;  BLOECHL correction:   -0.059528
       DOS:  cpu time    0.0102: real time    0.0102
    --------------------------------------------
      LOOP:  cpu time    4.5571: real time    4.5576

 eigenvalue-minimisations  :  5543
 total energy-change (2. order) :-0.1128737E-04  (-0.1133372E-04)
 number of electron     395.9999787 magnetization 
 augmentation part      395.9999787 magnetization 

 Free energy of the ion-electron system (eV)
  ---------------------------------------------------
  alpha Z        PSCENC =       863.24108902
  Ewald energy   TEWEN  =    149269.19212856
  -Hartree energ DENC   =   -196720.83304278
  -exchange      EXHF   =         0.00000000
  -V(xc)+E(xc)   XCENC  =      1591.18272480
  PAW double counting   =     46746.91993749   -50582.26696117
  entropy T*S    EENTRO =         0.00000000
  eigenvalues    EBANDS =     -1072.61330367
  atomic energy  EATOM  =     49774.33642393
  Solvation  Ediel_sol  =         0.00000000
  ---------------------------------------------------
  free energy    TOTEN  =      -130.84100383 eV

  energy without entropy =     -130.84100383  energy(sigma->0) =     -130.84100383


--------------------------------------------------------------------------------------------------------




--------------------------------------- Iteration      1(  11)  ---------------------------------------


    EDDIAG:  cpu time    1.0491: real time    1.0492
  RMM-DIIS:  cpu time    2.5077: real time    2.5078
    ORTHCH:  cpu time    0.2082: real time    0.2083
 BZINTS: Fermi energy:    0.012560;  396.000000 electrons
         Band energy:-0.107261E+04;  BLOECHL correction:   -0.059528
       DOS:  cpu time    0.0100: real time    0.0100
    --------------------------------------------
      LOOP:  cpu time    3.7750: real time    3.7754

 eigenvalue-minimisations  :  3651
 total energy-change (2. order) :-0.1967943E-05  (-0.1970354E-05)
 number of electron     395.9999787 magnetization 
 augmentation part      395.9999787 magnetization 

 Free energy of the ion-electron system (eV)
  ---------------------------------------------------
  alpha Z        PSCENC =       863.24108902
  Ewald energy   TEWEN  =    149269.19212856
  -Hartree energ DENC   =   -196720.83304278
  -exchange      EXHF   =         0.00000000
  -V(xc)+E(xc)   XCENC  =      1591.18272480
  PAW double counting   =     46746.91993749   -50582.26696117
  entropy T*S    EENTRO =         0.00000000
  eigenvalues    EBANDS =     -1072.61330564
  atomic energy  EATOM  =     49774.33642393
  Solvation  Ediel_sol  =         0.00000000
  ---------------------------------------------------
  free energy    TOTEN  =      -130.84100580 eV

  energy without entropy =     -130.84100580  energy(sigma->0) =     -130.84100580


--------------------------------------------------------------------------------------------------------




 average (electrostatic) potential at core
  the test charge radii are     0.9430  0.9791  0.5201
  (the norm of the test charge is              1.0000)
       1 -70.9141       2 -70.8950       3 -70.8949       4 -70.8950       5 -70.8968
       6 -70.8946       7 -70.8949       8 -70.8946       9 -70.9032      10 -71.1809
      11 -71.1468      12 -71.1807      13 -71.1467      14 -71.1464      15 -71.1734
      16 -71.1807      17 -71.1734      18 -71.1735      19 -71.1643      20 -71.1681
      21 -71.1679      22 -71.1690      23 -71.1679      24 -71.1688      25 -71.1643
      26 -71.1643      27 -71.1690      28 -70.8669      29 -70.8454      30 -70.8454
      31 -70.8454      32 -70.8451      33 -70.8454      34 -70.8451      35 -70.8634
      36 -90.9287      37 -35.9873
 
 
 
 E-fermi :   0.0126     XC(G=0):  -5.8514     alpha+bet : -5.2710

 Fermi energy:         0.0125598905

 k-point     1 :       0.0000    0.0000    0.0000
  band No.  band energies     occupation 
      1      -8.7421      2.00000
      2      -7.4388      2.00000
      3      -5.7903      2.00000
      4      -5.7464      2.00000
      5      -5.7362      2.00000
      6      -5.7362      2.00000
      7      -5.7358      2.00000
      8      -5.7294      2.00000
      9      -5.7294      2.00000
     10      -5.0116      2.00000
     11      -4.9613      2.00000
     12      -4.9550      2.00000
     13      -4.9496      2.00000
     14      -4.9496      2.00000
     15      -4.9440      2.00000
     16      -4.9440      2.00000
     17      -4.3372      2.00000
     18      -4.2595      2.00000
     19      -4.2594      2.00000
     20      -4.2579      2.00000
     21      -4.2404      2.00000
     22      -4.2403      2.00000
     23      -4.0005      2.00000
     24      -3.9725      2.00000
     25      -3.9685      2.00000
     26      -3.9685      2.00000
     27      -3.9675      2.00000
     28      -3.9675      2.00000
     29      -3.7991      2.00000
     30      -3.7991      2.00000
     31      -3.7967      2.00000
     32      -3.7967      2.00000
     33      -3.7945      2.00000
     34      -3.7935      2.00000
     35      -3.7533      2.00000
     36      -3.7266      2.00000
     37      -3.7266      2.00000
     38      -3.7248      2.00000
     39      -3.6943      2.00000
     40      -3.6943      2.00000
     41      -3.6511      2.00000
     42      -3.6511      2.00000
     43      -3.6470      2.00000
     44      -3.6470      2.00000
     45      -3.6375      2.00000
     46      -3.5426      2.00000
     47      -3.5063      2.00000
     48      -3.4406      2.00000
     49      -3.4385      2.00000
     50      -3.4385      2.00000
     51      -3.4145      2.00000
     52      -3.4111      2.00000
     53      -3.4111      2.00000
     54      -3.4102      2.00000
     55      -3.2633      2.00000
     56      -3.1035      2.00000
     57      -3.1035      2.00000
     58      -3.1013      2.00000
     59      -3.0802      2.00000
     60      -3.0802      2.00000
     61      -3.0524      2.00000
     62      -2.9992      2.00000
     63      -2.9992      2.00000
     64      -2.9605      2.00000
     65      -2.9605      2.00000
     66      -2.9513      2.00000
     67      -2.9513      2.00000
     68      -2.9487      2.00000
     69      -2.9448      2.00000
     70      -2.9349      2.00000
     71      -2.9349      2.00000
     72      -2.8882      2.00000
     73      -2.8614      2.00000
     74      -2.8614      2.00000
     75      -2.8536      2.00000
     76      -2.8132      2.00000
     77      -2.8132      2.00000
     78      -2.7471      2.00000
     79      -2.7471      2.00000
     80      -2.7424      2.00000
     81      -2.7281      2.00000
     82      -2.7281      2.00000
     83      -2.7151      2.00000
     84      -2.6777      2.00000
     85      -2.6776      2.00000
     86      -2.6756      2.00000
     87      -2.6734      2.00000
     88      -2.6733      2.00000
     89      -2.6721      2.00000
     90      -2.6214      2.00000
     91      -2.6214      2.00000
     92      -2.5875      2.00000
     93      -2.5875      2.00000
     94      -2.5621      2.00000
     95      -2.5621      2.00000
     96      -2.5448      2.00000
     97      -2.5411      2.00000
     98      -2.5411      2.00000
     99      -2.5154      2.00000
    100      -2.5154      2.00000
    101      -2.5024      2.00000
    102      -2.5024      2.00000
    103      -2.4913      2.00000
    104      -2.4426      2.00000
    105      -2.4425      2.00000
    106      -2.3902      2.00000
    107      -2.3902      2.00000
    108      -2.3182      2.00000
    109      -2.2553      2.00000
    110      -2.2552      2.00000
    111      -2.2531      2.00000
    112      -2.2488      2.00000
    113      -2.2478      2.00000
    114      -2.2470      2.00000
    115      -2.2470      2.00000
    116      -2.2231      2.00000
    117      -2.2231      2.00000
    118      -2.2071      2.00000
    119      -2.2060      2.00000
    120      -2.1996      2.00000
    121      -2.1996      2.00000
    122      -2.1972      2.00000
    123      -2.0573      2.00000
    124      -2.0573      2.00000
    125      -2.0278      2.00000
    126      -2.0277      2.00000
    127      -2.0229      2.00000
    128      -2.0229      2.00000
    129      -2.0115      2.00000
    130      -2.0067      2.00000
    131      -2.0067      2.00000
    132      -1.9586      2.00000
    133      -1.9586      2.00000
    134      -1.9416      2.00000
    135      -1.9401      2.00000
    136      -1.9400      2.00000
    137      -1.9378      2.00000
    138      -1.9205      2.00000
    139      -1.9205      2.00000
    140      -1.9079      2.00000
    141      -1.8677      2.00000
    142      -1.8676      2.00000
    143      -1.7914      2.00000
    144      -1.7914      2.00000
    145      -1.7895      2.00000
    146      -1.7867      2.00000
    147      -1.7867      2.00000
    148      -1.7829      2.00000
    149      -1.7820      2.00000
    150      -1.7800      2.00000
    151      -1.7800      2.00000
    152      -1.7719      2.00000
    153      -1.7718      2.00000
    154      -1.7365      2.00000
    155      -1.6533      2.00000
    156      -1.6533      2.00000
    157      -1.6533      2.00000
    158      -1.6532      2.00000
    159      -1.6518      2.00000
    160      -1.6487      2.00000
    161      -1.6388      2.00000
    162      -1.6388      2.00000
    163      -1.6210      2.00000
    164      -1.6210      2.00000
    165      -1.6160      2.00000
    166      -1.6160      2.00000
    167      -1.5972      2.00000
    168      -1.5972      2.00000
    169      -1.5967      2.00000
    170      -1.5815      2.00000
    171      -1.5815      2.00000
    172      -1.5794      2.00000
    173      -1.5747      2.00000
    174      -1.5747      2.00000
    175      -1.5736      2.00000
    176      -1.5693      2.00000
    177      -1.5693      2.00000
    178      -1.5525      2.00000
    179      -1.5525      2.00000
    180      -1.5512      2.00000
    181      -1.5368      2.00000
    182      -1.5325      2.00000
    183      -1.5304      2.00000
    184      -1.5207      2.00000
    185      -1.5207      2.00000
    186      -1.4657      2.00000
    187      -1.4657      2.00000
    188      -1.4409      2.00000
    189      -1.4409      2.00000
    190      -1.4286      2.00000
    191      -1.4254      2.00000
    192      -1.1025      2.00000
    193      -0.9903      2.00000
    194      -0.9903      2.00000
    195      -0.7627      2.00000
    196      -0.7627      2.00000
    197      -0.6342      2.00000
    198      -0.2515      2.00000
    199      -0.2375      2.00000
    200      -0.2375      2.00000
    201      -0.2035      2.29010
    202      -0.2035      2.27075
    203      -0.0706      0.53995
    204       1.3131      0.00000
    205       2.0840      0.00000
    206       2.1119      0.00000
    207       2.1119      0.00000
    208       2.1655      0.00000
    209       2.1655      0.00000
    210       3.4766      0.00000
    211       3.4997      0.00000
    212       3.6186      0.00000
    213       3.7320      0.00000
    214       3.7320      0.00000
    215       3.7635      0.00000
    216       3.7635      0.00000
    217       4.3747      0.00000
    218       4.5223      0.00000
    219       4.5411      0.00000
    220       4.5411      0.00000
    221       4.5851      0.00000
    222       4.6037      0.00000
    223       4.6037      0.00000
    224       4.6105      0.00000
    225       4.6106      0.00000
    226       4.6414      0.00000
    227       4.6414      0.00000
    228       5.2700      0.00000
    229       5.3004      0.00000
    230       5.7997      0.00000
    231       5.9593      0.00000
    232       6.2631      0.00000
    233       6.3636      0.00000
    234       6.3636      0.00000
    235       6.4618      0.00000
    236       6.4619      0.00000
    237       6.8887      0.00000
    238       6.8887      0.00000
    239       6.8927      0.00000
    240       6.8927      0.00000
    241       6.8952      0.00000
    242       7.1414      0.00000
    243       7.4521      0.00000
    244       7.4914      0.00000
    245       7.4931      0.00000
    246       7.4960      0.00000
    247       7.5016      0.00000
    248       7.5035      0.00000
    249       7.5790      0.00000
    250       7.9333      0.00000
    251       7.9775      0.00000
    252       7.9814      0.00000

 k-point     2 :       0.1250   -0.0000    0.0000
  band No.  band energies     occupation 
      1      -8.6869      2.00000
      2      -7.3859      2.00000
      3      -6.3069      2.00000
      4      -5.9857      2.00000
      5      -5.9791      2.00000
      6      -5.7389      2.00000
      7      -5.4478      2.00000
      8      -5.4407      2.00000
      9      -5.3144      2.00000
     10      -5.2464      2.00000
     11      -5.1067      2.00000
     12      -5.0797      2.00000
     13      -4.9233      2.00000
     14      -4.8130      2.00000
     15      -4.7928      2.00000
     16      -4.7310      2.00000
     17      -4.3516      2.00000
     18      -4.2843      2.00000
     19      -4.2527      2.00000
     20      -4.2452      2.00000
     21      -4.2256      2.00000
     22      -4.2202      2.00000
     23      -4.0381      2.00000
     24      -3.9980      2.00000
     25      -3.9849      2.00000
     26      -3.9466      2.00000
     27      -3.9321      2.00000
     28      -3.9264      2.00000
     29      -3.9119      2.00000
     30      -3.9118      2.00000
     31      -3.8727      2.00000
     32      -3.8690      2.00000
     33      -3.8016      2.00000
     34      -3.7655      2.00000
     35      -3.7638      2.00000
     36      -3.7468      2.00000
     37      -3.7314      2.00000
     38      -3.6890      2.00000
     39      -3.6576      2.00000
     40      -3.6553      2.00000
     41      -3.6496      2.00000
     42      -3.6418      2.00000
     43      -3.6187      2.00000
     44      -3.5845      2.00000
     45      -3.5839      2.00000
     46      -3.5508      2.00000
     47      -3.5220      2.00000
     48      -3.4987      2.00000
     49      -3.4638      2.00000
     50      -3.4354      2.00000
     51      -3.3863      2.00000
     52      -3.3857      2.00000
     53      -3.3751      2.00000
     54      -3.3507      2.00000
     55      -3.2589      2.00000
     56      -3.1913      2.00000
     57      -3.1667      2.00000
     58      -3.1456      2.00000
     59      -3.0864      2.00000
     60      -3.0839      2.00000
     61      -3.0448      2.00000
     62      -3.0201      2.00000
     63      -3.0188      2.00000
     64      -2.9758      2.00000
     65      -2.9739      2.00000
     66      -2.9635      2.00000
     67      -2.9536      2.00000
     68      -2.9451      2.00000
     69      -2.9330      2.00000
     70      -2.9218      2.00000
     71      -2.9097      2.00000
     72      -2.8916      2.00000
     73      -2.8772      2.00000
     74      -2.8555      2.00000
     75      -2.8424      2.00000
     76      -2.7984      2.00000
     77      -2.7784      2.00000
     78      -2.7678      2.00000
     79      -2.7666      2.00000
     80      -2.7540      2.00000
     81      -2.7198      2.00000
     82      -2.7181      2.00000
     83      -2.7120      2.00000
     84      -2.7097      2.00000
     85      -2.6915      2.00000
     86      -2.6866      2.00000
     87      -2.6729      2.00000
     88      -2.6720      2.00000
     89      -2.6369      2.00000
     90      -2.6333      2.00000
     91      -2.6314      2.00000
     92      -2.5822      2.00000
     93      -2.5689      2.00000
     94      -2.5607      2.00000
     95      -2.5544      2.00000
     96      -2.5448      2.00000
     97      -2.5426      2.00000
     98      -2.5350      2.00000
     99      -2.5278      2.00000
    100      -2.5172      2.00000
    101      -2.5066      2.00000
    102      -2.4893      2.00000
    103      -2.4835      2.00000
    104      -2.4613      2.00000
    105      -2.4482      2.00000
    106      -2.4298      2.00000
    107      -2.4047      2.00000
    108      -2.4000      2.00000
    109      -2.3710      2.00000
    110      -2.3689      2.00000
    111      -2.3482      2.00000
    112      -2.2897      2.00000
    113      -2.2642      2.00000
    114      -2.2542      2.00000
    115      -2.2518      2.00000
    116      -2.2385      2.00000
    117      -2.2289      2.00000
    118      -2.2215      2.00000
    119      -2.2210      2.00000
    120      -2.2104      2.00000
    121      -2.1816      2.00000
    122      -2.1622      2.00000
[...]
  0.000   0.000   0.000   0.000   0.000   0.000   0.000   0.000   0.000   0.000   0.000   0.000   0.000   0.000   0.000   0.000
  0.000   0.000   0.000   0.000   0.000   0.000   0.000   0.000   0.000   0.000   0.000   0.000   0.000   0.000   0.000   0.000
  0.000   0.000   0.000   0.000   0.000   0.000   0.000   0.000   0.000   0.000   0.000   0.000   0.000   0.000   0.000   0.000
  0.000   0.000   0.000   0.000   0.000   0.000   0.000   0.000   0.000   0.000   0.000   0.000   0.000   0.000   0.000   0.000
  0.000   0.000   0.000   0.000   0.000   0.000   0.000   0.000   0.000   0.000   0.000   0.000   0.000   0.000   0.000   0.000
  0.000   0.000   0.000   0.000   0.000   0.000   0.000   0.000   0.000   0.000   1.000   0.000   0.000   0.000   0.000   0.000
  0.000   0.000   0.000   0.000   0.000   0.000   0.000   0.000   0.000   0.000   0.000   0.000   0.000   0.000   0.000   0.000
  0.000   0.000   0.000   0.000   0.000   0.000   0.000   0.000   0.000   0.000   0.000   0.000   0.000   0.000   0.000   0.000
  0.000   0.000   0.000   0.000   0.000   0.000   0.000   0.000   0.000   0.000   0.000   0.000   0.000   0.000   0.000   0.000
  0.000   0.000   0.000   0.000   0.000   0.000   0.000   0.000   0.000   0.000   0.000   0.000   0.000   0.000   0.000   0.000
  0.000   0.000   0.000   0.000   0.000   0.000   0.000   0.000   0.000   0.000   0.000   0.000   0.000   0.000   0.000   0.000
  0.000   0.000   0.000   0.000   0.000   0.000   0.000   0.000   0.000   0.000   0.000   0.000   0.000   0.000   0.000   0.000
  0.000   0.000   0.000   0.000   0.000   0.000   0.000   0.000   0.000   0.000   0.000   0.000   0.000   0.000   0.000   0.000


------------------------ aborting loop because EDIFF is reached ----------------------------------------





 total charge

# of ion       s       p       d       tot
------------------------------------------
    1        0.448   0.283   9.191   9.922
    2        0.449   0.285   9.187   9.921
    3        0.449   0.285   9.187   9.921
    4        0.449   0.285   9.187   9.921
    5        0.449   0.287   9.182   9.919
    6        0.449   0.285   9.187   9.921
    7        0.449   0.285   9.187   9.921
    8        0.449   0.285   9.187   9.921
    9        0.447   0.284   9.192   9.922
   10        0.440   0.372   9.175   9.987
   11        0.444   0.367   9.183   9.994
   12        0.440   0.372   9.175   9.987
   13        0.444   0.367   9.183   9.994
   14        0.444   0.367   9.183   9.994
   15        0.438   0.373   9.177   9.987
   16        0.440   0.372   9.175   9.987
   17        0.438   0.373   9.177   9.987
   18        0.438   0.373   9.177   9.987
   19        0.441   0.374   9.180   9.995
   20        0.453   0.382   9.175  10.009
   21        0.453   0.382   9.175  10.009
   22        0.437   0.378   9.178   9.993
   23        0.453   0.382   9.175  10.009
   24        0.437   0.378   9.178   9.993
   25        0.441   0.374   9.180   9.995
   26        0.441   0.374   9.180   9.995
   27        0.437   0.378   9.178   9.993
   28        0.449   0.283   9.196   9.928
   29        0.446   0.287   9.191   9.923
   30        0.446   0.287   9.191   9.923
   31        0.446   0.287   9.191   9.923
   32        0.446   0.287   9.191   9.923
   33        0.446   0.287   9.191   9.923
   34        0.446   0.287   9.191   9.923
   35        0.446   0.285   9.196   9.927
   36        0.500   0.471   8.370   9.341
   37        0.496   0.016   0.000   0.512
--------------------------------------------------
tot         16.562  12.076 329.798 358.436
 
    CHARGE:  cpu time    0.2101: real time    0.2103
    FORLOC:  cpu time    0.0074: real time    0.0074
    FORNL :  cpu time    1.1848: real time    1.1849
    STRESS:  cpu time    3.5117: real time    3.5121
    FORCOR:  cpu time    0.0267: real time    0.0268
    FORHAR:  cpu time    0.0116: real time    0.0117
    OFIELD:  cpu time    0.0001: real time    0.0001

  FORCE on cell =-STRESS in cart. coord.  units (eV):
  Direction    XX          YY          ZZ          XY          YZ          ZX
  --------------------------------------------------------------------------------------
  Alpha Z   863.24109   863.24109   863.24109
  Ewald  175404.40942175404.40898************     0.00040     0.00010     0.00017
  Hartree188513.19538188513.19533************     0.00005     0.00004     0.00008
  E(xc)   -2304.76181 -2304.76132 -2309.18129    -0.00042    -0.00003    -0.00006
  Local  ************************377321.93049     0.01868    -0.00054    -0.00095
  n-local  -775.81282  -760.57839  -781.01358     7.50154    -0.04413     0.15064
  augment  3485.82639  3485.84684  3496.05822    -0.01771     0.00024     0.00045
  Kinetic  3215.86481  3219.58551  3236.77090     2.86582     1.96392    -1.56270
  Fock        0.00000     0.00000     0.00000     0.00000     0.00000     0.00000
  -------------------------------------------------------------------------------------
  Total      -5.64822    -5.64822     2.34069     0.00000     0.00000     0.00000
  in kB      -8.28727    -8.28727     3.43435     0.00000     0.00000     0.00000
  external pressure =       -4.38 kB  Pullay stress =        0.00 kB


 VOLUME and BASIS-vectors are now :
 -----------------------------------------------------------------------------
  energy-cutoff  :      500.00
  volume of cell :     1091.97
      direct lattice vectors                 reciprocal lattice vectors
     7.696786404  0.000000000  0.000000000     0.129924354 -0.075011849  0.000000000
     3.848392758  6.665612809  0.000000000     0.000000000  0.150023716  0.000000000
     0.000000000  0.000000000 21.284399033     0.000000000  0.000000000  0.046982769

  length of vectors
     7.696786404  7.696786404 21.284399033     0.150023716  0.150023716  0.046982769


 FORCES acting on ions
    electron-ion (+dipol)            ewald-force                    non-local-force                 convergence-correction
 -----------------------------------------------------------------------------------------------
   -.415E-04 0.185E-06 0.349E+04   0.579E-04 -.443E-05 -.349E+04   -.119E-17 0.669E-19 -.293E+01   -.307E-03 -.144E-03 -.490E+00
   0.136E+00 0.128E+00 0.349E+04   -.170E+00 -.170E+00 -.349E+04   0.518E-01 0.910E-01 -.202E+01   -.526E-02 -.290E-01 -.424E+00
   -.136E+00 0.128E+00 0.349E+04   0.170E+00 -.170E+00 -.349E+04   -.518E-01 0.910E-01 -.202E+01   0.607E-02 -.264E-01 -.423E+00
   0.179E+00 0.537E-01 0.349E+04   -.232E+00 -.625E-01 -.349E+04   0.105E+00 -.692E-03 -.202E+01   -.277E-01 0.989E-02 -.423E+00
   -.622E-04 -.376E-05 0.349E+04   0.116E-03 -.101E-04 -.349E+04   0.408E-17 -.366E-18 -.154E+01   0.122E-01 0.744E-02 -.291E+00
   -.179E+00 0.538E-01 0.349E+04   0.232E+00 -.627E-01 -.349E+04   -.105E+00 -.692E-03 -.202E+01   0.261E-01 0.111E-01 -.422E+00
   0.430E-01 -.182E+00 0.349E+04   -.619E-01 0.232E+00 -.349E+04   0.530E-01 -.903E-01 -.202E+01   -.198E-01 0.184E-01 -.422E+00
   -.429E-01 -.182E+00 0.349E+04   0.616E-01 0.232E+00 -.349E+04   -.530E-01 -.903E-01 -.202E+01   0.233E-01 0.170E-01 -.422E+00
   -.144E-03 -.329E-04 0.349E+04   0.263E-03 0.206E-04 -.349E+04   -.401E-17 -.384E-17 -.254E+01   -.132E-01 -.683E-02 -.472E+00
   0.223E+01 0.129E+01 0.117E+04   -.190E+01 -.110E+01 -.117E+04   -.350E+00 -.202E+00 -.974E+00   0.119E-01 0.688E-02 -.229E+00
   -.903E-04 0.159E+01 0.117E+04   0.190E-03 -.167E+01 -.117E+04   -.896E-08 0.135E+00 -.484E+00   0.117E-01 -.612E-01 -.167E+00
   -.223E+01 0.129E+01 0.117E+04   0.190E+01 -.110E+01 -.117E+04   0.350E+00 -.202E+00 -.974E+00   -.134E-01 0.842E-02 -.229E+00
   0.138E+01 -.795E+00 0.117E+04   -.145E+01 0.834E+00 -.117E+04   0.117E+00 -.673E-01 -.484E+00   -.467E-01 0.416E-01 -.167E+00
   -.138E+01 -.795E+00 0.117E+04   0.145E+01 0.834E+00 -.117E+04   -.117E+00 -.673E-01 -.484E+00   0.708E-01 0.405E-01 -.168E+00
   -.144E-03 0.133E+00 0.117E+04   0.299E-03 -.312E+00 -.117E+04   -.577E-08 0.867E-01 -.986E+00   -.353E-02 0.773E-01 -.252E+00
   -.913E-04 -.258E+01 0.117E+04   0.186E-03 0.219E+01 -.117E+04   -.269E-07 0.404E+00 -.974E+00   -.355E-03 -.170E-01 -.229E+00
   0.115E+00 -.665E-01 0.117E+04   -.270E+00 0.156E+00 -.117E+04   0.751E-01 -.433E-01 -.986E+00   0.659E-01 -.417E-01 -.252E+00
   -.115E+00 -.665E-01 0.117E+04   0.270E+00 0.156E+00 -.117E+04   -.751E-01 -.433E-01 -.986E+00   -.648E-01 -.391E-01 -.252E+00
   -.559E-04 0.983E+00 -.117E+04   0.670E-04 -.104E+01 0.117E+04   -.187E-08 0.280E-01 0.931E+00   -.108E-01 0.311E-01 -.346E+00
   0.584E+01 0.337E+01 -.116E+04   -.491E+01 -.284E+01 0.116E+04   -.993E+00 -.574E+00 -.821E+00   0.571E-01 0.329E-01 -.264E+00
   -.584E+01 0.337E+01 -.116E+04   0.491E+01 -.284E+01 0.116E+04   0.993E+00 -.574E+00 -.821E+00   -.757E-01 0.334E-01 -.265E+00
   0.161E+01 -.932E+00 -.117E+04   -.184E+01 0.106E+01 0.117E+04   0.191E+00 -.110E+00 0.644E+00   0.552E-01 -.445E-01 -.429E+00
   -.744E-04 -.674E+01 -.116E+04   0.143E-03 0.567E+01 0.116E+04   -.764E-07 0.115E+01 -.821E+00   -.101E-01 -.835E-01 -.265E+00
   -.161E+01 -.932E+00 -.117E+04   0.184E+01 0.106E+01 0.117E+04   -.191E+00 -.110E+00 0.644E+00   -.761E-01 -.448E-01 -.429E+00
   -.852E+00 -.492E+00 -.117E+04   0.901E+00 0.520E+00 0.117E+04   -.243E-01 -.140E-01 0.931E+00   -.412E-01 -.238E-01 -.346E+00
   0.852E+00 -.492E+00 -.117E+04   -.901E+00 0.520E+00 0.117E+04   0.243E-01 -.140E-01 0.931E+00   0.219E-01 -.247E-01 -.346E+00
   -.132E-03 0.186E+01 -.117E+04   0.244E-03 -.212E+01 0.117E+04   -.147E-07 0.220E+00 0.644E+00   -.109E-01 0.700E-01 -.429E+00
   -.279E-04 0.196E-04 -.349E+04   0.366E-04 -.343E-04 0.349E+04   -.416E-17 0.167E-17 0.252E+01   -.688E-06 0.513E-04 0.413E+00
   0.393E+01 0.775E+01 -.350E+04   -.386E+01 -.792E+01 0.349E+04   -.759E-01 0.712E-01 0.275E+01   0.212E-01 0.108E+00 0.269E+00
   -.393E+01 0.775E+01 -.350E+04   0.386E+01 -.792E+01 0.349E+04   0.759E-01 0.712E-01 0.275E+01   -.203E-01 0.111E+00 0.269E+00
   0.868E+01 -.474E+00 -.350E+04   -.879E+01 0.620E+00 0.349E+04   0.238E-01 -.101E+00 0.275E+01   0.105E+00 -.360E-01 0.269E+00
   -.868E+01 -.474E+00 -.350E+04   0.879E+01 0.620E+00 0.349E+04   -.238E-01 -.101E+00 0.275E+01   -.105E+00 -.349E-01 0.268E+00
   0.475E+01 -.728E+01 -.350E+04   -.493E+01 0.730E+01 0.349E+04   0.996E-01 0.301E-01 0.275E+01   0.856E-01 -.729E-01 0.269E+00
   -.475E+01 -.728E+01 -.350E+04   0.493E+01 0.730E+01 0.349E+04   -.996E-01 0.301E-01 0.275E+01   -.823E-01 -.739E-01 0.269E+00
   -.129E-03 -.174E-04 -.349E+04   0.255E-03 0.574E-05 0.349E+04   -.303E-17 -.153E-18 0.260E+01   -.130E-01 -.666E-02 0.359E+00
   -.524E-04 -.406E-05 -.307E+04   0.130E-03 0.238E-04 0.307E+04   -.955E-18 0.238E-17 -.376E+01   0.855E-02 0.521E-02 -.912E-03
   0.252E-05 -.542E-05 -.406E+03   0.431E-05 0.177E-05 0.409E+03   0.114E-19 0.421E-21 -.219E+01   0.142E-03 0.844E-04 0.230E-02
 -----------------------------------------------------------------------------------------------
   -.132E-03 0.522E-04 0.150E+02   0.863E-13 0.113E-13 0.132E-10   -.323E-15 -.109E-15 -.854E+01   -.587E-01 -.368E-01 -.647E+01
 
 
 POSITION                                       TOTAL-FORCE (eV/Angst)
 -----------------------------------------------------------------------------------
      0.00000      0.00000      5.37156         0.000000     -0.000000      0.035097
      2.56560      0.00000      5.37156         0.012797      0.021706      0.092219
      5.13119      0.00000      5.37156        -0.012797      0.021706      0.092219
      1.28280      2.22187      5.37156         0.025197      0.000229      0.092219
      3.84839      2.22187      5.37156         0.000000      0.000000      0.084782
      6.41399      2.22187      5.37156        -0.025197      0.000229      0.092219
      2.56560      4.44374      5.37156         0.012400     -0.021936      0.092219
      5.13119      4.44374      5.37156        -0.012400     -0.021936      0.092219
      7.69679      4.44374      5.37156         0.000000     -0.000000      0.053014
      1.28280      0.74062      7.46636        -0.003238     -0.001870     -0.081673
      3.84839      0.74062      7.46636         0.000000     -0.011770     -0.093671
      6.41399      0.74062      7.46636         0.003238     -0.001870     -0.081673
      2.56560      2.96249      7.46636        -0.010193      0.005885     -0.093671
      5.13119      2.96249      7.46636         0.010193      0.005885     -0.093671
      7.69679      2.96249      7.46636         0.000000     -0.015062     -0.074630
      3.84839      5.18437      7.46636        -0.000000      0.003739     -0.081673
      6.41399      5.18437      7.46636        -0.013044      0.007531     -0.074630
      8.97958      5.18437      7.46636         0.013044      0.007531     -0.074630
      7.69679      1.48353      9.55071        -0.000000      0.007851      0.043252
      2.56540      1.48114      9.54275        -0.000156     -0.000090     -0.154291
      5.13138      1.48114      9.54275         0.000156     -0.000090     -0.154291
      8.97935      3.70325      9.54809         0.030852     -0.017812      0.006532
      3.84839      3.70334      9.54275        -0.000000      0.000180     -0.154291
      6.41422      3.70325      9.54809        -0.030852     -0.017812      0.006532
     10.26040      5.92385      9.55071        -0.006799     -0.003925      0.043252
      5.13317      5.92385      9.55071         0.006799     -0.003925      0.043252
      7.69679      5.92472      9.54809        -0.000000      0.035624      0.006532
      0.00000      0.00000     11.61525         0.000000     -0.000000     -0.018061
      2.57297      0.01446     11.62005         0.013822      0.006786      0.037801
      5.12381      0.01446     11.62005        -0.013822      0.006786      0.037801
      1.29901      2.22103     11.62005         0.012788      0.008577      0.037801
      6.39777      2.22103     11.62005        -0.012788      0.008577      0.037801
      2.57443      4.43012     11.62005        -0.001034     -0.015363      0.037801
      5.12235      4.43012     11.62005         0.001034     -0.015363      0.037801
      7.69679      4.44374     11.61370         0.000000     -0.000000     -0.007325
      3.84839      2.22187     11.53520         0.000000      0.000000      0.182791
      3.84839      2.22187     13.01878         0.000000     -0.000000     -0.046972
 -----------------------------------------------------------------------------------
    total drift:                               -0.058865     -0.036708     -0.006822


--------------------------------------------------------------------------------------------------------



  FREE ENERGIE OF THE ION-ELECTRON SYSTEM (eV)
  ---------------------------------------------------
  free  energy   TOTEN  =      -130.84100580 eV

  energy  without entropy=     -130.84100580  energy(sigma->0) =     -130.84100580
 


--------------------------------------------------------------------------------------------------------


    POTLOK:  cpu time    0.0289: real time    0.0290


--------------------------------------------------------------------------------------------------------


 stress matrix after NEB project (eV)
     -5.64822      0.00000      0.00000
      0.00000     -5.64822     -0.00000
     -0.00000      0.00000      2.34069
  FORCES: max atom, RMS     0.046972    0.007722
  FORCE total and by dimension    0.046972    0.046972
  Stress total and by dimension    8.323680    5.648221
     LOOP+:  cpu time   64.1014: real time   64.1174
 -----------------------------------------------------------------------------
|                                                                             |
|           W    W    AA    RRRRR   N    N  II  N    N   GGGG   !!!           |
|           W    W   A  A   R    R  NN   N  II  NN   N  G    G  !!!           |
|           W    W  A    A  R    R  N N  N  II  N N  N  G       !!!           |
|           W WW W  AAAAAA  RRRRR   N  N N  II  N  N N  G  GGG   !            |
|           WW  WW  A    A  R   R   N   NN  II  N   NN  G    G                |
|           W    W  A    A  R    R  N    N  II  N    N   GGGG   !!!           |
|                                                                             |
|     Tetrahedron method does not include variations of the Fermi             |
|     occupations, so forces and stress will be inaccurate. We suggest        |
|     using a different smearing scheme ISMEAR = 1 or 2 for metals in         |
|     relaxations.                                                            |
|                                                                             |
 -----------------------------------------------------------------------------

    4ORBIT:  cpu time    0.0000: real time    0.0000



 total charge

# of ion       s       p       d       tot
------------------------------------------
    1        0.448   0.283   9.191   9.922
    2        0.449   0.285   9.187   9.921
    3        0.449   0.285   9.187   9.921
    4        0.449   0.285   9.187   9.921
    5        0.449   0.287   9.182   9.919
    6        0.449   0.285   9.187   9.921
    7        0.449   0.285   9.187   9.921
    8        0.449   0.285   9.187   9.921
    9        0.447   0.284   9.192   9.922
   10        0.440   0.372   9.175   9.987
   11        0.444   0.367   9.183   9.994
   12        0.440   0.372   9.175   9.987
   13        0.444   0.367   9.183   9.994
   14        0.444   0.367   9.183   9.994
   15        0.438   0.373   9.177   9.987
   16        0.440   0.372   9.175   9.987
   17        0.438   0.373   9.177   9.987
   18        0.438   0.373   9.177   9.987
   19        0.441   0.374   9.180   9.995
   20        0.453   0.382   9.175  10.009
   21        0.453   0.382   9.175  10.009
   22        0.437   0.378   9.178   9.993
   23        0.453   0.382   9.175  10.009
   24        0.437   0.378   9.178   9.993
   25        0.441   0.374   9.180   9.995
   26        0.441   0.374   9.180   9.995
   27        0.437   0.378   9.178   9.993
   28        0.449   0.283   9.196   9.928
   29        0.446   0.287   9.191   9.923
   30        0.446   0.287   9.191   9.923
   31        0.446   0.287   9.191   9.923
   32        0.446   0.287   9.191   9.923
   33        0.446   0.287   9.191   9.923
   34        0.446   0.287   9.191   9.923
   35        0.446   0.285   9.196   9.927
   36        0.500   0.471   8.370   9.341
   37        0.496   0.016   0.000   0.512
--------------------------------------------------
tot         16.562  12.076 329.798 358.436
 
 BZINTS: Fermi energy:    0.012560;  396.000000 electrons
         Band energy:-0.107261E+04;  BLOECHL correction:   -0.059528

 total amount of memory used by VASP MPI-rank0   104411. kBytes
=======================================================================

   base      :      30000. kBytes
   nonlr-proj:      17525. kBytes
   fftplans  :       2916. kBytes
   grid      :      12390. kBytes
   one-center:        575. kBytes
   wavefun   :      41005. kBytes
 
  
  
 General timing and accounting informations for this job:
 ========================================================
  
                  Total CPU time used (sec):       70.028
                            User time (sec):       67.207
                          System time (sec):        2.821
                         Elapsed time (sec):       70.419
  
                   Maximum memory used (kb):      344228.
                   Average memory used (kb):          N/A
  
                          Minor page faults:        82013
                          Major page faults:            0
                 Voluntary context switches:         4697
