PROCAR new format
# of k-points:   10         # of bands:  252         # of ions:   37

 k-point     1 :    0.00000000 0.00000000 0.00000000     weight = 0.01562500

band     1 # energy   -8.74213551 # occ.  2.00000000
 
ion      s      p      d    tot
    1  0.007  0.001  0.000  0.007
    2  0.007  0.001  0.000  0.007
    3  0.007  0.001  0.000  0.007
    4  0.007  0.001  0.000  0.007
    5  0.007  0.001  0.000  0.007
    6  0.007  0.001  0.000  0.007
    7  0.007  0.001  0.000  0.007
    8  0.007  0.001  0.000  0.007
    9  0.007  0.001  0.000  0.007
   10  0.025  0.000  0.000  0.025
   11  0.025  0.000  0.000  0.025
   12  0.025  0.000  0.000  0.025
   13  0.025  0.000  0.000  0.025
   14  0.025  0.000  0.000  0.025
   15  0.024  0.000  0.000  0.025
   16  0.025  0.000  0.000  0.025
   17  0.024  0.000  0.000  0.025
   18  0.024  0.000  0.000  0.025
   19  0.025  0.000  0.000  0.025
   20  0.025  0.000  0.000  0.025
   21  0.025  0.000  0.000  0.025
   22  0.025  0.000  0.000  0.025
   23  0.025  0.000  0.000  0.025
   24  0.025  0.000  0.000  0.025
   25  0.025  0.000  0.000  0.025
   26  0.025  0.000  0.000  0.025
   27  0.025  0.000  0.000  0.025
   28  0.007  0.001  0.000  0.008
   29  0.007  0.001  0.000  0.007
   30  0.007  0.001  0.000  0.007
   31  0.007  0.001  0.000  0.007
   32  0.007  0.001  0.000  0.007
   33  0.007  0.001  0.000  0.007
   34  0.007  0.001  0.000  0.007
   35  0.007  0.001  0.000  0.008
   36  0.009  0.001  0.000  0.009
   37  0.000  0.000  0.000  0.000
tot    0.566  0.016  0.001  0.583
 
band     2 # energy   -7.43883458 # occ.  2.00000000
 
ion      s      p      d    tot
    1  0.018  0.001  0.000  0.020
    2  0.018  0.001  0.000  0.019
    3  0.018  0.001  0.000  0.019
    4  0.018  0.001  0.000  0.019
    5  0.018  0.001  0.000  0.019
    6  0.018  0.001  0.000  0.019
    7  0.018  0.001  0.000  0.019
    8  0.018  0.001  0.000  0.019
    9  0.018  0.001  0.000  0.019
   10  0.010  0.002  0.001  0.013
   11  0.010  0.002  0.001  0.013
   12  0.010  0.002  0.001  0.013
   13  0.010  0.002  0.001  0.013
   14  0.010  0.002  0.001  0.013
   15  0.010  0.002  0.001  0.013
   16  0.010  0.002  0.001  0.013
   17  0.010  0.002  0.001  0.013
   18  0.010  0.002  0.001  0.013
   19  0.010  0.002  0.001  0.013
   20  0.010  0.002  0.001  0.013
   21  0.010  0.002  0.001  0.013
   22  0.010  0.002  0.001  0.013
   23  0.010  0.002  0.001  0.013
   24  0.010  0.002  0.001  0.013
   25  0.010  0.002  0.001  0.013
   26  0.010  0.002  0.001  0.013
   27  0.010  0.002  0.001  0.013
   28  0.018  0.001  0.000  0.019
   29  0.018  0.001  0.000  0.019
   30  0.018  0.001  0.000  0.019
   31  0.018  0.001  0.000  0.019
   32  0.018  0.001  0.000  0.019
   33  0.018  0.001  0.000  0.019
   34  0.018  0.001  0.000  0.019
   35  0.018  0.001  0.000  0.019
   36  0.023  0.000  0.000  0.023
   37  0.002  0.000  0.000  0.002
tot    0.510  0.054  0.018  0.582
 
band     3 # energy   -5.79025170 # occ.  2.00000000
 
ion      s      p      d    tot
    1  0.016  0.000  0.006  0.022
    2  0.016  0.000  0.006  0.023
    3  0.016  0.000  0.006  0.023
    4  0.016  0.000  0.006  0.023
    5  0.024  0.000  0.005  0.029
    6  0.016  0.000  0.006  0.023
    7  0.016  0.000  0.006  0.023
    8  0.016  0.000  0.006  0.023
    9  0.010  0.000  0.007  0.018
   10  0.004  0.003  0.003  0.010
   11  0.001  0.003  0.003  0.007
   12  0.004  0.003  0.003  0.010
   13  0.001  0.003  0.003  0.007
   14  0.001  0.003  0.003  0.007
   15  0.010  0.004  0.002  0.016
   16  0.004  0.003  0.003  0.010
   17  0.010  0.004  0.002  0.016
   18  0.010  0.004  0.002  0.016
   19  0.006  0.003  0.003  0.013
   20  0.000  0.004  0.004  0.007
   21  0.000  0.004  0.004  0.007
   22  0.008  0.004  0.002  0.014
   23  0.000  0.004  0.004  0.007
   24  0.008  0.004  0.002  0.014
   25  0.006  0.003  0.003  0.013
   26  0.006  0.003  0.003  0.013
   27  0.008  0.004  0.002  0.014
   28  0.012  0.000  0.007  0.019
   29  0.015  0.000  0.006  0.022
   30  0.015  0.000  0.006  0.022
   31  0.015  0.000  0.006  0.022
   32  0.015  0.000  0.006  0.022
   33  0.015  0.000  0.006  0.022
   34  0.015  0.000  0.006  0.022
   35  0.009  0.000  0.006  0.016
   36  0.040  0.001  0.000  0.040
   37  0.010  0.000  0.000  0.010
tot    0.396  0.068  0.157  0.621
 
band     4 # energy   -5.74639269 # occ.  2.00000000
 
ion      s      p      d    tot
    1  0.002  0.000  0.001  0.003
    2  0.001  0.002  0.004  0.007
    3  0.001  0.002  0.004  0.007
    4  0.001  0.002  0.004  0.007
    5  0.008  0.003  0.002  0.012
    6  0.001  0.002  0.004  0.007
    7  0.001  0.002  0.004  0.007
    8  0.001  0.002  0.004  0.007
    9  0.021  0.002  0.000  0.022
   10  0.000  0.003  0.009  0.012
   11  0.027  0.009  0.001  0.037
   12  0.000  0.003  0.009  0.012
   13  0.027  0.009  0.001  0.037
   14  0.027  0.009  0.001  0.037
   15  0.016  0.002  0.010  0.028
   16  0.000  0.003  0.009  0.012
   17  0.016  0.002  0.010  0.028
   18  0.016  0.002  0.010  0.028
   19  0.003  0.000  0.012  0.015
   20  0.035  0.006  0.005  0.046
   21  0.035  0.006  0.005  0.046
   22  0.008  0.008  0.004  0.019
   23  0.035  0.006  0.005  0.046
   24  0.008  0.007  0.004  0.019
   25  0.003  0.000  0.011  0.015
   26  0.003  0.000  0.012  0.015
   27  0.008  0.008  0.004  0.019
   28  0.006  0.000  0.000  0.006
   29  0.001  0.002  0.004  0.007
   30  0.001  0.002  0.004  0.007
   31  0.001  0.002  0.004  0.007
   32  0.001  0.002  0.004  0.007
   33  0.001  0.002  0.004  0.007
   34  0.001  0.002  0.004  0.007
   35  0.018  0.001  0.000  0.020
   36  0.016  0.002  0.006  0.025
   37  0.002  0.000  0.000  0.002
tot    0.355  0.111  0.178  0.644
 
band     5 # energy   -5.73624563 # occ.  2.00000000
 
ion      s      p      d    tot
    1  0.000  0.002  0.005  0.008
    2  0.010  0.002  0.002  0.014
    3  0.001  0.001  0.002  0.004
    4  0.009  0.002  0.002  0.014
    5  0.000  0.003  0.004  0.007
    6  0.005  0.002  0.002  0.009
    7  0.001  0.001  0.002  0.004
    8  0.005  0.002  0.002  0.009
    9  0.000  0.000  0.002  0.002
   10  0.051  0.005  0.003  0.060
   11  0.010  0.009  0.005  0.024
   12  0.015  0.001  0.014  0.030
   13  0.010  0.010  0.005  0.024
   14  0.035  0.001  0.007  0.044
   15  0.001  0.006  0.006  0.013
   16  0.016  0.001  0.013  0.031
   17  0.001  0.006  0.006  0.013
   18  0.001  0.002  0.004  0.008
   19  0.004  0.010  0.003  0.017
   20  0.064  0.004  0.004  0.073
   21  0.015  0.004  0.012  0.031
   22  0.004  0.003  0.010  0.018
   23  0.017  0.004  0.012  0.032
   24  0.012  0.004  0.002  0.018
   25  0.021  0.000  0.007  0.028
   26  0.003  0.011  0.003  0.017
   27  0.004  0.003  0.010  0.018
   28  0.000  0.002  0.003  0.005
   29  0.010  0.003  0.003  0.016
   30  0.002  0.001  0.002  0.006
   31  0.010  0.003  0.003  0.016
   32  0.003  0.001  0.002  0.007
   33  0.002  0.001  0.002  0.006
   34  0.003  0.001  0.002  0.007
   35  0.000  0.000  0.003  0.003
   36  0.000  0.004  0.005  0.009
   37  0.000  0.000  0.000  0.000
tot    0.348  0.117  0.177  0.642
 
band     6 # energy   -5.73616539 # occ.  2.00000000
 
ion      s      p      d    tot
    1  0.000  0.002  0.005  0.008
    2  0.001  0.001  0.002  0.004
    3  0.009  0.002  0.002  0.014
    4  0.001  0.001  0.002  0.004
    5  0.000  0.003  0.004  0.007
    6  0.005  0.002  0.002  0.009
    7  0.009  0.002  0.003  0.014
    8  0.005  0.002  0.002  0.009
    9  0.000  0.000  0.002  0.002
   10  0.000  0.001  0.017  0.018
   11  0.028  0.004  0.006  0.038
   12  0.041  0.004  0.006  0.051
   13  0.028  0.004  0.006  0.038
   14  0.000  0.012  0.004  0.017
   15  0.001  0.003  0.005  0.009
   16  0.041  0.004  0.007  0.051
   17  0.001  0.003  0.005  0.009
   18  0.000  0.008  0.007  0.015
   19  0.013  0.004  0.005  0.022
   20  0.000  0.004  0.015  0.018
   21  0.049  0.004  0.007  0.060
   22  0.011  0.004  0.005  0.019
   23  0.048  0.004  0.007  0.059
   24  0.000  0.003  0.012  0.016
   25  0.000  0.014  0.002  0.016
   26  0.014  0.003  0.006  0.023
   27  0.011  0.004  0.005  0.019
   28  0.000  0.002  0.003  0.005
   29  0.000  0.001  0.002  0.003
   30  0.009  0.002  0.002  0.013
   31  0.000  0.001  0.002  0.003
   32  0.007  0.002  0.003  0.012
   33  0.009  0.002  0.002  0.013
   34  0.007  0.002  0.003  0.012
   35  0.000  0.000  0.003  0.003
   36  0.000  0.004  0.005  0.009
   37  0.000  0.000  0.000  0.000
tot    0.348  0.117  0.177  0.642
 
band     7 # energy   -5.73584709 # occ.  2.00000000
 
ion      s      p      d    tot
    1  0.020  0.003  0.001  0.025
    2  0.000  0.002  0.004  0.006
    3  0.000  0.002  0.004  0.006
    4  0.000  0.002  0.004  0.006
    5  0.003  0.001  0.000  0.004
    6  0.000  0.002  0.004  0.006
    7  0.000  0.002  0.004  0.005
    8  0.000  0.002  0.004  0.006
    9  0.007  0.001  0.000  0.008
   10  0.035  0.006  0.005  0.046
   11  0.007  0.000  0.012  0.019
   12  0.029  0.007  0.005  0.041
   13  0.007  0.000  0.012  0.020
   14  0.009  0.000  0.011  0.021
   15  0.007  0.007  0.005  0.020
   16  0.028  0.007  0.005  0.040
   17  0.008  0.007  0.005  0.019
   18  0.009  0.007  0.004  0.019
   19  0.029  0.009  0.002  0.040
   20  0.000  0.004  0.008  0.012
   21  0.001  0.004  0.008  0.013
   22  0.020  0.001  0.010  0.032
   23  0.001  0.004  0.008  0.013
   24  0.021  0.001  0.011  0.034
   25  0.024  0.009  0.002  0.035
   26  0.028  0.009  0.002  0.039
   27  0.019  0.001  0.010  0.031
   28  0.020  0.003  0.001  0.024
   29  0.000  0.002  0.004  0.006
   30  0.000  0.002  0.004  0.006
   31  0.000  0.002  0.004  0.006
   32  0.000  0.002  0.004  0.006
   33  0.000  0.002  0.004  0.006
   34  0.000  0.002  0.004  0.006
   35  0.011  0.002  0.001  0.014
   36  0.002  0.000  0.000  0.002
   37  0.000  0.000  0.000  0.000
tot    0.347  0.116  0.176  0.640
 
band     8 # energy   -5.72942524 # occ.  2.00000000
 
ion      s      p      d    tot
    1  0.000  0.001  0.003  0.004
    2  0.010  0.002  0.002  0.014
    3  0.001  0.001  0.002  0.004
    4  0.010  0.002  0.002  0.014
    5  0.000  0.001  0.004  0.004
    6  0.005  0.002  0.002  0.009
    7  0.001  0.001  0.002  0.004
    8  0.005  0.002  0.002  0.009
    9  0.000  0.003  0.006  0.009
   10  0.000  0.013  0.002  0.015
   11  0.019  0.004  0.005  0.028
   12  0.006  0.003  0.005  0.015
   13  0.019  0.004  0.005  0.028
   14  0.000  0.001  0.014  0.016
   15  0.046  0.004  0.007  0.057
   16  0.006  0.004  0.005  0.015
   17  0.046  0.004  0.007  0.057
   18  0.000  0.006  0.012  0.018
   19  0.034  0.004  0.006  0.044
   20  0.000  0.010  0.004  0.015
   21  0.000  0.003  0.005  0.008
   22  0.037  0.004  0.007  0.048
   23  0.000  0.004  0.005  0.008
   24  0.000  0.010  0.007  0.017
   25  0.000  0.000  0.017  0.017
   26  0.034  0.004  0.006  0.044
   27  0.037  0.004  0.007  0.048
   28  0.000  0.002  0.005  0.007
   29  0.010  0.003  0.003  0.015
   30  0.002  0.001  0.002  0.005
   31  0.010  0.003  0.003  0.015
   32  0.003  0.001  0.002  0.006
   33  0.002  0.001  0.002  0.005
   34  0.003  0.001  0.002  0.007
   35  0.000  0.003  0.005  0.008
   36  0.000  0.000  0.002  0.002
   37  0.000  0.000  0.000  0.000
tot    0.346  0.116  0.178  0.640
 
band     9 # energy   -5.72935637 # occ.  2.00000000
 
ion      s      p      d    tot
    1  0.000  0.001  0.003  0.004
    2  0.001  0.001  0.002  0.004
    3  0.009  0.002  0.003  0.014
    4  0.001  0.001  0.002  0.004
    5  0.000  0.001  0.004  0.004
    6  0.005  0.002  0.002  0.009
    7  0.009  0.002  0.003  0.014
    8  0.005  0.002  0.002  0.009
    9  0.000  0.003  0.006  0.009
   10  0.007  0.000  0.006  0.014
   11  0.006  0.002  0.011  0.020
   12  0.002  0.010  0.003  0.015
   13  0.006  0.002  0.011  0.020
   14  0.026  0.004  0.002  0.033
   15  0.016  0.005  0.010  0.031
   16  0.002  0.010  0.003  0.015
   17  0.015  0.005  0.010  0.031
   18  0.061  0.003  0.005  0.069
   19  0.011  0.001  0.013  0.026
   20  0.000  0.001  0.005  0.006
   21  0.000  0.008  0.005  0.013
   22  0.012  0.008  0.007  0.027
   23  0.000  0.008  0.005  0.013
   24  0.051  0.002  0.006  0.059
   25  0.046  0.005  0.002  0.053
   26  0.011  0.001  0.014  0.026
   27  0.012  0.008  0.007  0.027
   28  0.000  0.002  0.005  0.006
   29  0.000  0.001  0.002  0.003
   30  0.008  0.002  0.002  0.012
   31  0.000  0.001  0.002  0.003
   32  0.007  0.002  0.003  0.012
   33  0.008  0.002  0.002  0.012
   34  0.007  0.002  0.003  0.012
   35  0.000  0.003  0.005  0.008
   36  0.000  0.000  0.002  0.002
   37  0.000  0.000  0.000  0.000
tot    0.346  0.116  0.178  0.640
 
band    10 # energy   -5.01160299 # occ.  2.00000000
 
ion      s      p      d    tot
    1  0.006  0.002  0.002  0.009
    2  0.001  0.003  0.009  0.013
    3  0.001  0.003  0.009  0.013
    4  0.001  0.003  0.009  0.013
    5  0.046  0.003  0.000  0.049
    6  0.001  0.003  0.009  0.013
    7  0.001  0.003  0.009  0.013
    8  0.001  0.003  0.009  0.013
    9  0.003  0.001  0.003  0.007
   10  0.004  0.001  0.015  0.021
   11  0.005  0.004  0.012  0.022
   12  0.004  0.001  0.015  0.021
   13  0.005  0.004  0.012  0.022
   14  0.005  0.004  0.012  0.022
   15  0.010  0.001  0.014  0.025
   16  0.004  0.001  0.015  0.021
   17  0.010  0.001  0.014  0.025
   18  0.010  0.001  0.014  0.025
   19  0.008  0.002  0.009  0.019
   20  0.003  0.004  0.019  0.026
   21  0.003  0.004  0.019  0.026
   22  0.002  0.001  0.015  0.018
   23  0.003  0.004  0.019  0.026
   24  0.002  0.001  0.015  0.018
   25  0.008  0.002  0.009  0.019
   26  0.008  0.002  0.009  0.019
   27  0.002  0.001  0.015  0.018
   28  0.008  0.002  0.002  0.012
   29  0.000  0.003  0.008  0.011
   30  0.000  0.003  0.008  0.011
   31  0.000  0.003  0.008  0.011
   32  0.000  0.003  0.008  0.011
   33  0.000  0.003  0.008  0.011
   34  0.000  0.003  0.008  0.011
   35  0.005  0.001  0.001  0.007
   36  0.069  0.000  0.010  0.079
   37  0.021  0.000  0.000  0.021
tot    0.261  0.080  0.374  0.715
 
band    11 # energy   -4.96126217 # occ.  2.00000000
 
ion      s      p      d    tot
    1  0.030  0.003  0.001  0.034
    2  0.000  0.003  0.010  0.014
    3  0.000  0.003  0.010  0.013
    4  0.000  0.003  0.010  0.014
    5  0.000  0.000  0.000  0.001
    6  0.000  0.003  0.010  0.013
    7  0.000  0.003  0.010  0.013
    8  0.000  0.003  0.010  0.013
    9  0.035  0.004  0.000  0.039
   10  0.009  0.003  0.010  0.023
   11  0.000  0.000  0.015  0.016
   12  0.009  0.003  0.010  0.023
   13  0.000  0.000  0.015  0.016
   14  0.000  0.000  0.015  0.016
   15  0.007  0.004  0.018  0.029
   16  0.009  0.003  0.010  0.023
   17  0.007  0.004  0.018  0.029
   18  0.007  0.004  0.018  0.029
   19  0.005  0.003  0.018  0.027
   20  0.001  0.000  0.014  0.015
   21  0.001  0.000  0.014  0.015
   22  0.011  0.004  0.010  0.025
   23  0.001  0.000  0.014  0.015
   24  0.011  0.004  0.010  0.025
   25  0.005  0.003  0.019  0.027
   26  0.005  0.003  0.018  0.027
   27  0.011  0.004  0.010  0.025
   28  0.031  0.003  0.000  0.034
   29  0.000  0.003  0.010  0.013
   30  0.000  0.003  0.010  0.013
   31  0.000  0.003  0.010  0.013
   32  0.000  0.003  0.010  0.013
   33  0.000  0.003  0.010  0.013
   34  0.000  0.003  0.010  0.013
   35  0.032  0.004  0.001  0.037
   36  0.000  0.000  0.000  0.000
   37  0.000  0.000  0.000  0.000
tot    0.229  0.094  0.382  0.704
 
band    12 # energy   -4.95499335 # occ.  2.00000000
 
ion      s      p      d    tot
    1  0.010  0.000  0.007  0.017
    2  0.004  0.001  0.009  0.013
    3  0.004  0.001  0.008  0.013
    4  0.004  0.001  0.009  0.013
    5  0.000  0.002  0.009  0.011
    6  0.004  0.001  0.008  0.013
    7  0.004  0.001  0.008  0.013
    8  0.004  0.001  0.008  0.013
    9  0.009  0.000  0.006  0.016
   10  0.004  0.000  0.025  0.029
   11  0.012  0.001  0.021  0.033
   12  0.004  0.000  0.025  0.028
   13  0.012  0.001  0.021  0.033
   14  0.012  0.001  0.021  0.033
   15  0.002  0.000  0.020  0.023
   16  0.004  0.000  0.025  0.028
   17  0.002  0.000  0.020  0.023
   18  0.002  0.000  0.021  0.023
   19  0.002  0.000  0.022  0.024
   20  0.012  0.001  0.023  0.036
   21  0.012  0.001  0.023  0.035
   22  0.004  0.000  0.025  0.030
   23  0.012  0.001  0.023  0.035
   24  0.004  0.000  0.025  0.029
   25  0.002  0.000  0.022  0.024
   26  0.002  0.000  0.022  0.024
   27  0.004  0.000  0.025  0.030
   28  0.010  0.000  0.007  0.017
   29  0.004  0.001  0.009  0.014
   30  0.004  0.001  0.009  0.014
   31  0.004  0.001  0.009  0.014
   32  0.004  0.001  0.009  0.014
   33  0.004  0.001  0.009  0.014
   34  0.004  0.001  0.009  0.014
   35  0.011  0.000  0.008  0.019
   36  0.000  0.003  0.006  0.009
   37  0.000  0.000  0.000  0.000
tot    0.199  0.020  0.554  0.773
 
band    13 # energy   -4.94964245 # occ.  2.00000000
 
ion      s      p      d    tot
    1  0.000  0.004  0.009  0.013
    2  0.021  0.004  0.005  0.030
    3  0.003  0.002  0.005  0.010
    4  0.021  0.004  0.005  0.030
    5  0.000  0.005  0.010  0.015
    6  0.008  0.002  0.005  0.016
    7  0.003  0.002  0.005  0.010
    8  0.008  0.003  0.005  0.016
    9  0.000  0.000  0.013  0.013
   10  0.018  0.005  0.008  0.032
   11  0.004  0.003  0.022  0.028
   12  0.004  0.001  0.017  0.023
   13  0.003  0.003  0.023  0.029
   14  0.014  0.003  0.005  0.022
   15  0.000  0.002  0.015  0.017
   16  0.005  0.001  0.017  0.023
   17  0.000  0.002  0.015  0.017
   18  0.000  0.000  0.010  0.010
   19  0.002  0.003  0.021  0.025
   20  0.022  0.006  0.006  0.034
   21  0.005  0.002  0.021  0.028
   22  0.001  0.002  0.013  0.016
   23  0.006  0.002  0.020  0.028
   24  0.005  0.002  0.010  0.017
   25  0.007  0.001  0.006  0.014
   26  0.002  0.003  0.021  0.026
   27  0.001  0.002  0.013  0.016
   28  0.000  0.003  0.012  0.015
   29  0.020  0.004  0.006  0.029
   30  0.002  0.002  0.005  0.008
   31  0.020  0.004  0.006  0.029
   32  0.010  0.002  0.005  0.017
   33  0.002  0.002  0.005  0.009
   34  0.010  0.002  0.005  0.018
   35  0.000  0.000  0.010  0.011
   36  0.000  0.006  0.005  0.012
   37  0.000  0.000  0.000  0.000
tot    0.227  0.095  0.386  0.708
 
band    14 # energy   -4.94959810 # occ.  2.00000000
 
ion      s      p      d    tot
    1  0.000  0.004  0.009  0.012
    2  0.000  0.002  0.005  0.007
    3  0.019  0.004  0.006  0.028
    4  0.001  0.002  0.005  0.008
    5  0.000  0.005  0.010  0.015
    6  0.013  0.003  0.005  0.021
    7  0.019  0.004  0.006  0.028
    8  0.013  0.003  0.005  0.021
    9  0.000  0.000  0.013  0.013
   10  0.000  0.000  0.020  0.020
   11  0.011  0.003  0.011  0.025
   12  0.014  0.004  0.011  0.029
   13  0.011  0.003  0.011  0.024
   14  0.000  0.002  0.028  0.031
   15  0.000  0.001  0.011  0.013
   16  0.013  0.004  0.011  0.029
   17  0.000  0.001  0.011  0.012
   18  0.000  0.003  0.017  0.020
   19  0.005  0.002  0.011  0.018
   20  0.000  0.000  0.025  0.026
   21  0.017  0.004  0.011  0.032
   22  0.004  0.002  0.011  0.017
   23  0.016  0.004  0.011  0.032
   24  0.000  0.002  0.015  0.016
   25  0.000  0.004  0.025  0.029
   26  0.005  0.002  0.011  0.017
   27  0.004  0.002  0.011  0.017
   28  0.000  0.003  0.012  0.015
   29  0.001  0.002  0.005  0.008
   30  0.020  0.004  0.005  0.029
   31  0.001  0.002  0.005  0.008
   32  0.011  0.003  0.005  0.019
   33  0.019  0.004  0.005  0.028
   34  0.011  0.003  0.005  0.019
   35  0.000  0.000  0.010  0.011
   36  0.000  0.007  0.005  0.012
   37  0.000  0.000  0.000  0.000
tot    0.227  0.095  0.386  0.708
 
band    15 # energy   -4.94404380 # occ.  2.00000000
 
ion      s      p      d    tot
    1  0.000  0.003  0.013  0.015
    2  0.021  0.004  0.006  0.031
    3  0.003  0.002  0.005  0.010
    4  0.021  0.004  0.006  0.031
    5  0.000  0.001  0.011  0.012
    6  0.009  0.003  0.006  0.017
    7  0.003  0.002  0.005  0.010
    8  0.009  0.003  0.006  0.017
    9  0.000  0.006  0.008  0.014
   10  0.000  0.004  0.025  0.028
   11  0.006  0.003  0.011  0.019
   12  0.003  0.001  0.011  0.015
   13  0.006  0.002  0.011  0.019
   14  0.000  0.001  0.014  0.016
   15  0.016  0.004  0.011  0.031
   16  0.003  0.001  0.011  0.015
   17  0.016  0.004  0.011  0.031
   18  0.000  0.001  0.027  0.028
   19  0.013  0.004  0.011  0.027
   20  0.000  0.004  0.018  0.022
   21  0.000  0.001  0.011  0.012
   22  0.013  0.003  0.011  0.028
   23  0.000  0.001  0.011  0.012
   24  0.000  0.002  0.028  0.030
   25  0.000  0.000  0.019  0.019
   26  0.012  0.004  0.011  0.027
   27  0.013  0.003  0.011  0.027
   28  0.000  0.003  0.008  0.011
   29  0.019  0.004  0.005  0.028
   30  0.002  0.002  0.005  0.009
   31  0.019  0.004  0.005  0.028
   32  0.009  0.003  0.005  0.016
   33  0.002  0.002  0.005  0.008
   34  0.009  0.003  0.005  0.016
   35  0.000  0.006  0.009  0.015
   36  0.000  0.001  0.007  0.008
   37  0.000  0.000  0.000  0.000
tot    0.226  0.094  0.384  0.705
 
band    16 # energy   -4.94400509 # occ.  2.00000000
 
ion      s      p      d    tot
    1  0.000  0.002  0.013  0.015
    2  0.000  0.002  0.005  0.007
    3  0.019  0.004  0.006  0.028
    4  0.000  0.002  0.005  0.007
    5  0.000  0.001  0.011  0.012
    6  0.014  0.003  0.005  0.022
    7  0.019  0.004  0.006  0.028
    8  0.014  0.003  0.005  0.022
    9  0.000  0.006  0.008  0.015
   10  0.003  0.000  0.007  0.011
   11  0.002  0.002  0.013  0.017
   12  0.001  0.003  0.020  0.024
   13  0.002  0.002  0.013  0.017
   14  0.008  0.003  0.010  0.021
   15  0.005  0.002  0.022  0.029
   16  0.001  0.003  0.020  0.024
   17  0.005  0.002  0.022  0.029
   18  0.021  0.005  0.006  0.032
   19  0.004  0.001  0.016  0.021
   20  0.000  0.000  0.009  0.009
   21  0.000  0.003  0.016  0.019
   22  0.005  0.002  0.022  0.030
   23  0.000  0.003  0.016  0.019
   24  0.018  0.004  0.005  0.027
   25  0.016  0.005  0.008  0.029
   26  0.004  0.001  0.016  0.022
   27  0.004  0.002  0.023  0.030
   28  0.000  0.003  0.009  0.011
   29  0.001  0.002  0.005  0.007
   30  0.018  0.004  0.005  0.026
   31  0.001  0.002  0.005  0.007
   32  0.011  0.003  0.005  0.019
   33  0.018  0.004  0.005  0.027
   34  0.011  0.003  0.005  0.019
   35  0.000  0.006  0.009  0.015
   36  0.000  0.001  0.007  0.008
   37  0.000  0.000  0.000  0.000
tot    0.226  0.094  0.384  0.705
 
band    17 # energy   -4.33715476 # occ.  2.00000000
 
ion      s      p      d    tot
    1  0.028  0.001  0.001  0.030
    2  0.000  0.001  0.015  0.017
    3  0.000  0.001  0.015  0.017
    4  0.000  0.001  0.015  0.017
    5  0.015  0.001  0.001  0.017
    6  0.000  0.001  0.015  0.017
    7  0.000  0.001  0.015  0.017
    8  0.000  0.001  0.015  0.017
    9  0.002  0.000  0.000  0.002
   10  0.000  0.003  0.040  0.043
   11  0.000  0.003  0.021  0.025
   12  0.000  0.003  0.040  0.043
   13  0.000  0.003  0.021  0.025
   14  0.000  0.003  0.021  0.025
   15  0.000  0.000  0.005  0.005
   16  0.000  0.003  0.040  0.043
   17  0.000  0.000  0.005  0.005
   18  0.000  0.000  0.005  0.005
   19  0.002  0.002  0.025  0.030
   20  0.001  0.002  0.035  0.038
   21  0.001  0.002  0.035  0.038
   22  0.000  0.000  0.007  0.007
   23  0.001  0.002  0.035  0.038
   24  0.000  0.000  0.007  0.007
   25  0.002  0.003  0.025  0.030
   26  0.002  0.002  0.025  0.030
   27  0.000  0.000  0.007  0.007
   28  0.012  0.000  0.004  0.016
   29  0.000  0.001  0.014  0.015
   30  0.000  0.001  0.014  0.015
   31  0.000  0.001  0.014  0.015
   32  0.000  0.001  0.014  0.015
   33  0.000  0.001  0.014  0.015
   34  0.000  0.001  0.014  0.015
   35  0.002  0.000  0.000  0.003
   36  0.038  0.002  0.020  0.060
   37  0.028  0.000  0.000  0.028
tot    0.137  0.051  0.601  0.789
 
band    18 # energy   -4.25950010 # occ.  2.00000000
 
ion      s      p      d    tot
    1  0.000  0.002  0.002  0.004
    2  0.014  0.001  0.010  0.026
    3  0.008  0.001  0.009  0.018
    4  0.014  0.001  0.010  0.026
    5  0.000  0.002  0.021  0.023
    6  0.001  0.001  0.010  0.012
    7  0.008  0.001  0.009  0.018
    8  0.001  0.001  0.010  0.012
    9  0.000  0.000  0.033  0.033
   10  0.001  0.007  0.021  0.030
   11  0.000  0.001  0.041  0.042
   12  0.000  0.002  0.012  0.014
   13  0.000  0.001  0.041  0.042
   14  0.001  0.002  0.005  0.008
   15  0.000  0.000  0.033  0.033
   16  0.000  0.002  0.012  0.014
   17  0.000  0.000  0.033  0.033
   18  0.000  0.001  0.012  0.013
   19  0.000  0.000  0.048  0.049
   20  0.001  0.007  0.019  0.028
   21  0.000  0.002  0.016  0.018
   22  0.000  0.001  0.024  0.025
   23  0.000  0.002  0.016  0.018
   24  0.000  0.003  0.017  0.020
   25  0.001  0.001  0.003  0.005
   26  0.000  0.000  0.049  0.049
   27  0.000  0.001  0.024  0.025
   28  0.000  0.001  0.028  0.030
   29  0.012  0.001  0.010  0.023
   30  0.000  0.001  0.008  0.009
   31  0.012  0.001  0.010  0.023
   32  0.011  0.001  0.009  0.022
   33  0.000  0.001  0.008  0.009
   34  0.011  0.001  0.009  0.022
   35  0.000  0.000  0.024  0.024
   36  0.000  0.003  0.000  0.003
   37  0.000  0.000  0.000  0.000
tot    0.099  0.054  0.647  0.800
 
band    19 # energy   -4.25944505 # occ.  2.00000000
 
ion      s      p      d    tot
    1  0.000  0.002  0.002  0.004
    2  0.001  0.001  0.009  0.011
    3  0.008  0.001  0.010  0.019
    4  0.001  0.001  0.009  0.011
    5  0.000  0.002  0.021  0.023
    6  0.015  0.001  0.010  0.026
    7  0.008  0.001  0.010  0.019
    8  0.015  0.001  0.010  0.026
    9  0.000  0.000  0.033  0.033
   10  0.000  0.000  0.008  0.008
   11  0.001  0.002  0.017  0.020
   12  0.001  0.005  0.018  0.024
   13  0.001  0.002  0.017  0.019
   14  0.000  0.000  0.053  0.053
   15  0.000  0.001  0.019  0.020
   16  0.001  0.005  0.018  0.024
   17  0.000  0.001  0.019  0.020
   18  0.000  0.000  0.040  0.040
   19  0.000  0.001  0.018  0.020
   20  0.000  0.000  0.014  0.015
   21  0.001  0.005  0.018  0.024
   22  0.000  0.002  0.019  0.021
   23  0.001  0.005  0.018  0.024
   24  0.000  0.000  0.026  0.026
   25  0.000  0.000  0.064  0.064
   26  0.000  0.001  0.018  0.019
   27  0.000  0.002  0.019  0.021
   28  0.000  0.001  0.028  0.030
   29  0.004  0.001  0.008  0.013
   30  0.016  0.001  0.010  0.027
   31  0.004  0.001  0.008  0.013
   32  0.004  0.001  0.009  0.014
   33  0.016  0.001  0.010  0.027
   34  0.004  0.001  0.009  0.014
   35  0.000  0.000  0.024  0.024
   36  0.000  0.003  0.000  0.003
   37  0.000  0.000  0.000  0.000
tot    0.099  0.054  0.647  0.800
 
band    20 # energy   -4.25794849 # occ.  2.00000000
 
ion      s      p      d    tot
    1  0.000  0.000  0.001  0.001
    2  0.000  0.001  0.019  0.020
    3  0.000  0.001  0.019  0.020
    4  0.000  0.001  0.019  0.020
    5  0.020  0.001  0.000  0.021
    6  0.000  0.001  0.019  0.020
    7  0.000  0.001  0.019  0.020
    8  0.000  0.001  0.019  0.020
    9  0.027  0.001  0.002  0.030
   10  0.000  0.001  0.007  0.008
   11  0.000  0.001  0.025  0.026
   12  0.000  0.001  0.007  0.008
   13  0.000  0.001  0.025  0.026
   14  0.000  0.001  0.025  0.026
   15  0.001  0.004  0.039  0.043
   16  0.000  0.001  0.007  0.008
   17  0.001  0.004  0.039  0.043
   18  0.001  0.004  0.039  0.043
   19  0.000  0.001  0.024  0.025
   20  0.000  0.001  0.007  0.008
   21  0.000  0.001  0.007  0.008
   22  0.001  0.004  0.040  0.044
   23  0.000  0.001  0.007  0.008
   24  0.001  0.004  0.040  0.044
   25  0.000  0.001  0.024  0.025
   26  0.000  0.001  0.024  0.025
   27  0.001  0.004  0.040  0.044
   28  0.018  0.001  0.000  0.019
   29  0.000  0.001  0.017  0.018
   30  0.000  0.001  0.017  0.018
   31  0.000  0.001  0.017  0.018
   32  0.000  0.001  0.017  0.018
   33  0.000  0.001  0.017  0.018
   34  0.000  0.001  0.017  0.018
   35  0.027  0.001  0.002  0.029
   36  0.001  0.000  0.000  0.001
   37  0.000  0.000  0.000  0.000
tot    0.099  0.053  0.645  0.798
 
band    21 # energy   -4.24039146 # occ.  2.00000000
 
ion      s      p      d    tot
    1  0.000  0.001  0.038  0.039
    2  0.014  0.001  0.011  0.027
    3  0.008  0.001  0.010  0.019
    4  0.014  0.001  0.011  0.027
    5  0.000  0.001  0.016  0.017
    6  0.001  0.001  0.010  0.012
    7  0.008  0.001  0.010  0.019
    8  0.001  0.001  0.010  0.012
    9  0.000  0.003  0.005  0.008
   10  0.000  0.000  0.062  0.062
   11  0.000  0.004  0.019  0.023
   12  0.000  0.000  0.019  0.019
   13  0.000  0.004  0.019  0.023
   14  0.000  0.000  0.016  0.016
   15  0.001  0.004  0.018  0.023
   16  0.000  0.000  0.019  0.019
   17  0.001  0.004  0.018  0.024
   18  0.000  0.000  0.029  0.029
   19  0.000  0.005  0.019  0.024
   20  0.000  0.000  0.057  0.057
   21  0.000  0.000  0.020  0.020
   22  0.001  0.004  0.018  0.023
   23  0.000  0.000  0.020  0.020
   24  0.000  0.000  0.048  0.048
   25  0.000  0.000  0.005  0.005
   26  0.000  0.005  0.019  0.024
   27  0.001  0.004  0.018  0.023
   28  0.000  0.002  0.007  0.008
   29  0.012  0.001  0.008  0.021
   30  0.000  0.001  0.008  0.009
   31  0.012  0.001  0.008  0.021
   32  0.011  0.001  0.007  0.020
   33  0.000  0.001  0.008  0.009
   34  0.011  0.001  0.007  0.020
   35  0.000  0.003  0.012  0.014
   36  0.000  0.000  0.016  0.016