PROCAR new format
# of k-points:   10         # of bands:  252         # of ions:   39

 k-point     1 :    0.00000000 0.00000000 0.00000000     weight = 0.01562500

band     1 # energy  -24.79820481 # occ.  2.00000000
 
ion      s      p      d    tot
    1  0.000  0.000  0.000  0.000
    2  0.000  0.000  0.000  0.000
    3  0.000  0.000  0.000  0.000
    4  0.000  0.000  0.000  0.000
    5  0.000  0.000  0.000  0.000
    6  0.000  0.000  0.000  0.000
    7  0.000  0.000  0.000  0.000
    8  0.000  0.000  0.000  0.000
    9  0.000  0.000  0.000  0.000
   10  0.000  0.000  0.000  0.000
   11  0.000  0.000  0.000  0.000
   12  0.000  0.000  0.000  0.000
   13  0.000  0.000  0.000  0.000
   14  0.000  0.000  0.000  0.000
   15  0.000  0.000  0.000  0.000
   16  0.000  0.000  0.000  0.000
   17  0.000  0.000  0.000  0.000
   18  0.000  0.000  0.000  0.000
   19  0.000  0.000  0.000  0.000
   20  0.000  0.000  0.000  0.000
   21  0.000  0.000  0.000  0.000
   22  0.000  0.000  0.000  0.000
   23  0.000  0.000  0.000  0.000
   24  0.000  0.000  0.000  0.000
   25  0.000  0.000  0.000  0.000
   26  0.000  0.000  0.000  0.000
   27  0.000  0.000  0.000  0.000
   28  0.000  0.000  0.000  0.000
   29  0.000  0.000  0.000  0.000
   30  0.000  0.000  0.000  0.000
   31  0.000  0.000  0.000  0.000
   32  0.000  0.000  0.000  0.000
   33  0.000  0.000  0.000  0.000
   34  0.000  0.000  0.000  0.000
   35  0.000  0.000  0.000  0.000
   36  0.000  0.000  0.000  0.000
   37  0.080  0.059  0.000  0.140
   38  0.724  0.009  0.000  0.732
   39  0.056  0.012  0.000  0.068
tot    0.861  0.080  0.000  0.941
 
band     2 # energy  -15.40180459 # occ.  2.00000000
 
ion      s      p      d    tot
    1  0.000  0.000  0.000  0.000
    2  0.000  0.000  0.000  0.000
    3  0.000  0.000  0.000  0.000
    4  0.000  0.000  0.000  0.000
    5  0.000  0.000  0.000  0.000
    6  0.000  0.000  0.000  0.000
    7  0.000  0.000  0.000  0.000
    8  0.000  0.000  0.000  0.000
    9  0.000  0.000  0.000  0.000
   10  0.000  0.000  0.000  0.000
   11  0.000  0.000  0.000  0.000
   12  0.000  0.000  0.000  0.000
   13  0.000  0.000  0.000  0.000
   14  0.000  0.000  0.000  0.000
   15  0.000  0.000  0.000  0.000
   16  0.000  0.000  0.000  0.000
   17  0.000  0.000  0.000  0.000
   18  0.000  0.000  0.000  0.000
   19  0.000  0.000  0.000  0.000
   20  0.000  0.000  0.000  0.000
   21  0.000  0.000  0.000  0.000
   22  0.000  0.000  0.000  0.000
   23  0.000  0.000  0.000  0.000
   24  0.000  0.000  0.000  0.000
   25  0.000  0.000  0.000  0.000
   26  0.000  0.000  0.000  0.000
   27  0.000  0.000  0.000  0.000
   28  0.000  0.000  0.000  0.000
   29  0.000  0.000  0.000  0.000
   30  0.000  0.000  0.000  0.000
   31  0.000  0.000  0.000  0.000
   32  0.000  0.000  0.000  0.000
   33  0.000  0.000  0.000  0.000
   34  0.000  0.000  0.000  0.000
   35  0.000  0.000  0.000  0.000
   36  0.002  0.002  0.003  0.007
   37  0.158  0.050  0.000  0.208
   38  0.020  0.522  0.000  0.543
   39  0.197  0.031  0.000  0.228
tot    0.378  0.605  0.003  0.986
 
band     3 # energy   -8.45833075 # occ.  2.00000000
 
ion      s      p      d    tot
    1  0.000  0.000  0.000  0.000
    2  0.000  0.000  0.000  0.000
    3  0.000  0.000  0.000  0.000
    4  0.000  0.000  0.000  0.000
    5  0.000  0.000  0.000  0.000
    6  0.000  0.000  0.000  0.000
    7  0.000  0.000  0.000  0.000
    8  0.000  0.000  0.000  0.000
    9  0.000  0.000  0.000  0.000
   10  0.000  0.000  0.000  0.000
   11  0.000  0.000  0.000  0.000
   12  0.000  0.000  0.000  0.000
   13  0.000  0.000  0.000  0.000
   14  0.000  0.000  0.000  0.000
   15  0.000  0.000  0.000  0.000
   16  0.000  0.000  0.000  0.000
   17  0.000  0.000  0.000  0.000
   18  0.000  0.000  0.000  0.000
   19  0.000  0.000  0.000  0.000
   20  0.001  0.000  0.002  0.003
   21  0.001  0.000  0.002  0.003
   22  0.000  0.000  0.000  0.000
   23  0.001  0.000  0.002  0.003
   24  0.000  0.000  0.000  0.000
   25  0.000  0.000  0.000  0.000
   26  0.000  0.000  0.000  0.000
   27  0.000  0.000  0.000  0.000
   28  0.000  0.000  0.000  0.000
   29  0.001  0.000  0.001  0.001
   30  0.001  0.000  0.001  0.001
   31  0.001  0.000  0.001  0.001
   32  0.001  0.000  0.001  0.001
   33  0.001  0.000  0.001  0.001
   34  0.001  0.000  0.001  0.001
   35  0.000  0.000  0.000  0.000
   36  0.098  0.066  0.287  0.451
   37  0.187  0.178  0.000  0.365
   38  0.012  0.049  0.000  0.061
   39  0.014  0.001  0.000  0.015
tot    0.319  0.297  0.295  0.911
 
band     4 # energy   -7.54315442 # occ.  2.00000000
 
ion      s      p      d    tot
    1  0.000  0.000  0.000  0.000
    2  0.000  0.000  0.000  0.000
    3  0.000  0.000  0.000  0.000
    4  0.000  0.000  0.000  0.000
    5  0.000  0.000  0.000  0.000
    6  0.000  0.000  0.000  0.000
    7  0.000  0.000  0.000  0.000
    8  0.000  0.000  0.000  0.000
    9  0.000  0.000  0.000  0.000
   10  0.000  0.000  0.000  0.000
   11  0.000  0.000  0.000  0.000
   12  0.000  0.000  0.000  0.000
   13  0.000  0.000  0.000  0.000
   14  0.000  0.000  0.000  0.000
   15  0.000  0.000  0.000  0.000
   16  0.000  0.000  0.000  0.000
   17  0.000  0.000  0.000  0.000
   18  0.000  0.000  0.000  0.000
   19  0.000  0.000  0.000  0.000
   20  0.000  0.000  0.000  0.000
   21  0.000  0.000  0.000  0.000
   22  0.000  0.000  0.000  0.000
   23  0.000  0.000  0.000  0.000
   24  0.000  0.000  0.000  0.000
   25  0.000  0.000  0.000  0.000
   26  0.000  0.000  0.000  0.000
   27  0.000  0.000  0.000  0.000
   28  0.000  0.000  0.000  0.000
   29  0.000  0.000  0.000  0.001
   30  0.000  0.000  0.000  0.000
   31  0.000  0.000  0.000  0.001
   32  0.000  0.000  0.000  0.001
   33  0.000  0.000  0.000  0.000
   34  0.000  0.000  0.000  0.001
   35  0.000  0.000  0.000  0.000
   36  0.000  0.002  0.019  0.021
   37  0.000  0.114  0.000  0.114
   38  0.000  0.543  0.000  0.543
   39  0.000  0.007  0.000  0.007
tot    0.001  0.666  0.021  0.688
 
band     5 # energy   -7.54297030 # occ.  2.00000000
 
ion      s      p      d    tot
    1  0.000  0.000  0.000  0.000
    2  0.000  0.000  0.000  0.000
    3  0.000  0.000  0.000  0.000
    4  0.000  0.000  0.000  0.000
    5  0.000  0.000  0.000  0.000
    6  0.000  0.000  0.000  0.000
    7  0.000  0.000  0.000  0.000
    8  0.000  0.000  0.000  0.000
    9  0.000  0.000  0.000  0.000
   10  0.000  0.000  0.000  0.000
   11  0.000  0.000  0.000  0.000
   12  0.000  0.000  0.000  0.000
   13  0.000  0.000  0.000  0.000
   14  0.000  0.000  0.000  0.000
   15  0.000  0.000  0.000  0.000
   16  0.000  0.000  0.000  0.000
   17  0.000  0.000  0.000  0.000
   18  0.000  0.000  0.000  0.000
   19  0.000  0.000  0.000  0.000
   20  0.000  0.000  0.000  0.000
   21  0.000  0.000  0.000  0.000
   22  0.000  0.000  0.000  0.000
   23  0.000  0.000  0.000  0.000
   24  0.000  0.000  0.000  0.000
   25  0.000  0.000  0.000  0.000
   26  0.000  0.000  0.000  0.000
   27  0.000  0.000  0.000  0.000
   28  0.000  0.000  0.000  0.000
   29  0.000  0.000  0.000  0.000
   30  0.000  0.000  0.001  0.001
   31  0.000  0.000  0.000  0.000
   32  0.000  0.000  0.000  0.000
   33  0.000  0.000  0.001  0.001
   34  0.000  0.000  0.000  0.000
   35  0.000  0.000  0.000  0.000
   36  0.000  0.002  0.019  0.021
   37  0.000  0.114  0.000  0.114
   38  0.000  0.543  0.000  0.543
   39  0.000  0.007  0.000  0.007
tot    0.001  0.666  0.021  0.688
 
band     6 # energy   -6.50129758 # occ.  2.00000000
 
ion      s      p      d    tot
    1  0.006  0.001  0.000  0.007
    2  0.006  0.001  0.000  0.007
    3  0.006  0.001  0.000  0.007
    4  0.006  0.001  0.000  0.007
    5  0.006  0.001  0.000  0.007
    6  0.006  0.001  0.000  0.007
    7  0.006  0.001  0.000  0.007
    8  0.006  0.001  0.000  0.007
    9  0.006  0.001  0.000  0.007
   10  0.023  0.000  0.000  0.024
   11  0.024  0.000  0.000  0.024
   12  0.023  0.000  0.000  0.024
   13  0.024  0.000  0.000  0.024
   14  0.024  0.000  0.000  0.024
   15  0.024  0.000  0.000  0.024
   16  0.023  0.000  0.000  0.024
   17  0.024  0.000  0.000  0.024
   18  0.024  0.000  0.000  0.024
   19  0.023  0.000  0.000  0.023
   20  0.022  0.000  0.000  0.022
   21  0.022  0.000  0.000  0.022
   22  0.023  0.000  0.000  0.024
   23  0.022  0.000  0.000  0.022
   24  0.023  0.000  0.000  0.024
   25  0.023  0.000  0.000  0.023
   26  0.023  0.000  0.000  0.023
   27  0.023  0.000  0.000  0.024
   28  0.006  0.001  0.000  0.006
   29  0.005  0.001  0.000  0.006
   30  0.005  0.001  0.000  0.006
   31  0.005  0.001  0.000  0.006
   32  0.005  0.001  0.000  0.006
   33  0.005  0.001  0.000  0.006
   34  0.005  0.001  0.000  0.006
   35  0.006  0.001  0.000  0.006
   36  0.002  0.003  0.005  0.011
   37  0.002  0.001  0.000  0.003
   38  0.000  0.000  0.000  0.000
   39  0.000  0.000  0.000  0.000
tot    0.520  0.017  0.012  0.549
 
band     7 # energy   -5.63312794 # occ.  2.00000000
 
ion      s      p      d    tot
    1  0.009  0.000  0.000  0.009
    2  0.008  0.000  0.000  0.009
    3  0.008  0.000  0.000  0.009
    4  0.008  0.000  0.000  0.009
    5  0.008  0.000  0.000  0.009
    6  0.008  0.000  0.000  0.009
    7  0.008  0.000  0.000  0.009
    8  0.008  0.000  0.000  0.009
    9  0.008  0.000  0.000  0.009
   10  0.011  0.001  0.013  0.026
   11  0.010  0.001  0.015  0.026
   12  0.011  0.001  0.013  0.026
   13  0.010  0.001  0.015  0.026
   14  0.010  0.001  0.015  0.026
   15  0.010  0.001  0.015  0.026
   16  0.011  0.001  0.013  0.026
   17  0.010  0.001  0.015  0.026
   18  0.010  0.001  0.015  0.026
   19  0.012  0.001  0.015  0.028
   20  0.011  0.001  0.016  0.027
   21  0.011  0.001  0.016  0.027
   22  0.013  0.001  0.016  0.030
   23  0.011  0.001  0.016  0.027
   24  0.013  0.001  0.016  0.030
   25  0.012  0.001  0.015  0.028
   26  0.012  0.001  0.015  0.028
   27  0.013  0.001  0.016  0.030
   28  0.008  0.000  0.000  0.009
   29  0.008  0.000  0.000  0.008
   30  0.008  0.000  0.000  0.008
   31  0.008  0.000  0.000  0.008
   32  0.008  0.000  0.000  0.008
   33  0.008  0.000  0.000  0.008
   34  0.008  0.000  0.000  0.008
   35  0.008  0.000  0.000  0.009
   36  0.004  0.002  0.006  0.012
   37  0.001  0.001  0.000  0.001
   38  0.000  0.000  0.000  0.000
   39  0.000  0.000  0.000  0.000
tot    0.344  0.027  0.281  0.653
 
band     8 # energy   -5.37706052 # occ.  2.00000000
 
ion      s      p      d    tot
    1  0.012  0.000  0.017  0.029
    2  0.011  0.000  0.016  0.027
    3  0.011  0.000  0.016  0.027
    4  0.011  0.000  0.016  0.027
    5  0.010  0.000  0.016  0.026
    6  0.011  0.000  0.016  0.027
    7  0.011  0.000  0.016  0.027
    8  0.011  0.000  0.016  0.027
    9  0.011  0.000  0.016  0.027
   10  0.000  0.000  0.019  0.020
   11  0.000  0.000  0.017  0.018
   12  0.000  0.000  0.019  0.020
   13  0.000  0.000  0.017  0.018
   14  0.000  0.000  0.017  0.018
   15  0.000  0.000  0.017  0.017
   16  0.000  0.000  0.019  0.020
   17  0.000  0.000  0.017  0.017
   18  0.000  0.000  0.017  0.017
   19  0.000  0.000  0.015  0.015
   20  0.000  0.000  0.018  0.018
   21  0.000  0.000  0.018  0.018
   22  0.000  0.000  0.017  0.017
   23  0.000  0.000  0.018  0.018
   24  0.000  0.000  0.017  0.017
   25  0.000  0.000  0.015  0.015
   26  0.000  0.000  0.015  0.015
   27  0.000  0.000  0.017  0.017
   28  0.009  0.000  0.013  0.022
   29  0.009  0.000  0.013  0.023
   30  0.009  0.000  0.013  0.023
   31  0.009  0.000  0.013  0.023
   32  0.009  0.000  0.013  0.023
   33  0.009  0.000  0.013  0.023
   34  0.009  0.000  0.013  0.023
   35  0.011  0.000  0.013  0.024
   36  0.008  0.000  0.018  0.026
   37  0.000  0.000  0.000  0.000
   38  0.000  0.000  0.000  0.000
   39  0.000  0.000  0.000  0.000
tot    0.187  0.005  0.579  0.771
 
band     9 # energy   -5.23908355 # occ.  2.00000000
 
ion      s      p      d    tot
    1  0.000  0.000  0.008  0.008
    2  0.000  0.000  0.003  0.003
    3  0.001  0.000  0.003  0.004
    4  0.000  0.000  0.003  0.003
    5  0.000  0.000  0.007  0.007
    6  0.002  0.000  0.004  0.006
    7  0.001  0.000  0.003  0.004
    8  0.002  0.000  0.004  0.006
    9  0.000  0.000  0.000  0.000
   10  0.017  0.001  0.005  0.023
   11  0.004  0.001  0.024  0.029
   12  0.004  0.000  0.042  0.047
   13  0.004  0.001  0.024  0.029
   14  0.016  0.001  0.025  0.042
   15  0.000  0.001  0.025  0.026
   16  0.004  0.000  0.044  0.048
   17  0.000  0.001  0.025  0.025
   18  0.000  0.000  0.022  0.022
   19  0.002  0.001  0.015  0.017
   20  0.032  0.001  0.014  0.047
   21  0.009  0.001  0.054  0.064
   22  0.002  0.000  0.066  0.068
   23  0.007  0.001  0.056  0.064
   24  0.009  0.001  0.009  0.019
   25  0.007  0.000  0.037  0.044
   26  0.002  0.001  0.016  0.019
   27  0.002  0.000  0.068  0.071
   28  0.000  0.000  0.001  0.001
   29  0.002  0.001  0.006  0.008
   30  0.001  0.000  0.006  0.007
   31  0.002  0.001  0.005  0.008
   32  0.000  0.000  0.003  0.003
   33  0.001  0.000  0.006  0.007
   34  0.000  0.000  0.003  0.003
   35  0.000  0.000  0.004  0.004
   36  0.000  0.001  0.011  0.012
   37  0.000  0.000  0.000  0.000
   38  0.000  0.001  0.000  0.001
   39  0.000  0.000  0.000  0.000
tot    0.132  0.018  0.651  0.800
 
band    10 # energy   -5.23908291 # occ.  2.00000000
 
ion      s      p      d    tot
    1  0.000  0.000  0.008  0.008
    2  0.002  0.000  0.004  0.006
    3  0.001  0.000  0.003  0.005
    4  0.002  0.000  0.004  0.006
    5  0.000  0.000  0.007  0.007
    6  0.000  0.000  0.003  0.003
    7  0.001  0.000  0.003  0.005
    8  0.000  0.000  0.003  0.003
    9  0.000  0.000  0.000  0.000
   10  0.000  0.000  0.056  0.056
   11  0.013  0.001  0.025  0.038
   12  0.012  0.001  0.019  0.032
   13  0.012  0.001  0.025  0.037
   14  0.000  0.001  0.024  0.025
   15  0.000  0.000  0.023  0.023
   16  0.013  0.001  0.017  0.030
   17  0.000  0.000  0.023  0.023
   18  0.000  0.001  0.026  0.027
   19  0.005  0.001  0.030  0.036
   20  0.000  0.001  0.069  0.070
   21  0.023  0.001  0.029  0.053
   22  0.006  0.000  0.030  0.037
   23  0.025  0.001  0.027  0.052
   24  0.000  0.000  0.086  0.086
   25  0.000  0.002  0.008  0.009
   26  0.005  0.001  0.029  0.035
   27  0.007  0.001  0.027  0.034
   28  0.000  0.000  0.001  0.001
   29  0.000  0.000  0.004  0.004
   30  0.001  0.000  0.004  0.005
   31  0.000  0.000  0.004  0.004
   32  0.002  0.001  0.007  0.009
   33  0.001  0.000  0.004  0.005
   34  0.002  0.001  0.007  0.009
   35  0.000  0.000  0.004  0.004
   36  0.000  0.001  0.011  0.012
   37  0.000  0.000  0.000  0.000
   38  0.000  0.001  0.000  0.001
   39  0.000  0.000  0.000  0.000
tot    0.132  0.018  0.651  0.800
 
band    11 # energy   -5.23346577 # occ.  2.00000000
 
ion      s      p      d    tot
    1  0.000  0.000  0.002  0.002
    2  0.001  0.000  0.004  0.006
    3  0.001  0.001  0.004  0.006
    4  0.001  0.000  0.004  0.006
    5  0.000  0.000  0.004  0.004
    6  0.000  0.000  0.002  0.002
    7  0.001  0.001  0.004  0.006
    8  0.000  0.000  0.002  0.002
    9  0.000  0.000  0.009  0.010
   10  0.005  0.000  0.034  0.039
   11  0.002  0.000  0.057  0.059
   12  0.001  0.001  0.019  0.021
   13  0.002  0.000  0.055  0.058
   14  0.008  0.001  0.009  0.018
   15  0.006  0.001  0.042  0.049
   16  0.001  0.001  0.018  0.020
   17  0.007  0.001  0.041  0.049
   18  0.026  0.001  0.015  0.042
   19  0.005  0.000  0.059  0.064
   20  0.000  0.000  0.026  0.026
   21  0.000  0.001  0.034  0.035
   22  0.005  0.001  0.024  0.030
   23  0.000  0.001  0.035  0.035
   24  0.019  0.000  0.029  0.049
   25  0.019  0.001  0.005  0.025
   26  0.005  0.000  0.057  0.063
   27  0.004  0.001  0.024  0.029
   28  0.000  0.000  0.007  0.008
   29  0.000  0.000  0.003  0.004
   30  0.000  0.000  0.003  0.003
   31  0.001  0.000  0.003  0.004
   32  0.002  0.001  0.005  0.007
   33  0.000  0.000  0.003  0.003
   34  0.002  0.001  0.005  0.007
   35  0.000  0.000  0.007  0.007
   36  0.000  0.000  0.001  0.001
   37  0.000  0.000  0.000  0.000
   38  0.000  0.000  0.000  0.000
   39  0.000  0.000  0.000  0.000
tot    0.127  0.017  0.658  0.802
 
band    12 # energy   -5.23345705 # occ.  2.00000000
 
ion      s      p      d    tot
    1  0.000  0.000  0.002  0.002
    2  0.000  0.000  0.003  0.004
    3  0.000  0.000  0.003  0.003
    4  0.001  0.000  0.003  0.004
    5  0.000  0.000  0.004  0.004
    6  0.002  0.001  0.005  0.007
    7  0.000  0.000  0.003  0.004
    8  0.002  0.001  0.005  0.007
    9  0.000  0.000  0.009  0.010
   10  0.000  0.001  0.013  0.015
   11  0.006  0.001  0.024  0.031
   12  0.004  0.001  0.028  0.032
   13  0.006  0.001  0.026  0.032
   14  0.000  0.000  0.072  0.072
   15  0.020  0.001  0.024  0.044
   16  0.004  0.000  0.029  0.033
   17  0.019  0.001  0.025  0.045
   18  0.000  0.001  0.051  0.052
   19  0.015  0.001  0.021  0.037
   20  0.000  0.001  0.037  0.038
   21  0.000  0.000  0.029  0.029
   22  0.014  0.001  0.027  0.042
   23  0.000  0.000  0.029  0.029
   24  0.000  0.001  0.022  0.024
   25  0.000  0.000  0.076  0.076
   26  0.014  0.001  0.024  0.039
   27  0.015  0.001  0.027  0.043
   28  0.000  0.000  0.007  0.008
   29  0.001  0.000  0.004  0.006
   30  0.001  0.000  0.005  0.006
   31  0.001  0.000  0.004  0.006
   32  0.000  0.000  0.002  0.002
   33  0.001  0.000  0.005  0.006
   34  0.000  0.000  0.002  0.002
   35  0.000  0.000  0.007  0.007
   36  0.000  0.000  0.001  0.001
   37  0.000  0.000  0.000  0.000
   38  0.000  0.000  0.000  0.000
   39  0.000  0.000  0.000  0.000
tot    0.127  0.017  0.658  0.802
 
band    13 # energy   -5.23106252 # occ.  2.00000000
 
ion      s      p      d    tot
    1  0.000  0.000  0.000  0.000
    2  0.000  0.000  0.005  0.006
    3  0.000  0.000  0.005  0.006
    4  0.000  0.000  0.005  0.006
    5  0.005  0.001  0.002  0.009
    6  0.000  0.000  0.005  0.006
    7  0.000  0.000  0.005  0.006
    8  0.000  0.000  0.005  0.006
    9  0.002  0.001  0.006  0.008
   10  0.006  0.001  0.009  0.017
   11  0.012  0.001  0.029  0.042
   12  0.006  0.001  0.009  0.017
   13  0.012  0.001  0.029  0.042
   14  0.013  0.001  0.029  0.042
   15  0.002  0.000  0.054  0.056
   16  0.006  0.001  0.009  0.017
   17  0.002  0.000  0.054  0.056
   18  0.002  0.000  0.054  0.056
   19  0.013  0.000  0.033  0.046
   20  0.007  0.001  0.008  0.015
   21  0.007  0.001  0.008  0.015
   22  0.001  0.000  0.055  0.056
   23  0.007  0.001  0.008  0.015
   24  0.001  0.000  0.054  0.055
   25  0.013  0.000  0.033  0.046
   26  0.013  0.000  0.033  0.046
   27  0.001  0.000  0.055  0.056
   28  0.004  0.001  0.006  0.011
   29  0.000  0.000  0.005  0.005
   30  0.000  0.000  0.005  0.005
   31  0.000  0.000  0.005  0.005
   32  0.000  0.000  0.005  0.005
   33  0.000  0.000  0.005  0.005
   34  0.000  0.000  0.005  0.005
   35  0.003  0.000  0.003  0.006
   36  0.001  0.000  0.000  0.001
   37  0.000  0.000  0.000  0.000
   38  0.000  0.000  0.000  0.000
   39  0.000  0.000  0.000  0.000
tot    0.137  0.017  0.644  0.798
 
band    14 # energy   -5.22543064 # occ.  2.00000000
 
ion      s      p      d    tot
    1  0.000  0.001  0.019  0.019
    2  0.002  0.000  0.008  0.010
    3  0.002  0.000  0.008  0.010
    4  0.002  0.000  0.008  0.010
    5  0.003  0.000  0.002  0.005
    6  0.002  0.000  0.008  0.010
    7  0.002  0.000  0.008  0.010
    8  0.002  0.000  0.008  0.010
    9  0.006  0.000  0.000  0.006
   10  0.007  0.000  0.050  0.057
   11  0.003  0.001  0.027  0.031
   12  0.007  0.000  0.050  0.057
   13  0.003  0.001  0.027  0.031
   14  0.003  0.001  0.027  0.031
   15  0.007  0.001  0.019  0.027
   16  0.007  0.000  0.050  0.057
   17  0.007  0.001  0.019  0.027
   18  0.008  0.001  0.019  0.027
   19  0.003  0.001  0.021  0.025
   20  0.006  0.001  0.036  0.043
   21  0.006  0.001  0.036  0.043
   22  0.006  0.001  0.023  0.029
   23  0.006  0.001  0.036  0.043
   24  0.006  0.001  0.023  0.029
   25  0.003  0.001  0.021  0.025
   26  0.003  0.001  0.021  0.025
   27  0.006  0.001  0.023  0.029
   28  0.002  0.000  0.003  0.005
   29  0.001  0.000  0.008  0.009
   30  0.001  0.000  0.008  0.009
   31  0.001  0.000  0.008  0.009
   32  0.001  0.000  0.008  0.009
   33  0.001  0.000  0.008  0.009
   34  0.001  0.000  0.008  0.009
   35  0.005  0.000  0.000  0.005
   36  0.000  0.002  0.003  0.005
   37  0.001  0.000  0.000  0.001
   38  0.000  0.000  0.000  0.000
   39  0.000  0.000  0.000  0.000
tot    0.132  0.017  0.648  0.797
 
band    15 # energy   -5.21372897 # occ.  2.00000000
 
ion      s      p      d    tot
    1  0.007  0.000  0.009  0.016
    2  0.006  0.000  0.016  0.022
    3  0.006  0.000  0.016  0.022
    4  0.006  0.000  0.016  0.022
    5  0.005  0.000  0.014  0.019
    6  0.006  0.000  0.016  0.022
    7  0.006  0.000  0.016  0.022
    8  0.006  0.000  0.016  0.022
    9  0.006  0.000  0.025  0.031
   10  0.000  0.000  0.022  0.023
   11  0.000  0.000  0.004  0.005
   12  0.000  0.000  0.022  0.023
   13  0.000  0.000  0.004  0.005
   14  0.000  0.000  0.004  0.005
   15  0.006  0.001  0.021  0.028
   16  0.000  0.000  0.022  0.023
   17  0.006  0.001  0.021  0.028
   18  0.006  0.001  0.021  0.028
   19  0.000  0.001  0.004  0.004
   20  0.001  0.000  0.024  0.025
   21  0.001  0.000  0.024  0.025
   22  0.005  0.001  0.024  0.029
   23  0.001  0.000  0.024  0.025
   24  0.005  0.001  0.024  0.029
   25  0.000  0.001  0.004  0.004
   26  0.000  0.001  0.004  0.004
   27  0.005  0.001  0.024  0.029
   28  0.009  0.000  0.012  0.021
   29  0.008  0.000  0.019  0.027
   30  0.008  0.000  0.019  0.027
   31  0.008  0.000  0.019  0.027
   32  0.008  0.000  0.019  0.027
   33  0.008  0.000  0.019  0.027
   34  0.008  0.000  0.019  0.027
   35  0.008  0.000  0.031  0.039
   36  0.007  0.000  0.016  0.024
   37  0.000  0.000  0.000  0.000
   38  0.000  0.000  0.000  0.000
   39  0.000  0.000  0.000  0.000
tot    0.162  0.009  0.616  0.787
 
band    16 # energy   -5.19892273 # occ.  2.00000000
 
ion      s      p      d    tot
    1  0.002  0.001  0.006  0.009
    2  0.000  0.000  0.009  0.009
    3  0.000  0.000  0.009  0.009
    4  0.000  0.000  0.009  0.009
    5  0.002  0.000  0.011  0.013
    6  0.000  0.000  0.009  0.009
    7  0.000  0.000  0.009  0.009
    8  0.000  0.000  0.009  0.009
    9  0.003  0.001  0.000  0.004
   10  0.004  0.000  0.032  0.037
   11  0.000  0.000  0.074  0.074
   12  0.004  0.000  0.032  0.037
   13  0.000  0.000  0.074  0.074
   14  0.000  0.000  0.073  0.074
   15  0.004  0.000  0.016  0.020
   16  0.004  0.000  0.032  0.037
   17  0.004  0.000  0.016  0.020
   18  0.004  0.000  0.016  0.020
   19  0.003  0.000  0.009  0.012
   20  0.000  0.000  0.049  0.050
   21  0.000  0.000  0.049  0.049
   22  0.001  0.000  0.034  0.035
   23  0.000  0.000  0.049  0.049
   24  0.001  0.000  0.034  0.035
   25  0.003  0.000  0.009  0.012
   26  0.003  0.000  0.009  0.012
   27  0.001  0.000  0.034  0.035
   28  0.002  0.001  0.001  0.004
   29  0.000  0.000  0.010  0.010
   30  0.000  0.000  0.010  0.010
   31  0.000  0.000  0.010  0.010
   32  0.000  0.000  0.010  0.010
   33  0.000  0.000  0.010  0.010
   34  0.000  0.000  0.010  0.010
   35  0.000  0.000  0.004  0.004
   36  0.007  0.000  0.007  0.014
   37  0.000  0.000  0.000  0.000
   38  0.000  0.000  0.000  0.000
   39  0.000  0.000  0.000  0.000
tot    0.055  0.007  0.784  0.847
 
band    17 # energy   -5.19516623 # occ.  2.00000000
 
ion      s      p      d    tot
    1  0.000  0.000  0.017  0.017
    2  0.002  0.000  0.005  0.007
    3  0.000  0.000  0.009  0.010
    4  0.002  0.000  0.005  0.007
    5  0.000  0.000  0.005  0.005
    6  0.001  0.000  0.007  0.008
    7  0.000  0.000  0.009  0.010
    8  0.001  0.001  0.007  0.008
    9  0.000  0.000  0.007  0.007
   10  0.000  0.000  0.051  0.051
   11  0.000  0.000  0.031  0.032
   12  0.006  0.000  0.039  0.045
   13  0.000  0.000  0.032  0.032
   14  0.000  0.000  0.016  0.016
   15  0.006  0.000  0.030  0.036
   16  0.005  0.000  0.040  0.045
   17  0.006  0.000  0.027  0.033
   18  0.000  0.000  0.094  0.094
   19  0.003  0.000  0.033  0.037
   20  0.000  0.000  0.058  0.058
   21  0.003  0.000  0.020  0.023
   22  0.000  0.000  0.033  0.033
   23  0.003  0.000  0.022  0.025
   24  0.000  0.000  0.009  0.009
   25  0.000  0.000  0.056  0.056
   26  0.003  0.000  0.032  0.036
   27  0.000  0.000  0.032  0.032
   28  0.000  0.000  0.015  0.016
   29  0.000  0.000  0.008  0.008
   30  0.002  0.000  0.006  0.008
   31  0.000  0.000  0.008  0.008
   32  0.001  0.000  0.005  0.007
   33  0.002  0.000  0.006  0.008
   34  0.001  0.000  0.005  0.007
   35  0.000  0.000  0.007  0.007
   36  0.000  0.000  0.003  0.004
   37  0.000  0.000  0.000  0.000
   38  0.000  0.000  0.000  0.000
   39  0.000  0.000  0.000  0.000
tot    0.050  0.007  0.789  0.846
 
band    18 # energy   -5.19515658 # occ.  2.00000000
 
ion      s      p      d    tot
    1  0.000  0.000  0.017  0.017
    2  0.000  0.000  0.009  0.010
    3  0.002  0.000  0.005  0.007
    4  0.000  0.000  0.009  0.010
    5  0.000  0.000  0.004  0.005
    6  0.001  0.000  0.007  0.009
    7  0.002  0.000  0.005  0.007
    8  0.001  0.000  0.008  0.009
    9  0.000  0.000  0.007  0.007
   10  0.007  0.000  0.036  0.043
   11  0.000  0.000  0.021  0.022
   12  0.002  0.000  0.047  0.049
   13  0.000  0.000  0.021  0.021
   14  0.000  0.000  0.037  0.038
   15  0.002  0.000  0.071  0.073
   16  0.002  0.000  0.047  0.049
   17  0.002  0.000  0.074  0.076
   18  0.008  0.000  0.007  0.015
   19  0.001  0.000  0.048  0.049
   20  0.004  0.000  0.008  0.013
   21  0.001  0.000  0.046  0.047
   22  0.000  0.000  0.016  0.016
   23  0.001  0.000  0.045  0.046
   24  0.000  0.000  0.040  0.040
   25  0.004  0.000  0.025  0.030
   26  0.001  0.000  0.049  0.050
   27  0.000  0.000  0.017  0.018
   28  0.000  0.000  0.015  0.016
   29  0.002  0.000  0.005  0.007
   30  0.000  0.000  0.007  0.007
   31  0.002  0.000  0.004  0.007
   32  0.001  0.000  0.008  0.009
   33  0.000  0.000  0.007  0.007
   34  0.001  0.000  0.007  0.009
   35  0.000  0.000  0.007  0.007
   36  0.000  0.000  0.003  0.004
   37  0.000  0.000  0.000  0.000
   38  0.000  0.000  0.000  0.000
   39  0.000  0.000  0.000  0.000
tot    0.050  0.007  0.789  0.846
 
band    19 # energy   -5.18986736 # occ.  2.00000000
 
ion      s      p      d    tot
    1  0.000  0.000  0.005  0.005
    2  0.003  0.000  0.005  0.009
    3  0.000  0.000  0.010  0.010
    4  0.003  0.000  0.005  0.009
    5  0.000  0.000  0.013  0.013
    6  0.001  0.001  0.008  0.010
    7  0.000  0.000  0.010  0.010
    8  0.001  0.001  0.008  0.010
    9  0.000  0.000  0.013  0.013
   10  0.007  0.000  0.013  0.020
   11  0.003  0.000  0.059  0.062
   12  0.002  0.000  0.051  0.052
   13  0.003  0.000  0.059  0.062
   14  0.011  0.000  0.016  0.027
   15  0.000  0.000  0.021  0.021
   16  0.002  0.000  0.051  0.053
   17  0.000  0.000  0.021  0.022
   18  0.000  0.000  0.046  0.047
   19  0.001  0.000  0.035  0.036
   20  0.001  0.000  0.042  0.043
   21  0.000  0.000  0.027  0.027
   22  0.002  0.000  0.053  0.055
   23  0.000  0.000  0.027  0.027
   24  0.008  0.000  0.013  0.021
   25  0.004  0.000  0.017  0.020
   26  0.001  0.000  0.035  0.036
   27  0.002  0.000  0.053  0.055
   28  0.000  0.000  0.003  0.003
   29  0.000  0.000  0.008  0.008
   30  0.002  0.000  0.003  0.006
   31  0.000  0.000  0.008  0.008
   32  0.001  0.001  0.006  0.008
   33  0.002  0.000  0.003  0.006
   34  0.001  0.001  0.006  0.008
   35  0.000  0.000  0.009  0.009
   36  0.000  0.000  0.008  0.008
   37  0.000  0.000  0.000  0.000
   38  0.000  0.000  0.000  0.000
   39  0.000  0.000  0.000  0.000
tot    0.062  0.008  0.771  0.841
 
band    20 # energy   -5.18985739 # occ.  2.00000000
 
ion      s      p      d    tot
    1  0.000  0.000  0.005  0.005
    2  0.000  0.000  0.010  0.010
    3  0.003  0.001  0.005  0.009
    4  0.000  0.000  0.010  0.010
    5  0.000  0.000  0.013  0.013
    6  0.002  0.000  0.007  0.009
    7  0.003  0.001  0.005  0.009
    8  0.002  0.000  0.007  0.009
    9  0.000  0.000  0.014  0.014
   10  0.000  0.000  0.063  0.063
   11  0.008  0.000  0.030  0.039
   12  0.005  0.000  0.026  0.031
   13  0.008  0.000  0.030  0.039
   14  0.000  0.000  0.074  0.074
   15  0.000  0.000  0.038  0.038
   16  0.005  0.000  0.026  0.031
   17  0.000  0.000  0.038  0.038
   18  0.000  0.000  0.013  0.013
   19  0.003  0.000  0.023  0.026
   20  0.000  0.000  0.021  0.022
   21  0.000  0.000  0.037  0.037
   22  0.006  0.000  0.026  0.032
   23  0.000  0.000  0.037  0.037
   24  0.000  0.000  0.067  0.067
   25  0.000  0.000  0.042  0.042
   26  0.003  0.000  0.023  0.026
   27  0.006  0.000  0.026  0.032
   28  0.000  0.000  0.003  0.003
   29  0.002  0.001  0.004  0.007
   30  0.000  0.000  0.009  0.009
   31  0.002  0.001  0.004  0.007
   32  0.001  0.000  0.006  0.007
   33  0.000  0.000  0.009  0.009
   34  0.001  0.000  0.006  0.007
   35  0.000  0.000  0.009  0.010
   36  0.000  0.000  0.008  0.008
   37  0.000  0.000  0.000  0.000
   38  0.000  0.000  0.000  0.000
   39  0.000  0.000  0.000  0.000