PROCAR new format
# of k-points:   10         # of bands:  252         # of ions:   39

 k-point     1 :    0.00000000 0.00000000 0.00000000     weight = 0.01562500

band     1 # energy  -24.63835293 # occ.  2.00000000
 
ion      s      p      d    tot
    1  0.000  0.000  0.000  0.000
    2  0.000  0.000  0.000  0.000
    3  0.000  0.000  0.000  0.000
    4  0.000  0.000  0.000  0.000
    5  0.000  0.000  0.000  0.000
    6  0.000  0.000  0.000  0.000
    7  0.000  0.000  0.000  0.000
    8  0.000  0.000  0.000  0.000
    9  0.000  0.000  0.000  0.000
   10  0.000  0.000  0.000  0.000
   11  0.000  0.000  0.000  0.000
   12  0.000  0.000  0.000  0.000
   13  0.000  0.000  0.000  0.000
   14  0.000  0.000  0.000  0.000
   15  0.000  0.000  0.000  0.000
   16  0.000  0.000  0.000  0.000
   17  0.000  0.000  0.000  0.000
   18  0.000  0.000  0.000  0.000
   19  0.000  0.000  0.000  0.000
   20  0.000  0.000  0.000  0.000
   21  0.000  0.000  0.000  0.000
   22  0.000  0.000  0.000  0.000
   23  0.000  0.000  0.000  0.000
   24  0.000  0.000  0.000  0.000
   25  0.000  0.000  0.000  0.000
   26  0.000  0.000  0.000  0.000
   27  0.000  0.000  0.000  0.000
   28  0.000  0.000  0.000  0.000
   29  0.000  0.000  0.000  0.000
   30  0.000  0.000  0.000  0.000
   31  0.000  0.000  0.000  0.000
   32  0.000  0.000  0.000  0.000
   33  0.000  0.000  0.000  0.000
   34  0.000  0.000  0.000  0.000
   35  0.000  0.000  0.000  0.000
   36  0.000  0.000  0.000  0.000
   37  0.077  0.056  0.000  0.133
   38  0.725  0.007  0.000  0.732
   39  0.062  0.013  0.000  0.075
tot    0.864  0.076  0.000  0.940
 
band     2 # energy  -15.34965123 # occ.  2.00000000
 
ion      s      p      d    tot
    1  0.000  0.000  0.000  0.000
    2  0.000  0.000  0.000  0.000
    3  0.000  0.000  0.000  0.000
    4  0.000  0.000  0.000  0.000
    5  0.000  0.000  0.000  0.000
    6  0.000  0.000  0.000  0.000
    7  0.000  0.000  0.000  0.000
    8  0.000  0.000  0.000  0.000
    9  0.000  0.000  0.000  0.000
   10  0.000  0.000  0.000  0.000
   11  0.000  0.000  0.000  0.000
   12  0.000  0.000  0.000  0.000
   13  0.000  0.000  0.000  0.000
   14  0.000  0.000  0.000  0.000
   15  0.000  0.000  0.000  0.000
   16  0.000  0.000  0.000  0.000
   17  0.000  0.000  0.000  0.000
   18  0.000  0.000  0.000  0.000
   19  0.000  0.000  0.000  0.000
   20  0.000  0.000  0.000  0.000
   21  0.000  0.000  0.000  0.000
   22  0.000  0.000  0.000  0.000
   23  0.000  0.000  0.000  0.000
   24  0.000  0.000  0.000  0.000
   25  0.000  0.000  0.000  0.000
   26  0.000  0.000  0.000  0.000
   27  0.000  0.000  0.000  0.000
   28  0.000  0.000  0.000  0.000
   29  0.000  0.000  0.000  0.000
   30  0.000  0.000  0.000  0.000
   31  0.000  0.000  0.000  0.000
   32  0.000  0.000  0.000  0.000
   33  0.000  0.000  0.000  0.000
   34  0.000  0.000  0.000  0.000
   35  0.000  0.000  0.000  0.000
   36  0.003  0.003  0.002  0.008
   37  0.159  0.050  0.000  0.209
   38  0.017  0.521  0.000  0.538
   39  0.201  0.032  0.000  0.233
tot    0.380  0.606  0.002  0.988
 
band     3 # energy   -8.94413138 # occ.  2.00000000
 
ion      s      p      d    tot
    1  0.005  0.001  0.000  0.006
    2  0.005  0.001  0.000  0.006
    3  0.005  0.001  0.000  0.006
    4  0.005  0.001  0.000  0.006
    5  0.005  0.001  0.000  0.006
    6  0.005  0.001  0.000  0.006
    7  0.005  0.001  0.000  0.006
    8  0.005  0.001  0.000  0.006
    9  0.005  0.001  0.000  0.006
   10  0.021  0.000  0.000  0.021
   11  0.021  0.000  0.000  0.021
   12  0.021  0.000  0.000  0.021
   13  0.021  0.000  0.000  0.021
   14  0.021  0.000  0.000  0.021
   15  0.020  0.000  0.000  0.020
   16  0.021  0.000  0.000  0.021
   17  0.020  0.000  0.000  0.020
   18  0.020  0.000  0.000  0.020
   19  0.022  0.000  0.000  0.022
   20  0.026  0.000  0.000  0.026
   21  0.026  0.000  0.000  0.026
   22  0.022  0.000  0.000  0.023
   23  0.026  0.000  0.000  0.026
   24  0.022  0.000  0.000  0.023
   25  0.022  0.000  0.000  0.022
   26  0.022  0.000  0.000  0.022
   27  0.022  0.000  0.000  0.023
   28  0.007  0.001  0.000  0.008
   29  0.008  0.001  0.000  0.009
   30  0.008  0.001  0.000  0.009
   31  0.008  0.001  0.000  0.009
   32  0.008  0.001  0.000  0.009
   33  0.008  0.001  0.000  0.009
   34  0.008  0.001  0.000  0.009
   35  0.007  0.001  0.000  0.007
   36  0.034  0.002  0.012  0.048
   37  0.016  0.016  0.000  0.032
   38  0.001  0.006  0.000  0.007
   39  0.002  0.000  0.000  0.002
tot    0.559  0.037  0.013  0.609
 
band     4 # energy   -8.22049352 # occ.  2.00000000
 
ion      s      p      d    tot
    1  0.006  0.000  0.000  0.006
    2  0.006  0.000  0.000  0.006
    3  0.006  0.000  0.000  0.006
    4  0.006  0.000  0.000  0.006
    5  0.005  0.000  0.000  0.006
    6  0.006  0.000  0.000  0.006
    7  0.006  0.000  0.000  0.006
    8  0.006  0.000  0.000  0.006
    9  0.006  0.000  0.000  0.006
   10  0.009  0.000  0.000  0.010
   11  0.008  0.000  0.000  0.009
   12  0.009  0.000  0.000  0.010
   13  0.008  0.000  0.000  0.009
   14  0.008  0.000  0.000  0.009
   15  0.010  0.000  0.000  0.010
   16  0.009  0.000  0.000  0.010
   17  0.010  0.000  0.000  0.010
   18  0.010  0.000  0.000  0.010
   19  0.001  0.001  0.000  0.001
   20  0.000  0.002  0.001  0.003
   21  0.000  0.002  0.001  0.003
   22  0.000  0.001  0.000  0.001
   23  0.000  0.002  0.001  0.003
   24  0.000  0.001  0.000  0.001
   25  0.001  0.001  0.000  0.001
   26  0.001  0.001  0.000  0.001
   27  0.000  0.001  0.000  0.001
   28  0.001  0.000  0.000  0.001
   29  0.004  0.001  0.001  0.006
   30  0.004  0.001  0.001  0.006
   31  0.004  0.001  0.001  0.006
   32  0.004  0.001  0.001  0.006
   33  0.004  0.001  0.001  0.006
   34  0.004  0.001  0.001  0.006
   35  0.001  0.000  0.000  0.001
   36  0.115  0.051  0.110  0.276
   37  0.138  0.127  0.000  0.264
   38  0.010  0.038  0.000  0.049
   39  0.011  0.001  0.000  0.012
tot    0.436  0.237  0.120  0.794
 
band     5 # energy   -7.43484297 # occ.  2.00000000
 
ion      s      p      d    tot
    1  0.000  0.000  0.000  0.000
    2  0.000  0.000  0.000  0.000
    3  0.000  0.000  0.000  0.000
    4  0.000  0.000  0.000  0.000
    5  0.000  0.000  0.000  0.000
    6  0.000  0.000  0.000  0.000
    7  0.000  0.000  0.000  0.000
    8  0.000  0.000  0.000  0.000
    9  0.000  0.000  0.000  0.000
   10  0.000  0.000  0.000  0.000
   11  0.000  0.000  0.000  0.000
   12  0.000  0.000  0.000  0.000
   13  0.000  0.000  0.000  0.000
   14  0.000  0.000  0.000  0.000
   15  0.000  0.000  0.000  0.000
   16  0.000  0.000  0.000  0.000
   17  0.000  0.000  0.000  0.000
   18  0.000  0.000  0.000  0.000
   19  0.000  0.000  0.000  0.000
   20  0.000  0.000  0.000  0.000
   21  0.000  0.000  0.000  0.000
   22  0.000  0.000  0.000  0.000
   23  0.000  0.000  0.000  0.000
   24  0.000  0.000  0.000  0.000
   25  0.000  0.000  0.000  0.000
   26  0.000  0.000  0.000  0.000
   27  0.000  0.000  0.000  0.000
   28  0.000  0.000  0.000  0.000
   29  0.001  0.000  0.000  0.002
   30  0.000  0.000  0.000  0.000
   31  0.001  0.000  0.000  0.002
   32  0.001  0.000  0.000  0.002
   33  0.000  0.000  0.000  0.000
   34  0.001  0.000  0.000  0.002
   35  0.000  0.000  0.000  0.000
   36  0.000  0.004  0.013  0.017
   37  0.000  0.114  0.000  0.114
   38  0.000  0.532  0.000  0.532
   39  0.000  0.007  0.000  0.007
tot    0.003  0.658  0.015  0.677
 
band     6 # energy   -7.43465393 # occ.  2.00000000
 
ion      s      p      d    tot
    1  0.000  0.000  0.000  0.000
    2  0.000  0.000  0.000  0.000
    3  0.000  0.000  0.000  0.000
    4  0.000  0.000  0.000  0.000
    5  0.000  0.000  0.000  0.000
    6  0.000  0.000  0.000  0.000
    7  0.000  0.000  0.000  0.000
    8  0.000  0.000  0.000  0.000
    9  0.000  0.000  0.000  0.000
   10  0.000  0.000  0.000  0.000
   11  0.000  0.000  0.000  0.000
   12  0.000  0.000  0.000  0.000
   13  0.000  0.000  0.000  0.000
   14  0.000  0.000  0.000  0.000
   15  0.000  0.000  0.000  0.000
   16  0.000  0.000  0.000  0.000
   17  0.000  0.000  0.000  0.000
   18  0.000  0.000  0.000  0.000
   19  0.000  0.000  0.000  0.000
   20  0.000  0.000  0.000  0.000
   21  0.000  0.000  0.000  0.000
   22  0.000  0.000  0.000  0.000
   23  0.000  0.000  0.000  0.000
   24  0.000  0.000  0.000  0.000
   25  0.000  0.000  0.000  0.000
   26  0.000  0.000  0.000  0.000
   27  0.000  0.000  0.000  0.000
   28  0.000  0.000  0.000  0.000
   29  0.000  0.000  0.000  0.001
   30  0.001  0.000  0.000  0.002
   31  0.000  0.000  0.000  0.001
   32  0.000  0.000  0.000  0.001
   33  0.001  0.000  0.000  0.002
   34  0.000  0.000  0.000  0.001
   35  0.000  0.000  0.000  0.000
   36  0.000  0.004  0.013  0.017
   37  0.000  0.114  0.000  0.114
   38  0.000  0.532  0.000  0.532
   39  0.000  0.007  0.000  0.007
tot    0.003  0.658  0.015  0.677
 
band     7 # energy   -7.35752064 # occ.  2.00000000
 
ion      s      p      d    tot
    1  0.016  0.001  0.001  0.017
    2  0.016  0.000  0.001  0.017
    3  0.016  0.000  0.001  0.017
    4  0.016  0.000  0.001  0.017
    5  0.016  0.001  0.001  0.017
    6  0.016  0.000  0.001  0.017
    7  0.016  0.000  0.001  0.017
    8  0.016  0.000  0.001  0.017
    9  0.015  0.000  0.001  0.016
   10  0.005  0.003  0.000  0.008
   11  0.005  0.002  0.000  0.008
   12  0.005  0.003  0.000  0.008
   13  0.005  0.002  0.000  0.008
   14  0.005  0.002  0.000  0.008
   15  0.004  0.003  0.000  0.007
   16  0.005  0.003  0.000  0.008
   17  0.004  0.003  0.000  0.007
   18  0.004  0.003  0.000  0.007
   19  0.017  0.001  0.001  0.019
   20  0.008  0.001  0.002  0.011
   21  0.008  0.001  0.002  0.011
   22  0.016  0.001  0.001  0.018
   23  0.008  0.001  0.002  0.011
   24  0.016  0.001  0.001  0.018
   25  0.017  0.001  0.001  0.019
   26  0.017  0.001  0.001  0.019
   27  0.016  0.001  0.001  0.018
   28  0.017  0.001  0.000  0.018
   29  0.010  0.002  0.001  0.012
   30  0.010  0.002  0.001  0.012
   31  0.010  0.002  0.001  0.012
   32  0.010  0.002  0.001  0.012
   33  0.010  0.002  0.001  0.012
   34  0.010  0.002  0.001  0.012
   35  0.017  0.001  0.000  0.018
   36  0.006  0.025  0.051  0.081
   37  0.043  0.035  0.000  0.078
   38  0.003  0.009  0.000  0.011
   39  0.003  0.000  0.000  0.003
tot    0.456  0.121  0.074  0.651
 
band     8 # energy   -5.92511248 # occ.  2.00000000
 
ion      s      p      d    tot
    1  0.014  0.000  0.004  0.018
    2  0.010  0.001  0.005  0.016
    3  0.010  0.001  0.005  0.016
    4  0.010  0.001  0.005  0.016
    5  0.000  0.002  0.006  0.008
    6  0.010  0.001  0.005  0.016
    7  0.010  0.001  0.005  0.016
    8  0.010  0.001  0.005  0.016
    9  0.027  0.000  0.002  0.029
   10  0.002  0.003  0.005  0.010
   11  0.024  0.007  0.001  0.031
   12  0.002  0.003  0.005  0.010
   13  0.024  0.007  0.001  0.031
   14  0.024  0.007  0.001  0.031
   15  0.002  0.002  0.007  0.011
   16  0.002  0.003  0.005  0.010
   17  0.002  0.002  0.007  0.011
   18  0.002  0.002  0.007  0.011
   19  0.000  0.002  0.007  0.009
   20  0.027  0.006  0.002  0.035
   21  0.027  0.006  0.002  0.035
   22  0.000  0.005  0.004  0.009
   23  0.027  0.006  0.002  0.035
   24  0.000  0.005  0.004  0.009
   25  0.000  0.002  0.007  0.009
   26  0.000  0.002  0.007  0.009
   27  0.000  0.005  0.004  0.009
   28  0.020  0.000  0.002  0.022
   29  0.010  0.001  0.005  0.016
   30  0.010  0.001  0.005  0.017
   31  0.010  0.001  0.005  0.016
   32  0.010  0.001  0.005  0.016
   33  0.010  0.001  0.005  0.017
   34  0.010  0.001  0.005  0.016
   35  0.026  0.000  0.003  0.029
   36  0.000  0.002  0.012  0.014
   37  0.000  0.000  0.000  0.000
   38  0.000  0.000  0.000  0.000
   39  0.000  0.000  0.000  0.000
tot    0.370  0.087  0.174  0.631
 
band     9 # energy   -5.88786386 # occ.  2.00000000
 
ion      s      p      d    tot
    1  0.000  0.002  0.005  0.008
    2  0.009  0.002  0.002  0.014
    3  0.001  0.001  0.002  0.003
    4  0.009  0.002  0.002  0.014
    5  0.000  0.003  0.004  0.007
    6  0.005  0.002  0.002  0.009
    7  0.001  0.001  0.002  0.004
    8  0.005  0.002  0.002  0.010
    9  0.000  0.000  0.002  0.002
   10  0.053  0.005  0.003  0.061
   11  0.010  0.009  0.005  0.025
   12  0.013  0.001  0.014  0.028
   13  0.010  0.009  0.005  0.024
   14  0.040  0.001  0.007  0.048
   15  0.000  0.007  0.006  0.013
   16  0.014  0.002  0.013  0.029
   17  0.000  0.007  0.006  0.013
   18  0.001  0.002  0.004  0.007
   19  0.004  0.010  0.003  0.017
   20  0.065  0.004  0.005  0.073
   21  0.016  0.004  0.012  0.032
   22  0.004  0.003  0.010  0.017
   23  0.017  0.004  0.012  0.033
   24  0.016  0.004  0.003  0.022
   25  0.015  0.000  0.006  0.022
   26  0.004  0.010  0.003  0.017
   27  0.004  0.003  0.010  0.017
   28  0.000  0.002  0.003  0.005
   29  0.010  0.003  0.003  0.015
   30  0.001  0.001  0.002  0.005
   31  0.010  0.003  0.003  0.015
   32  0.004  0.001  0.002  0.007
   33  0.001  0.001  0.002  0.005
   34  0.004  0.001  0.002  0.007
   35  0.000  0.000  0.003  0.003
   36  0.000  0.004  0.006  0.010
   37  0.000  0.000  0.000  0.000
   38  0.000  0.000  0.000  0.000
   39  0.000  0.000  0.000  0.000
tot    0.346  0.117  0.179  0.642
 
band    10 # energy   -5.88776931 # occ.  2.00000000
 
ion      s      p      d    tot
    1  0.000  0.002  0.005  0.008
    2  0.001  0.001  0.002  0.004
    3  0.010  0.002  0.003  0.015
    4  0.001  0.001  0.002  0.004
    5  0.000  0.003  0.004  0.007
    6  0.005  0.002  0.002  0.009
    7  0.010  0.002  0.003  0.015
    8  0.005  0.002  0.002  0.008
    9  0.000  0.000  0.002  0.002
   10  0.000  0.000  0.017  0.017
   11  0.030  0.004  0.006  0.040
   12  0.041  0.004  0.006  0.051
   13  0.031  0.004  0.006  0.040
   14  0.000  0.012  0.005  0.017
   15  0.001  0.003  0.005  0.009
   16  0.040  0.004  0.007  0.050
   17  0.001  0.003  0.005  0.009
   18  0.000  0.008  0.006  0.015
   19  0.011  0.004  0.005  0.020
   20  0.000  0.004  0.015  0.019
   21  0.049  0.004  0.007  0.060
   22  0.012  0.004  0.005  0.021
   23  0.048  0.004  0.007  0.059
   24  0.000  0.003  0.013  0.015
   25  0.000  0.014  0.002  0.015
   26  0.011  0.003  0.005  0.020
   27  0.012  0.003  0.005  0.021
   28  0.000  0.002  0.003  0.005
   29  0.000  0.001  0.002  0.003
   30  0.009  0.002  0.003  0.013
   31  0.000  0.001  0.002  0.003
   32  0.006  0.002  0.003  0.011
   33  0.009  0.002  0.003  0.013
   34  0.006  0.002  0.003  0.011
   35  0.000  0.000  0.003  0.003
   36  0.000  0.004  0.006  0.010
   37  0.000  0.000  0.000  0.000
   38  0.000  0.000  0.000  0.000
   39  0.000  0.000  0.000  0.000
tot    0.346  0.117  0.179  0.642
 
band    11 # energy   -5.87560177 # occ.  2.00000000
 
ion      s      p      d    tot
    1  0.022  0.003  0.001  0.026
    2  0.000  0.002  0.004  0.006
    3  0.000  0.002  0.004  0.006
    4  0.000  0.002  0.004  0.006
    5  0.001  0.000  0.000  0.002
    6  0.000  0.002  0.004  0.006
    7  0.000  0.002  0.004  0.006
    8  0.000  0.002  0.004  0.006
    9  0.010  0.002  0.000  0.012
   10  0.030  0.006  0.006  0.042
   11  0.005  0.000  0.012  0.017
   12  0.030  0.006  0.006  0.042
   13  0.005  0.000  0.012  0.017
   14  0.005  0.000  0.012  0.017
   15  0.013  0.008  0.003  0.025
   16  0.030  0.006  0.006  0.042
   17  0.013  0.008  0.003  0.025
   18  0.013  0.008  0.003  0.025
   19  0.022  0.009  0.002  0.033
   20  0.000  0.002  0.010  0.012
   21  0.000  0.002  0.010  0.012
   22  0.025  0.002  0.009  0.036
   23  0.000  0.002  0.010  0.012
   24  0.025  0.002  0.009  0.036
   25  0.022  0.009  0.002  0.033
   26  0.022  0.009  0.002  0.033
   27  0.025  0.002  0.009  0.036
   28  0.018  0.003  0.001  0.021
   29  0.000  0.002  0.004  0.005
   30  0.000  0.002  0.004  0.005
   31  0.000  0.002  0.004  0.005
   32  0.000  0.002  0.004  0.005
   33  0.000  0.002  0.004  0.005
   34  0.000  0.002  0.004  0.005
   35  0.012  0.002  0.001  0.016
   36  0.000  0.000  0.000  0.000
   37  0.000  0.000  0.000  0.000
   38  0.000  0.000  0.000  0.000
   39  0.000  0.000  0.000  0.000
tot    0.346  0.115  0.178  0.639
 
band    12 # energy   -5.86602778 # occ.  2.00000000
 
ion      s      p      d    tot
    1  0.000  0.002  0.003  0.004
    2  0.010  0.002  0.003  0.015
    3  0.001  0.001  0.002  0.004
    4  0.010  0.002  0.003  0.015
    5  0.000  0.000  0.004  0.004
    6  0.006  0.002  0.003  0.010
    7  0.001  0.001  0.002  0.004
    8  0.006  0.002  0.003  0.010
    9  0.000  0.004  0.006  0.010
   10  0.000  0.014  0.002  0.015
   11  0.017  0.004  0.005  0.026
   12  0.008  0.004  0.005  0.017
   13  0.017  0.004  0.005  0.026
   14  0.000  0.002  0.014  0.016
   15  0.047  0.004  0.007  0.058
   16  0.008  0.004  0.005  0.017
   17  0.048  0.004  0.007  0.059
   18  0.000  0.005  0.013  0.018
   19  0.035  0.004  0.006  0.044
   20  0.000  0.010  0.005  0.015
   21  0.000  0.003  0.005  0.008
   22  0.035  0.004  0.006  0.045
   23  0.000  0.003  0.005  0.008
   24  0.000  0.011  0.006  0.017
   25  0.000  0.000  0.017  0.017
   26  0.035  0.004  0.006  0.045
   27  0.034  0.004  0.006  0.045
   28  0.000  0.002  0.005  0.006
   29  0.009  0.002  0.002  0.014
   30  0.001  0.001  0.002  0.005
   31  0.009  0.002  0.002  0.014
   32  0.003  0.001  0.002  0.006
   33  0.002  0.001  0.002  0.005
   34  0.003  0.001  0.002  0.007
   35  0.000  0.003  0.005  0.008
   36  0.000  0.000  0.002  0.002
   37  0.000  0.000  0.000  0.000
   38  0.000  0.000  0.000  0.000
   39  0.000  0.000  0.000  0.000
tot    0.345  0.116  0.178  0.639
 
band    13 # energy   -5.86594919 # occ.  2.00000000
 
ion      s      p      d    tot
    1  0.000  0.002  0.003  0.004
    2  0.001  0.001  0.002  0.004
    3  0.010  0.003  0.003  0.016
    4  0.001  0.001  0.002  0.004
    5  0.000  0.000  0.004  0.004
    6  0.005  0.002  0.002  0.009
    7  0.010  0.003  0.003  0.016
    8  0.005  0.002  0.002  0.009
    9  0.000  0.004  0.006  0.010
   10  0.010  0.000  0.007  0.017
   11  0.006  0.002  0.011  0.020
   12  0.003  0.010  0.003  0.016
   13  0.006  0.002  0.011  0.019
   14  0.023  0.004  0.002  0.029
   15  0.016  0.005  0.011  0.032
   16  0.003  0.010  0.003  0.016
   17  0.016  0.005  0.011  0.032
   18  0.063  0.003  0.005  0.072
   19  0.012  0.001  0.013  0.026
   20  0.000  0.001  0.005  0.006
   21  0.000  0.008  0.005  0.013
   22  0.011  0.008  0.006  0.026
   23  0.000  0.008  0.005  0.013
   24  0.046  0.001  0.006  0.054
   25  0.047  0.005  0.002  0.054
   26  0.011  0.001  0.013  0.026
   27  0.012  0.008  0.006  0.026
   28  0.000  0.002  0.005  0.006
   29  0.000  0.001  0.002  0.003
   30  0.008  0.002  0.002  0.012
   31  0.000  0.001  0.002  0.003
   32  0.006  0.002  0.002  0.011
   33  0.008  0.002  0.002  0.012
   34  0.006  0.002  0.002  0.010
   35  0.000  0.003  0.005  0.008
   36  0.000  0.000  0.002  0.002
   37  0.000  0.000  0.000  0.000
   38  0.000  0.000  0.000  0.000
   39  0.000  0.000  0.000  0.000
tot    0.345  0.116  0.178  0.639
 
band    14 # energy   -5.75034529 # occ.  2.00000000
 
ion      s      p      d    tot
    1  0.001  0.001  0.004  0.005
    2  0.006  0.002  0.007  0.015
    3  0.006  0.002  0.007  0.015
    4  0.006  0.002  0.007  0.015
    5  0.046  0.002  0.001  0.049
    6  0.006  0.002  0.007  0.015
    7  0.006  0.002  0.007  0.015
    8  0.006  0.002  0.007  0.015
    9  0.000  0.002  0.007  0.009
   10  0.007  0.004  0.008  0.018
   11  0.009  0.007  0.006  0.022
   12  0.007  0.004  0.008  0.018
   13  0.009  0.007  0.006  0.022
   14  0.009  0.007  0.006  0.022
   15  0.028  0.002  0.009  0.039
   16  0.007  0.004  0.008  0.018
   17  0.028  0.002  0.009  0.039
   18  0.028  0.002  0.009  0.039
   19  0.006  0.003  0.005  0.015
   20  0.009  0.002  0.006  0.017
   21  0.009  0.002  0.006  0.017
   22  0.005  0.006  0.004  0.015
   23  0.009  0.002  0.006  0.017
   24  0.005  0.006  0.004  0.015
   25  0.006  0.003  0.005  0.015
   26  0.006  0.003  0.005  0.015
   27  0.005  0.006  0.004  0.015
   28  0.005  0.000  0.005  0.010
   29  0.007  0.000  0.004  0.011
   30  0.007  0.000  0.004  0.011
   31  0.007  0.000  0.004  0.011
   32  0.007  0.000  0.004  0.011
   33  0.007  0.000  0.004  0.011
   34  0.007  0.000  0.004  0.011
   35  0.003  0.000  0.003  0.007
   36  0.004  0.008  0.018  0.030
   37  0.007  0.005  0.000  0.012
   38  0.000  0.001  0.000  0.001
   39  0.000  0.000  0.000  0.000
tot    0.338  0.103  0.218  0.659
 
band    15 # energy   -5.12193612 # occ.  2.00000000
 
ion      s      p      d    tot
    1  0.007  0.000  0.008  0.014
    2  0.004  0.001  0.009  0.013
    3  0.004  0.001  0.009  0.013
    4  0.004  0.001  0.009  0.013
    5  0.000  0.002  0.008  0.011
    6  0.004  0.001  0.009  0.013
    7  0.004  0.001  0.009  0.013
    8  0.004  0.001  0.009  0.013
    9  0.014  0.000  0.006  0.020
   10  0.005  0.000  0.025  0.030
   11  0.012  0.001  0.020  0.033
   12  0.005  0.000  0.025  0.030
   13  0.012  0.001  0.020  0.033
   14  0.012  0.001  0.020  0.033
   15  0.001  0.000  0.020  0.022
   16  0.005  0.000  0.025  0.030
   17  0.001  0.000  0.020  0.022
   18  0.001  0.000  0.020  0.022
   19  0.003  0.000  0.020  0.023
   20  0.013  0.001  0.025  0.039
   21  0.013  0.001  0.025  0.039
   22  0.003  0.000  0.023  0.026
   23  0.013  0.001  0.025  0.039
   24  0.003  0.000  0.023  0.026
   25  0.003  0.000  0.020  0.023
   26  0.003  0.000  0.020  0.023
   27  0.003  0.000  0.023  0.026
   28  0.006  0.000  0.006  0.013
   29  0.004  0.001  0.008  0.013
   30  0.004  0.001  0.008  0.013
   31  0.004  0.001  0.008  0.013
   32  0.004  0.001  0.008  0.013
   33  0.004  0.001  0.008  0.013
   34  0.004  0.001  0.008  0.013
   35  0.014  0.000  0.006  0.020
   36  0.000  0.003  0.010  0.013
   37  0.000  0.000  0.000  0.000
   38  0.000  0.000  0.000  0.000
   39  0.000  0.000  0.000  0.000
tot    0.201  0.022  0.548  0.771
 
band    16 # energy   -5.10479597 # occ.  2.00000000
 
ion      s      p      d    tot
    1  0.036  0.003  0.000  0.039
    2  0.000  0.003  0.011  0.014
    3  0.000  0.003  0.010  0.014
    4  0.000  0.003  0.011  0.014
    5  0.000  0.000  0.000  0.000
    6  0.000  0.003  0.010  0.014
    7  0.000  0.003  0.010  0.014
    8  0.000  0.003  0.010  0.014
    9  0.029  0.003  0.001  0.033
   10  0.008  0.004  0.011  0.022
   11  0.001  0.000  0.015  0.016
   12  0.008  0.004  0.011  0.023
   13  0.001  0.000  0.015  0.016
   14  0.001  0.000  0.015  0.016
   15  0.006  0.003  0.019  0.028
   16  0.008  0.004  0.011  0.023
   17  0.006  0.003  0.019  0.028
   18  0.006  0.003  0.019  0.029
   19  0.005  0.004  0.016  0.026
   20  0.000  0.000  0.016  0.016
   21  0.000  0.000  0.016  0.016
   22  0.012  0.003  0.011  0.026
   23  0.000  0.000  0.016  0.016
   24  0.012  0.003  0.011  0.026
   25  0.006  0.004  0.017  0.026
   26  0.005  0.004  0.016  0.026
   27  0.012  0.003  0.010  0.026
   28  0.036  0.003  0.000  0.040
   29  0.000  0.003  0.010  0.012
   30  0.000  0.003  0.010  0.012
   31  0.000  0.003  0.010  0.012
   32  0.000  0.003  0.010  0.012
   33  0.000  0.003  0.010  0.012
   34  0.000  0.003  0.010  0.012
   35  0.026  0.004  0.002  0.031
   36  0.000  0.000  0.000  0.000
   37  0.000  0.000  0.000  0.000
   38  0.000  0.000  0.000  0.000
   39  0.000  0.000  0.000  0.000
tot    0.227  0.092  0.387  0.705
 
band    17 # energy   -5.10371162 # occ.  2.00000000
 
ion      s      p      d    tot
    1  0.000  0.002  0.010  0.012
    2  0.018  0.003  0.005  0.027
    3  0.000  0.001  0.005  0.007
    4  0.017  0.003  0.005  0.026
    5  0.000  0.006  0.009  0.015
    6  0.014  0.003  0.006  0.023
    7  0.000  0.001  0.005  0.007
    8  0.015  0.003  0.006  0.024
    9  0.000  0.001  0.013  0.014
   10  0.012  0.004  0.009  0.026
   11  0.005  0.002  0.022  0.029
   12  0.003  0.001  0.015  0.019
   13  0.004  0.002  0.023  0.029
   14  0.020  0.005  0.005  0.029
   15  0.000  0.003  0.017  0.020
   16  0.003  0.001  0.014  0.019
   17  0.000  0.003  0.018  0.021
   18  0.001  0.000  0.008  0.009
   19  0.000  0.003  0.017  0.020
   20  0.021  0.005  0.005  0.030
   21  0.005  0.002  0.025  0.032
   22  0.002  0.001  0.014  0.018
   23  0.006  0.002  0.024  0.032
   24  0.012  0.004  0.009  0.025
   25  0.001  0.000  0.007  0.009
   26  0.000  0.003  0.017  0.020
   27  0.003  0.002  0.014  0.018
   28  0.000  0.001  0.011  0.013
   29  0.016  0.003  0.005  0.025
   30  0.000  0.001  0.005  0.006
   31  0.015  0.003  0.005  0.024
   32  0.016  0.003  0.005  0.024
   33  0.000  0.001  0.005  0.006
   34  0.017  0.003  0.005  0.025
   35  0.000  0.002  0.009  0.010
   36  0.000  0.008  0.006  0.014
   37  0.000  0.000  0.000  0.000
   38  0.000  0.001  0.000  0.001
   39  0.000  0.000  0.000  0.000
tot    0.227  0.096  0.385  0.708
 
band    18 # energy   -5.10368014 # occ.  2.00000000
 
ion      s      p      d    tot
    1  0.000  0.002  0.010  0.012
    2  0.004  0.002  0.005  0.011
    3  0.022  0.004  0.006  0.031
    4  0.005  0.002  0.005  0.012
    5  0.000  0.006  0.009  0.015
    6  0.007  0.002  0.005  0.015
    7  0.021  0.004  0.006  0.031
    8  0.006  0.002  0.005  0.014
    9  0.000  0.001  0.013  0.014
   10  0.000  0.001  0.016  0.017
   11  0.014  0.004  0.011  0.029
   12  0.009  0.003  0.011  0.024
   13  0.015  0.004  0.010  0.029
   14  0.000  0.001  0.028  0.029
   15  0.001  0.001  0.011  0.013
   16  0.009  0.003  0.011  0.023
   17  0.001  0.001  0.011  0.012
   18  0.000  0.004  0.021  0.024
   19  0.001  0.001  0.011  0.013
   20  0.000  0.001  0.031  0.032
   21  0.016  0.004  0.011  0.031
   22  0.009  0.003  0.011  0.023
   23  0.015  0.004  0.012  0.031
   24  0.000  0.001  0.016  0.016
   25  0.000  0.004  0.020  0.023
   26  0.001  0.001  0.010  0.012
   27  0.008  0.003  0.011  0.023
   28  0.000  0.001  0.011  0.013
   29  0.005  0.002  0.005  0.012
   30  0.021  0.004  0.006  0.030
   31  0.006  0.002  0.005  0.013
   32  0.005  0.002  0.005  0.013
   33  0.021  0.004  0.006  0.030
   34  0.004  0.002  0.005  0.012
   35  0.000  0.002  0.009  0.010
   36  0.000  0.008  0.006  0.014
   37  0.000  0.000  0.000  0.000
   38  0.000  0.001  0.000  0.001
   39  0.000  0.000  0.000  0.000
tot    0.227  0.096  0.385  0.708
 
band    19 # energy   -5.08913743 # occ.  2.00000000
 
ion      s      p      d    tot
    1  0.000  0.004  0.012  0.016
    2  0.017  0.003  0.005  0.026
    3  0.000  0.002  0.005  0.007
    4  0.017  0.003  0.005  0.026
    5  0.000  0.000  0.012  0.012
    6  0.015  0.003  0.006  0.024
    7  0.000  0.002  0.005  0.007
    8  0.015  0.003  0.006  0.024
    9  0.000  0.005  0.008  0.013
   10  0.000  0.003  0.030  0.033
   11  0.001  0.001  0.011  0.014
   12  0.007  0.002  0.011  0.020
   13  0.001  0.001  0.011  0.014
   14  0.000  0.002  0.015  0.017
   15  0.014  0.004  0.011  0.030
   16  0.007  0.002  0.011  0.020
   17  0.014  0.005  0.011  0.030
   18  0.000  0.000  0.022  0.022
   19  0.017  0.004  0.010  0.031
   20  0.000  0.003  0.016  0.019
   21  0.001  0.002  0.012  0.015
   22  0.009  0.002  0.010  0.022
   23  0.001  0.002  0.012  0.015
   24  0.000  0.003  0.025  0.028
   25  0.000  0.000  0.023  0.023
   26  0.017  0.004  0.010  0.031
   27  0.009  0.002  0.011  0.022
   28  0.000  0.005  0.008  0.013
   29  0.015  0.003  0.005  0.023
   30  0.000  0.002  0.005  0.007
   31  0.015  0.003  0.005  0.023
   32  0.015  0.003  0.005  0.023
   33  0.000  0.002  0.005  0.007
   34  0.016  0.003  0.005  0.023
   35  0.000  0.004  0.010  0.014
   36  0.000  0.000  0.007  0.007
   37  0.000  0.000  0.000  0.000
   38  0.000  0.000  0.000  0.000
   39  0.000  0.000  0.000  0.000
tot    0.225  0.093  0.384  0.703
 
band    20 # energy   -5.08910985 # occ.  2.00000000
 
ion      s      p      d    tot
    1  0.000  0.004  0.012  0.016
    2  0.004  0.002  0.005  0.012
    3  0.022  0.004  0.006  0.031
    4  0.004  0.002  0.005  0.012
    5  0.000  0.000  0.012  0.012
    6  0.007  0.002  0.005  0.014
    7  0.022  0.004  0.006  0.031
    8  0.007  0.002  0.005  0.014
    9  0.000  0.005  0.008  0.013
   10  0.009  0.002  0.005  0.016
   11  0.000  0.002  0.013  0.016
   12  0.002  0.003  0.024  0.029
   13  0.000  0.002  0.013  0.016
   14  0.002  0.001  0.010  0.013
   15  0.005  0.002  0.018  0.025
   16  0.002  0.003  0.023  0.028
   17  0.005  0.002  0.019  0.025
   18  0.019  0.006  0.007  0.032
   19  0.006  0.001  0.019  0.026
   20  0.002  0.001  0.010  0.013
   21  0.000  0.002  0.015  0.018
   22  0.003  0.003  0.020  0.026
   23  0.000  0.002  0.015  0.018
   24  0.012  0.002  0.006  0.020
   25  0.023  0.005  0.006  0.034
   26  0.006  0.001  0.019  0.026
   27  0.003  0.003  0.020  0.026
   28  0.000  0.005  0.008  0.013
   29  0.005  0.002  0.005  0.012
   30  0.020  0.004  0.005  0.029
   31  0.005  0.002  0.005  0.013
   32  0.005  0.002  0.005  0.013
   33  0.020  0.004  0.005  0.029
   34  0.005  0.002  0.005  0.012
   35  0.000  0.004  0.010  0.014
   36  0.000  0.000  0.007  0.007
   37  0.000  0.000  0.000  0.000
   38  0.000  0.000  0.000  0.000
   39  0.000  0.000  0.000  0.000