PROCAR new format
# of k-points:   10         # of bands:  252         # of ions:   38

 k-point     1 :    0.00000000 0.00000000 0.00000000     weight = 0.01562500

band     1 # energy  -55.14265988 # occ.  2.00000000
 
ion      s      p      d    tot
    1  0.000  0.000  0.000  0.000
    2  0.000  0.000  0.000  0.000
    3  0.000  0.000  0.000  0.000
    4  0.000  0.000  0.000  0.000
    5  0.000  0.000  0.000  0.000
    6  0.000  0.000  0.000  0.000
    7  0.000  0.000  0.000  0.000
    8  0.000  0.000  0.000  0.000
    9  0.000  0.000  0.000  0.000
   10  0.000  0.000  0.000  0.000
   11  0.000  0.000  0.000  0.000
   12  0.000  0.000  0.000  0.000
   13  0.000  0.000  0.000  0.000
   14  0.000  0.000  0.000  0.000
   15  0.000  0.000  0.000  0.000
   16  0.000  0.000  0.000  0.000
   17  0.000  0.000  0.000  0.000
   18  0.000  0.000  0.000  0.000
   19  0.000  0.000  0.000  0.000
   20  0.000  0.000  0.000  0.000
   21  0.000  0.000  0.000  0.000
   22  0.000  0.000  0.000  0.000
   23  0.000  0.000  0.000  0.000
   24  0.000  0.000  0.000  0.000
   25  0.000  0.000  0.000  0.000
   26  0.000  0.000  0.000  0.000
   27  0.000  0.000  0.000  0.000
   28  0.000  0.000  0.000  0.000
   29  0.000  0.000  0.000  0.000
   30  0.000  0.000  0.000  0.000
   31  0.000  0.000  0.000  0.000
   32  0.000  0.000  0.000  0.000
   33  0.000  0.000  0.000  0.000
   34  0.000  0.000  0.000  0.000
   35  0.000  0.000  0.000  0.000
   36  0.992  0.000  0.000  0.992
   37  0.000  0.000  0.000  0.001
   38  0.000  0.000  0.000  0.000
tot    0.992  0.001  0.000  0.993
 
band     2 # energy  -31.61246618 # occ.  2.00000000
 
ion      s      p      d    tot
    1  0.000  0.000  0.000  0.000
    2  0.000  0.000  0.000  0.000
    3  0.000  0.000  0.000  0.000
    4  0.000  0.000  0.000  0.000
    5  0.000  0.000  0.000  0.000
    6  0.000  0.000  0.000  0.000
    7  0.000  0.000  0.000  0.000
    8  0.000  0.000  0.000  0.000
    9  0.000  0.000  0.000  0.000
   10  0.000  0.000  0.000  0.000
   11  0.000  0.000  0.000  0.000
   12  0.000  0.000  0.000  0.000
   13  0.000  0.000  0.000  0.000
   14  0.000  0.000  0.000  0.000
   15  0.000  0.000  0.000  0.000
   16  0.000  0.000  0.000  0.000
   17  0.000  0.000  0.000  0.000
   18  0.000  0.000  0.000  0.000
   19  0.000  0.000  0.000  0.000
   20  0.000  0.000  0.000  0.000
   21  0.000  0.000  0.000  0.000
   22  0.000  0.000  0.000  0.000
   23  0.000  0.000  0.000  0.000
   24  0.000  0.000  0.000  0.000
   25  0.000  0.000  0.000  0.000
   26  0.000  0.000  0.000  0.000
   27  0.000  0.000  0.000  0.000
   28  0.000  0.000  0.000  0.000
   29  0.000  0.000  0.000  0.000
   30  0.000  0.000  0.000  0.000
   31  0.000  0.000  0.000  0.000
   32  0.000  0.000  0.000  0.000
   33  0.000  0.000  0.000  0.000
   34  0.000  0.000  0.000  0.000
   35  0.000  0.000  0.000  0.000
   36  0.000  0.950  0.000  0.951
   37  0.016  0.006  0.000  0.022
   38  0.000  0.000  0.000  0.000
tot    0.016  0.957  0.001  0.974
 
band     3 # energy  -31.11467287 # occ.  2.00000000
 
ion      s      p      d    tot
    1  0.000  0.000  0.000  0.000
    2  0.000  0.000  0.000  0.000
    3  0.000  0.000  0.000  0.000
    4  0.000  0.000  0.000  0.000
    5  0.000  0.000  0.000  0.000
    6  0.000  0.000  0.000  0.000
    7  0.000  0.000  0.000  0.000
    8  0.000  0.000  0.000  0.000
    9  0.000  0.000  0.000  0.000
   10  0.000  0.000  0.000  0.000
   11  0.000  0.000  0.000  0.000
   12  0.000  0.000  0.000  0.000
   13  0.000  0.000  0.000  0.000
   14  0.000  0.000  0.000  0.000
   15  0.000  0.000  0.000  0.000
   16  0.000  0.000  0.000  0.000
   17  0.000  0.000  0.000  0.000
   18  0.000  0.000  0.000  0.000
   19  0.000  0.000  0.000  0.000
   20  0.000  0.000  0.000  0.000
   21  0.000  0.000  0.000  0.000
   22  0.000  0.000  0.000  0.000
   23  0.000  0.000  0.000  0.000
   24  0.000  0.000  0.000  0.000
   25  0.000  0.000  0.000  0.000
   26  0.000  0.000  0.000  0.000
   27  0.000  0.000  0.000  0.000
   28  0.000  0.000  0.000  0.000
   29  0.000  0.000  0.000  0.000
   30  0.000  0.000  0.000  0.001
   31  0.000  0.000  0.000  0.000
   32  0.000  0.000  0.000  0.000
   33  0.000  0.000  0.000  0.001
   34  0.000  0.000  0.000  0.000
   35  0.000  0.000  0.000  0.000
   36  0.000  0.971  0.000  0.971
   37  0.000  0.000  0.000  0.000
   38  0.000  0.000  0.000  0.000
tot    0.001  0.972  0.001  0.974
 
band     4 # energy  -31.11466437 # occ.  2.00000000
 
ion      s      p      d    tot
    1  0.000  0.000  0.000  0.000
    2  0.000  0.000  0.000  0.000
    3  0.000  0.000  0.000  0.000
    4  0.000  0.000  0.000  0.000
    5  0.000  0.000  0.000  0.000
    6  0.000  0.000  0.000  0.000
    7  0.000  0.000  0.000  0.000
    8  0.000  0.000  0.000  0.000
    9  0.000  0.000  0.000  0.000
   10  0.000  0.000  0.000  0.000
   11  0.000  0.000  0.000  0.000
   12  0.000  0.000  0.000  0.000
   13  0.000  0.000  0.000  0.000
   14  0.000  0.000  0.000  0.000
   15  0.000  0.000  0.000  0.000
   16  0.000  0.000  0.000  0.000
   17  0.000  0.000  0.000  0.000
   18  0.000  0.000  0.000  0.000
   19  0.000  0.000  0.000  0.000
   20  0.000  0.000  0.000  0.000
   21  0.000  0.000  0.000  0.000
   22  0.000  0.000  0.000  0.000
   23  0.000  0.000  0.000  0.000
   24  0.000  0.000  0.000  0.000
   25  0.000  0.000  0.000  0.000
   26  0.000  0.000  0.000  0.000
   27  0.000  0.000  0.000  0.000
   28  0.000  0.000  0.000  0.000
   29  0.000  0.000  0.000  0.001
   30  0.000  0.000  0.000  0.000
   31  0.000  0.000  0.000  0.001
   32  0.000  0.000  0.000  0.001
   33  0.000  0.000  0.000  0.000
   34  0.000  0.000  0.000  0.001
   35  0.000  0.000  0.000  0.000
   36  0.000  0.971  0.000  0.971
   37  0.000  0.000  0.000  0.000
   38  0.000  0.000  0.000  0.000
tot    0.001  0.972  0.001  0.974
 
band     5 # energy  -19.89219766 # occ.  2.00000000
 
ion      s      p      d    tot
    1  0.000  0.000  0.000  0.000
    2  0.000  0.000  0.000  0.000
    3  0.000  0.000  0.000  0.000
    4  0.000  0.000  0.000  0.000
    5  0.000  0.000  0.000  0.000
    6  0.000  0.000  0.000  0.000
    7  0.000  0.000  0.000  0.000
    8  0.000  0.000  0.000  0.000
    9  0.000  0.000  0.000  0.000
   10  0.000  0.000  0.000  0.000
   11  0.000  0.000  0.000  0.000
   12  0.000  0.000  0.000  0.000
   13  0.000  0.000  0.000  0.000
   14  0.000  0.000  0.000  0.000
   15  0.000  0.000  0.000  0.000
   16  0.000  0.000  0.000  0.000
   17  0.000  0.000  0.000  0.000
   18  0.000  0.000  0.000  0.000
   19  0.000  0.000  0.000  0.000
   20  0.000  0.000  0.000  0.000
   21  0.000  0.000  0.000  0.000
   22  0.000  0.000  0.000  0.000
   23  0.000  0.000  0.000  0.000
   24  0.000  0.000  0.000  0.000
   25  0.000  0.000  0.000  0.000
   26  0.000  0.000  0.000  0.000
   27  0.000  0.000  0.000  0.000
   28  0.000  0.000  0.000  0.000
   29  0.000  0.000  0.000  0.000
   30  0.000  0.000  0.000  0.000
   31  0.000  0.000  0.000  0.000
   32  0.000  0.000  0.000  0.000
   33  0.000  0.000  0.000  0.000
   34  0.000  0.000  0.000  0.000
   35  0.000  0.000  0.000  0.000
   36  0.004  0.019  0.011  0.034
   37  0.728  0.020  0.000  0.748
   38  0.119  0.024  0.000  0.143
tot    0.851  0.064  0.011  0.926
 
band     6 # energy   -8.44700063 # occ.  2.00000000
 
ion      s      p      d    tot
    1  0.002  0.000  0.000  0.002
    2  0.002  0.000  0.000  0.002
    3  0.002  0.000  0.000  0.002
    4  0.002  0.000  0.000  0.002
    5  0.002  0.000  0.000  0.002
    6  0.002  0.000  0.000  0.002
    7  0.002  0.000  0.000  0.002
    8  0.002  0.000  0.000  0.002
    9  0.002  0.000  0.000  0.002
   10  0.008  0.000  0.000  0.008
   11  0.008  0.000  0.000  0.008
   12  0.008  0.000  0.000  0.008
   13  0.008  0.000  0.000  0.008
   14  0.008  0.000  0.000  0.008
   15  0.007  0.000  0.000  0.007
   16  0.008  0.000  0.000  0.008
   17  0.007  0.000  0.000  0.007
   18  0.007  0.000  0.000  0.007
   19  0.010  0.000  0.000  0.010
   20  0.015  0.000  0.000  0.016
   21  0.015  0.000  0.000  0.016
   22  0.010  0.000  0.000  0.010
   23  0.015  0.000  0.000  0.016
   24  0.010  0.000  0.000  0.010
   25  0.010  0.000  0.000  0.010
   26  0.010  0.000  0.000  0.010
   27  0.010  0.000  0.000  0.010
   28  0.003  0.000  0.000  0.003
   29  0.003  0.000  0.000  0.004
   30  0.003  0.000  0.000  0.004
   31  0.003  0.000  0.000  0.004
   32  0.003  0.000  0.000  0.004
   33  0.003  0.000  0.000  0.004
   34  0.003  0.000  0.000  0.004
   35  0.003  0.000  0.000  0.003
   36  0.023  0.008  0.059  0.090
   37  0.017  0.325  0.000  0.342
   38  0.108  0.011  0.000  0.119
tot    0.364  0.350  0.061  0.775
 
band     7 # energy   -8.19323009 # occ.  2.00000000
 
ion      s      p      d    tot
    1  0.005  0.001  0.000  0.006
    2  0.005  0.001  0.000  0.006
    3  0.005  0.001  0.000  0.006
    4  0.005  0.001  0.000  0.006
    5  0.005  0.001  0.000  0.006
    6  0.005  0.001  0.000  0.006
    7  0.005  0.001  0.000  0.006
    8  0.005  0.001  0.000  0.006
    9  0.005  0.001  0.000  0.006
   10  0.017  0.000  0.000  0.018
   11  0.017  0.000  0.000  0.017
   12  0.017  0.000  0.000  0.018
   13  0.017  0.000  0.000  0.017
   14  0.017  0.000  0.000  0.017
   15  0.017  0.000  0.000  0.018
   16  0.017  0.000  0.000  0.018
   17  0.017  0.000  0.000  0.018
   18  0.017  0.000  0.000  0.018
   19  0.016  0.000  0.000  0.016
   20  0.010  0.001  0.000  0.011
   21  0.010  0.001  0.000  0.011
   22  0.015  0.000  0.000  0.015
   23  0.010  0.001  0.000  0.011
   24  0.015  0.000  0.000  0.015
   25  0.016  0.000  0.000  0.016
   26  0.016  0.000  0.000  0.016
   27  0.015  0.000  0.000  0.015
   28  0.004  0.000  0.000  0.005
   29  0.003  0.000  0.000  0.004
   30  0.003  0.000  0.000  0.004
   31  0.003  0.000  0.000  0.004
   32  0.003  0.000  0.000  0.004
   33  0.003  0.000  0.000  0.004
   34  0.003  0.000  0.000  0.004
   35  0.004  0.000  0.000  0.004
   36  0.003  0.011  0.042  0.055
   37  0.013  0.203  0.000  0.216
   38  0.067  0.007  0.000  0.073
tot    0.431  0.232  0.044  0.707
 
band     8 # energy   -6.99544920 # occ.  2.00000000
 
ion      s      p      d    tot
    1  0.017  0.001  0.000  0.019
    2  0.017  0.001  0.000  0.019
    3  0.017  0.001  0.000  0.019
    4  0.017  0.001  0.000  0.019
    5  0.018  0.001  0.000  0.019
    6  0.017  0.001  0.000  0.019
    7  0.017  0.001  0.000  0.019
    8  0.017  0.001  0.000  0.019
    9  0.017  0.001  0.000  0.018
   10  0.010  0.002  0.001  0.012
   11  0.010  0.002  0.000  0.013
   12  0.010  0.002  0.001  0.012
   13  0.010  0.002  0.000  0.013
   14  0.010  0.002  0.000  0.013
   15  0.009  0.002  0.001  0.012
   16  0.010  0.002  0.001  0.012
   17  0.009  0.002  0.001  0.012
   18  0.009  0.002  0.001  0.012
   19  0.011  0.002  0.000  0.014
   20  0.008  0.002  0.001  0.010
   21  0.008  0.002  0.001  0.010
   22  0.011  0.002  0.000  0.013
   23  0.008  0.002  0.001  0.010
   24  0.011  0.002  0.000  0.013
   25  0.011  0.002  0.000  0.014
   26  0.011  0.002  0.000  0.014
   27  0.011  0.002  0.000  0.013
   28  0.021  0.001  0.001  0.023
   29  0.019  0.001  0.001  0.021
   30  0.019  0.001  0.001  0.021
   31  0.019  0.001  0.001  0.021
   32  0.019  0.001  0.001  0.021
   33  0.019  0.001  0.001  0.021
   34  0.019  0.001  0.001  0.021
   35  0.021  0.001  0.001  0.022
   36  0.005  0.001  0.005  0.012
   37  0.001  0.004  0.000  0.005
   38  0.001  0.000  0.000  0.001
tot    0.497  0.058  0.025  0.579
 
band     9 # energy   -5.44311855 # occ.  2.00000000
 
ion      s      p      d    tot
    1  0.015  0.000  0.005  0.021
    2  0.015  0.000  0.005  0.020
    3  0.015  0.000  0.005  0.020
    4  0.015  0.000  0.005  0.020
    5  0.009  0.000  0.006  0.015
    6  0.015  0.000  0.005  0.020
    7  0.015  0.000  0.005  0.020
    8  0.015  0.000  0.005  0.020
    9  0.022  0.000  0.004  0.027
   10  0.003  0.004  0.002  0.009
   11  0.008  0.005  0.001  0.013
   12  0.003  0.004  0.002  0.008
   13  0.008  0.005  0.001  0.013
   14  0.008  0.004  0.001  0.013
   15  0.000  0.003  0.003  0.006
   16  0.003  0.004  0.002  0.008
   17  0.000  0.003  0.003  0.006
   18  0.000  0.003  0.003  0.006
   19  0.003  0.003  0.005  0.010
   20  0.016  0.004  0.004  0.023
   21  0.016  0.004  0.004  0.023
   22  0.001  0.003  0.004  0.008
   23  0.016  0.004  0.004  0.023
   24  0.001  0.003  0.004  0.008
   25  0.003  0.003  0.005  0.010
   26  0.003  0.003  0.005  0.010
   27  0.001  0.003  0.004  0.008
   28  0.019  0.000  0.006  0.026
   29  0.017  0.000  0.008  0.026
   30  0.017  0.000  0.008  0.026
   31  0.017  0.000  0.008  0.026
   32  0.017  0.000  0.008  0.026
   33  0.017  0.000  0.008  0.026
   34  0.017  0.000  0.008  0.026
   35  0.025  0.000  0.006  0.032
   36  0.004  0.001  0.009  0.014
   37  0.000  0.001  0.000  0.001
   38  0.000  0.000  0.000  0.001
tot    0.385  0.066  0.171  0.623
 
band    10 # energy   -5.34126098 # occ.  2.00000000
 
ion      s      p      d    tot
    1  0.000  0.003  0.005  0.008
    2  0.008  0.002  0.002  0.012
    3  0.004  0.001  0.002  0.007
    4  0.008  0.002  0.002  0.012
    5  0.000  0.001  0.002  0.003
    6  0.001  0.001  0.002  0.003
    7  0.004  0.001  0.002  0.007
    8  0.001  0.001  0.002  0.003
    9  0.000  0.000  0.003  0.003
   10  0.056  0.003  0.005  0.064
   11  0.002  0.009  0.003  0.014
   12  0.014  0.005  0.010  0.028
   13  0.002  0.009  0.003  0.014
   14  0.008  0.000  0.006  0.014
   15  0.005  0.002  0.010  0.017
   16  0.014  0.005  0.010  0.028
   17  0.005  0.002  0.010  0.017
   18  0.021  0.004  0.002  0.027
   19  0.012  0.008  0.006  0.027
   20  0.050  0.005  0.004  0.059
   21  0.013  0.001  0.015  0.029
   22  0.000  0.008  0.004  0.012
   23  0.012  0.001  0.016  0.029
   24  0.000  0.001  0.005  0.006
   25  0.050  0.001  0.007  0.058
   26  0.013  0.008  0.006  0.027
   27  0.000  0.008  0.004  0.012
   28  0.000  0.004  0.005  0.009
   29  0.010  0.003  0.003  0.016
   30  0.010  0.002  0.004  0.016
   31  0.010  0.003  0.003  0.016
   32  0.000  0.001  0.004  0.005
   33  0.010  0.002  0.004  0.016
   34  0.000  0.001  0.004  0.005
   35  0.000  0.001  0.003  0.003
   36  0.000  0.001  0.010  0.011
   37  0.000  0.002  0.000  0.002
   38  0.000  0.000  0.000  0.000
tot    0.342  0.112  0.185  0.639
 
band    11 # energy   -5.34105801 # occ.  2.00000000
 
ion      s      p      d    tot
    1  0.000  0.003  0.005  0.008
    2  0.000  0.001  0.002  0.003
    3  0.004  0.001  0.002  0.008
    4  0.001  0.001  0.002  0.003
    5  0.000  0.001  0.002  0.003
    6  0.008  0.002  0.002  0.012
    7  0.004  0.001  0.002  0.008
    8  0.008  0.002  0.002  0.012
    9  0.000  0.000  0.003  0.003
   10  0.000  0.005  0.011  0.016
   11  0.006  0.003  0.005  0.014
   12  0.042  0.004  0.006  0.052
   13  0.006  0.003  0.005  0.014
   14  0.000  0.012  0.002  0.014
   15  0.015  0.003  0.005  0.023
   16  0.042  0.004  0.006  0.052
   17  0.015  0.003  0.005  0.023
   18  0.000  0.001  0.012  0.013
   19  0.037  0.004  0.007  0.048
   20  0.000  0.000  0.019  0.019
   21  0.037  0.003  0.008  0.049
   22  0.000  0.003  0.005  0.008
   23  0.038  0.003  0.008  0.049
   24  0.000  0.010  0.004  0.014
   25  0.000  0.011  0.006  0.017
   26  0.037  0.004  0.007  0.047
   27  0.000  0.003  0.005  0.008
   28  0.000  0.004  0.005  0.009
   29  0.003  0.001  0.004  0.008
   30  0.003  0.002  0.004  0.009
   31  0.003  0.001  0.004  0.008
   32  0.013  0.003  0.003  0.020
   33  0.003  0.002  0.004  0.009
   34  0.013  0.003  0.003  0.020
   35  0.000  0.001  0.003  0.003
   36  0.000  0.001  0.010  0.011
   37  0.000  0.002  0.000  0.002
   38  0.000  0.000  0.000  0.000
tot    0.342  0.112  0.185  0.639
 
band    12 # energy   -5.30296357 # occ.  2.00000000
 
ion      s      p      d    tot
    1  0.000  0.000  0.002  0.002
    2  0.008  0.002  0.002  0.013
    3  0.005  0.002  0.002  0.008
    4  0.008  0.002  0.002  0.013
    5  0.000  0.002  0.005  0.007
    6  0.001  0.001  0.002  0.003
    7  0.004  0.001  0.002  0.008
    8  0.001  0.001  0.002  0.003
    9  0.000  0.003  0.004  0.006
   10  0.000  0.007  0.006  0.013
   11  0.038  0.004  0.006  0.048
   12  0.001  0.003  0.004  0.009
   13  0.037  0.003  0.006  0.046
   14  0.000  0.000  0.015  0.016
   15  0.026  0.003  0.006  0.035
   16  0.001  0.003  0.004  0.009
   17  0.026  0.004  0.006  0.035
   18  0.000  0.011  0.004  0.015
   19  0.012  0.003  0.005  0.021
   20  0.000  0.015  0.001  0.016
   21  0.013  0.004  0.006  0.023
   22  0.047  0.004  0.006  0.057
   23  0.014  0.004  0.006  0.023
   24  0.000  0.004  0.014  0.018
   25  0.000  0.003  0.013  0.016
   26  0.011  0.004  0.005  0.020
   27  0.050  0.004  0.006  0.060
   28  0.000  0.000  0.004  0.005
   29  0.011  0.003  0.003  0.017
   30  0.007  0.002  0.004  0.013
   31  0.011  0.003  0.003  0.017
   32  0.001  0.001  0.004  0.005
   33  0.007  0.002  0.004  0.013
   34  0.001  0.001  0.004  0.005
   35  0.000  0.004  0.006  0.010
   36  0.000  0.001  0.007  0.008
   37  0.000  0.001  0.000  0.001
   38  0.000  0.000  0.000  0.000
tot    0.341  0.115  0.180  0.636
 
band    13 # energy   -5.30285612 # occ.  2.00000000
 
ion      s      p      d    tot
    1  0.011  0.002  0.001  0.014
    2  0.000  0.002  0.003  0.004
    3  0.002  0.002  0.004  0.008
    4  0.000  0.002  0.003  0.005
    5  0.001  0.001  0.003  0.005
    6  0.004  0.001  0.002  0.007
    7  0.002  0.002  0.004  0.009
    8  0.004  0.001  0.002  0.007
    9  0.004  0.002  0.002  0.008
   10  0.010  0.007  0.002  0.019
   11  0.018  0.001  0.012  0.031
   12  0.019  0.004  0.007  0.030
   13  0.020  0.001  0.012  0.033
   14  0.009  0.001  0.007  0.017
   15  0.000  0.009  0.002  0.011
   16  0.019  0.005  0.007  0.030
   17  0.000  0.009  0.002  0.011
   18  0.040  0.003  0.009  0.051
   19  0.024  0.004  0.006  0.034
   20  0.010  0.002  0.017  0.029
   21  0.001  0.007  0.003  0.011
   22  0.041  0.002  0.009  0.052
   23  0.001  0.007  0.003  0.011
   24  0.004  0.005  0.008  0.017
   25  0.001  0.012  0.002  0.015
   26  0.025  0.004  0.006  0.034
   27  0.038  0.002  0.010  0.049
   28  0.010  0.002  0.002  0.014
   29  0.000  0.002  0.006  0.008
   30  0.002  0.002  0.004  0.008
   31  0.001  0.002  0.006  0.009
   32  0.006  0.001  0.003  0.010
   33  0.003  0.002  0.004  0.009
   34  0.006  0.001  0.003  0.010
   35  0.007  0.003  0.003  0.013
   36  0.000  0.001  0.003  0.004
   37  0.000  0.000  0.000  0.000
   38  0.000  0.000  0.000  0.000
tot    0.342  0.114  0.181  0.638
 
band    14 # energy   -5.30270262 # occ.  2.00000000
 
ion      s      p      d    tot
    1  0.010  0.002  0.002  0.013
    2  0.000  0.001  0.003  0.004
    3  0.003  0.001  0.002  0.005
    4  0.000  0.001  0.003  0.004
    5  0.001  0.001  0.003  0.005
    6  0.004  0.003  0.004  0.011
    7  0.003  0.001  0.002  0.005
    8  0.004  0.003  0.004  0.011
    9  0.003  0.002  0.002  0.008
   10  0.021  0.001  0.007  0.029
   11  0.001  0.000  0.012  0.013
   12  0.011  0.008  0.004  0.023
   13  0.001  0.000  0.012  0.013
   14  0.048  0.003  0.007  0.058
   15  0.018  0.007  0.006  0.032
   16  0.011  0.008  0.004  0.023
   17  0.018  0.007  0.006  0.032
   18  0.005  0.006  0.001  0.011
   19  0.004  0.009  0.006  0.019
   20  0.008  0.001  0.001  0.010
   21  0.003  0.007  0.010  0.021
   22  0.000  0.004  0.011  0.015
   23  0.003  0.007  0.010  0.021
   24  0.084  0.001  0.005  0.089
   25  0.039  0.001  0.003  0.043
   26  0.004  0.009  0.006  0.019
   27  0.000  0.004  0.011  0.015
   28  0.010  0.002  0.002  0.013
   29  0.001  0.001  0.003  0.005
   30  0.003  0.001  0.004  0.008
   31  0.001  0.001  0.003  0.005
   32  0.006  0.004  0.005  0.015
   33  0.003  0.001  0.004  0.008
   34  0.006  0.004  0.005  0.015
   35  0.006  0.003  0.004  0.013
   36  0.000  0.001  0.004  0.004
   37  0.000  0.000  0.000  0.000
   38  0.000  0.000  0.000  0.000
tot    0.342  0.114  0.181  0.638
 
band    15 # energy   -5.20895531 # occ.  2.00000000
 
ion      s      p      d    tot
    1  0.000  0.000  0.000  0.001
    2  0.001  0.002  0.005  0.009
    3  0.001  0.002  0.005  0.009
    4  0.001  0.002  0.005  0.009
    5  0.034  0.003  0.000  0.037
    6  0.001  0.002  0.005  0.009
    7  0.001  0.002  0.005  0.009
    8  0.001  0.002  0.005  0.009
    9  0.007  0.002  0.003  0.012
   10  0.001  0.004  0.010  0.015
   11  0.022  0.010  0.003  0.034
   12  0.001  0.004  0.010  0.015
   13  0.022  0.010  0.003  0.034
   14  0.022  0.010  0.003  0.035
   15  0.029  0.002  0.011  0.042
   16  0.001  0.004  0.010  0.015
   17  0.029  0.002  0.011  0.042
   18  0.029  0.002  0.011  0.042
   19  0.006  0.001  0.010  0.017
   20  0.021  0.004  0.007  0.032
   21  0.021  0.004  0.007  0.032
   22  0.010  0.007  0.004  0.021
   23  0.021  0.004  0.007  0.032
   24  0.010  0.007  0.004  0.021
   25  0.006  0.001  0.010  0.017
   26  0.006  0.001  0.010  0.017
   27  0.010  0.007  0.004  0.021
   28  0.000  0.000  0.002  0.003
   29  0.002  0.001  0.003  0.006
   30  0.002  0.001  0.004  0.006
   31  0.002  0.001  0.003  0.006
   32  0.002  0.001  0.003  0.006
   33  0.002  0.001  0.004  0.006
   34  0.002  0.001  0.003  0.006
   35  0.001  0.001  0.001  0.003
   36  0.006  0.002  0.001  0.009
   37  0.001  0.002  0.000  0.002
   38  0.001  0.000  0.000  0.001
tot    0.334  0.112  0.196  0.642
 
band    16 # energy   -4.61836265 # occ.  2.00000000
 
ion      s      p      d    tot
    1  0.000  0.003  0.009  0.012
    2  0.017  0.003  0.005  0.025
    3  0.001  0.001  0.004  0.006
    4  0.017  0.003  0.005  0.025
    5  0.000  0.000  0.009  0.009
    6  0.010  0.003  0.005  0.018
    7  0.001  0.002  0.004  0.007
    8  0.011  0.003  0.005  0.019
    9  0.000  0.005  0.008  0.013
   10  0.000  0.005  0.014  0.019
   11  0.005  0.002  0.009  0.015
   12  0.006  0.002  0.008  0.016
   13  0.005  0.002  0.008  0.015
   14  0.000  0.002  0.015  0.017
   15  0.021  0.003  0.008  0.032
   16  0.006  0.002  0.008  0.016
   17  0.022  0.003  0.008  0.033
   18  0.000  0.001  0.020  0.021
   19  0.006  0.005  0.010  0.021
   20  0.000  0.002  0.020  0.023
   21  0.000  0.001  0.013  0.014
   22  0.006  0.003  0.009  0.018
   23  0.000  0.001  0.013  0.014
   24  0.000  0.001  0.029  0.031
   25  0.000  0.000  0.010  0.010
   26  0.007  0.005  0.010  0.021
   27  0.006  0.003  0.010  0.019
   28  0.000  0.004  0.008  0.012
   29  0.024  0.003  0.010  0.037
   30  0.000  0.002  0.010  0.012
   31  0.023  0.003  0.010  0.036
   32  0.017  0.002  0.011  0.030
   33  0.001  0.002  0.010  0.012
   34  0.019  0.002  0.011  0.032
   35  0.000  0.006  0.009  0.015
   36  0.000  0.000  0.021  0.021
   37  0.000  0.002  0.000  0.002
   38  0.000  0.000  0.000  0.000
tot    0.231  0.092  0.374  0.697
 
band    17 # energy   -4.61835906 # occ.  2.00000000
 
ion      s      p      d    tot
    1  0.000  0.003  0.009  0.012
    2  0.002  0.002  0.005  0.008
    3  0.018  0.004  0.005  0.027
    4  0.002  0.002  0.005  0.008
    5  0.000  0.000  0.009  0.009
    6  0.009  0.002  0.004  0.016
    7  0.018  0.004  0.005  0.026
    8  0.008  0.002  0.004  0.015
    9  0.000  0.005  0.008  0.013
   10  0.008  0.001  0.006  0.015
   11  0.002  0.002  0.012  0.016
   12  0.002  0.004  0.012  0.018
   13  0.001  0.002  0.013  0.016
   14  0.006  0.002  0.006  0.015
   15  0.008  0.002  0.016  0.025
   16  0.002  0.004  0.012  0.018
   17  0.007  0.001  0.016  0.024
   18  0.028  0.004  0.004  0.037
   19  0.002  0.002  0.010  0.014
   20  0.000  0.000  0.010  0.011
   21  0.000  0.002  0.018  0.020
   22  0.002  0.002  0.023  0.027
   23  0.000  0.002  0.018  0.019
   24  0.008  0.004  0.002  0.014
   25  0.009  0.006  0.010  0.024
   26  0.002  0.001  0.010  0.013
   27  0.002  0.002  0.022  0.026
   28  0.000  0.004  0.008  0.012
   29  0.004  0.002  0.010  0.016
   30  0.028  0.003  0.011  0.041
   31  0.005  0.002  0.010  0.017
   32  0.010  0.003  0.010  0.023
   33  0.027  0.003  0.011  0.041
   34  0.009  0.003  0.010  0.021
   35  0.000  0.006  0.009  0.015
   36  0.000  0.000  0.021  0.021
   37  0.000  0.002  0.000  0.002
   38  0.000  0.000  0.000  0.000
tot    0.231  0.092  0.374  0.697
 
band    18 # energy   -4.58775424 # occ.  2.00000000
 
ion      s      p      d    tot
    1  0.004  0.001  0.010  0.015
    2  0.006  0.001  0.010  0.016
    3  0.006  0.001  0.010  0.016
    4  0.006  0.001  0.010  0.016
    5  0.002  0.001  0.010  0.013
    6  0.006  0.001  0.010  0.016
    7  0.006  0.001  0.010  0.016
    8  0.006  0.001  0.010  0.016
    9  0.015  0.000  0.008  0.023
   10  0.009  0.000  0.025  0.034
   11  0.010  0.000  0.022  0.032
   12  0.009  0.000  0.025  0.034
   13  0.010  0.000  0.022  0.032
   14  0.010  0.000  0.022  0.032
   15  0.003  0.000  0.022  0.026
   16  0.009  0.000  0.025  0.034
   17  0.003  0.000  0.022  0.026
   18  0.003  0.000  0.023  0.026
   19  0.005  0.000  0.019  0.025
   20  0.008  0.001  0.027  0.036
   21  0.008  0.001  0.027  0.036
   22  0.003  0.000  0.019  0.022
   23  0.008  0.001  0.027  0.036
   24  0.003  0.000  0.019  0.022
   25  0.005  0.000  0.019  0.025
   26  0.005  0.000  0.019  0.025
   27  0.003  0.000  0.019  0.022
   28  0.001  0.001  0.006  0.008
   29  0.003  0.001  0.008  0.012
   30  0.003  0.000  0.008  0.012
   31  0.003  0.001  0.008  0.012
   32  0.003  0.000  0.008  0.012
   33  0.003  0.000  0.008  0.012
   34  0.003  0.000  0.008  0.012
   35  0.008  0.000  0.006  0.014
   36  0.001  0.001  0.005  0.007
   37  0.000  0.001  0.000  0.001
   38  0.000  0.000  0.000  0.000
tot    0.204  0.014  0.555  0.773
 
band    19 # energy   -4.56129148 # occ.  2.00000000
 
ion      s      p      d    tot
    1  0.000  0.003  0.009  0.012
    2  0.020  0.004  0.005  0.029
    3  0.001  0.002  0.005  0.008
    4  0.020  0.004  0.005  0.029
    5  0.000  0.006  0.010  0.015
    6  0.010  0.003  0.005  0.018
    7  0.002  0.002  0.005  0.009
    8  0.011  0.003  0.005  0.020
    9  0.000  0.000  0.012  0.012
   10  0.020  0.005  0.007  0.032
   11  0.005  0.003  0.019  0.027
   12  0.005  0.001  0.017  0.023
   13  0.004  0.003  0.020  0.027
   14  0.019  0.003  0.005  0.027
   15  0.000  0.003  0.013  0.016
   16  0.006  0.001  0.017  0.024
   17  0.000  0.003  0.014  0.017
   18  0.000  0.000  0.008  0.009
   19  0.001  0.002  0.018  0.020
   20  0.018  0.006  0.005  0.028
   21  0.004  0.002  0.027  0.033
   22  0.001  0.001  0.010  0.013
   23  0.005  0.002  0.025  0.032
   24  0.005  0.003  0.011  0.018
   25  0.003  0.001  0.005  0.009
   26  0.001  0.002  0.019  0.021
   27  0.001  0.001  0.010  0.013
   28  0.000  0.002  0.010  0.012
   29  0.014  0.004  0.008  0.025
   30  0.000  0.001  0.005  0.007
   31  0.014  0.003  0.007  0.025
   32  0.008  0.003  0.008  0.019
   33  0.001  0.001  0.005  0.007
   34  0.009  0.003  0.008  0.020
   35  0.000  0.000  0.009  0.010
   36  0.000  0.002  0.020  0.022
   37  0.000  0.015  0.000  0.015
   38  0.000  0.000  0.000  0.000
tot    0.209  0.102  0.394  0.705
 
band    20 # energy   -4.56127255 # occ.  2.00000000
 
ion      s      p      d    tot
    1  0.000  0.003  0.009  0.012
    2  0.001  0.002  0.005  0.008
    3  0.020  0.004  0.005  0.030
    4  0.002  0.002  0.005  0.009
    5  0.000  0.006  0.010  0.015
    6  0.012  0.003  0.005  0.019
    7  0.020  0.004  0.005  0.029
    8  0.010  0.003  0.005  0.018
    9  0.000  0.000  0.012  0.012
   10  0.000  0.000  0.020  0.021
   11  0.014  0.003  0.010  0.027
   12  0.016  0.004  0.010  0.030
   13  0.015  0.003  0.009  0.027
   14  0.000  0.003  0.024  0.027
   15  0.000  0.001  0.010  0.012
   16  0.015  0.003  0.011  0.029
   17  0.000  0.001  0.010  0.011
   18  0.000  0.004  0.015  0.019
   19  0.002  0.001  0.010  0.013
   20  0.000  0.001  0.033  0.034
   21  0.014  0.005  0.011  0.030
   22  0.004  0.002  0.011  0.017
   23  0.013  0.005  0.012  0.030
   24  0.000  0.001  0.010  0.011
   25  0.000  0.002  0.023  0.025
   26  0.002  0.001  0.009  0.012
   27  0.004  0.002  0.011  0.016
   28  0.000  0.002  0.010  0.012
   29  0.001  0.001  0.007  0.009
   30  0.015  0.004  0.009  0.028
   31  0.002  0.001  0.007  0.010
   32  0.007  0.002  0.006  0.016
   33  0.015  0.004  0.009  0.027
   34  0.007  0.002  0.006  0.014
   35  0.000  0.000  0.009  0.010
   36  0.000  0.002  0.020  0.022
   37  0.000  0.015  0.000  0.015
   38  0.000  0.000  0.000  0.000
tot    0.209  0.102  0.394  0.705
 
band    21 # energy   -4.54881781 # occ.  2.00000000
 
ion      s      p      d    tot
    1  0.034  0.003  0.000  0.037
    2  0.000  0.003  0.010  0.013
    3  0.000  0.003  0.010  0.013
    4  0.000  0.003  0.010  0.013
    5  0.000  0.000  0.001  0.001
    6  0.000  0.003  0.010  0.013
    7  0.000  0.003  0.010  0.013
    8  0.000  0.003  0.010  0.013
    9  0.027  0.004  0.001  0.031
   10  0.008  0.003  0.010  0.022
   11  0.001  0.000  0.015  0.017
   12  0.008  0.003  0.010  0.022
   13  0.001  0.000  0.015  0.017
   14  0.002  0.000  0.015  0.017
   15  0.008  0.003  0.015  0.027
   16  0.008  0.003  0.010  0.022