 vasp.6.2.0 18Jan21 (build Jun 12 2021 23:27:24) complex                        
  
 executed on             LinuxIFC date 2022.05.30  17:54:07
 running on   28 total cores
 distrk:  each k-point on   28 cores,    1 groups
 distr:  one band on NCORE=   1 cores,   28 groups


--------------------------------------------------------------------------------------------------------


 INCAR:
   ISMEAR = -5
   SIGMA = 0.1
   ISPIN = 1
   EDIFF = 1.d-5
   EDIFFG = -0.01
   NSW = 0
   NELM = 150
   ENCUT = 500
   ISIF = 2
   IBRION = 2
   LREAL = Auto
   ALGO = Fast
   ICHARG = 11
   LORBIT = 10
   LCHARG = .F.
   LWAVE = .F.

 POTCAR:    PAW_PBE Cu 22Jun2005                  
 POTCAR:    PAW_PBE V 08Apr2002                   
 POTCAR:    PAW_PBE C 08Apr2002                   
 -----------------------------------------------------------------------------
|                                                                             |
|           W    W    AA    RRRRR   N    N  II  N    N   GGGG   !!!           |
|           W    W   A  A   R    R  NN   N  II  NN   N  G    G  !!!           |
|           W    W  A    A  R    R  N N  N  II  N N  N  G       !!!           |
|           W WW W  AAAAAA  RRRRR   N  N N  II  N  N N  G  GGG   !            |
|           WW  WW  A    A  R   R   N   NN  II  N   NN  G    G                |
|           W    W  A    A  R    R  N    N  II  N    N   GGGG   !!!           |
|                                                                             |
|     For optimal performance we recommend to set                             |
|       NCORE = 2 up to number-of-cores-per-socket                            |
|     NCORE specifies how many cores store one orbital (NPAR=cpu/NCORE).      |
|     This setting can greatly improve the performance of VASP for DFT.       |
|     The default, NCORE=1 might be grossly inefficient on modern             |
|     multi-core architectures or massively parallel machines. Do your        |
|     own testing! More info at https://www.vasp.at/wiki/index.php/NCORE      |
|     Unfortunately you need to use the default for GW and RPA                |
|     calculations (for HF NCORE is supported but not extensively tested      |
|     yet).                                                                   |
|                                                                             |
 -----------------------------------------------------------------------------

 POTCAR:    PAW_PBE Cu 22Jun2005                  
   VRHFIN =Cu: d10 p1                                                                               
   LEXCH  = PE                                                                                      
   EATOM  =  1390.9808 eV,  102.2342 Ry                                                             
                                                                                                    
   TITEL  = PAW_PBE Cu 22Jun2005                                                                    
   LULTRA =        F    use ultrasoft PP ?                                                          
   IUNSCR =        1    unscreen: 0-lin 1-nonlin 2-no                                               
   RPACOR =    2.000    partial core radius                                                         
   POMASS =   63.546; ZVAL   =   11.000    mass and valenz                                          
   RCORE  =    2.300    outmost cutoff radius                                                       
   RWIGS  =    2.200; RWIGS  =    1.164    wigner-seitz radius (au A)                               
   ENMAX  =  295.446; ENMIN  =  221.585 eV                                                          
   ICORE  =        3    local potential                                                             
   LCOR   =        T    correct aug charges                                                         
   LPAW   =        T    paw PP                                                                      
   EAUG   =  586.980                                                                                
   DEXC   =    0.000                                                                                
   RMAX   =    2.344    core radius for proj-oper                                                   
   RAUG   =    1.300    factor for augmentation sphere                                              
   RDEP   =    2.302    radius for radial grids                                                     
   RDEPT  =    1.771    core radius for aug-charge                                                  
                                                                                                    
   Atomic configuration                                                                             
    9 entries                                                                                       
     n  l   j            E        occ.                                                              
     1  0  0.50     -8850.2468   2.0000                                                             
     2  0  0.50     -1062.3498   2.0000                                                             
     2  1  1.50      -916.8226   6.0000                                                             
     3  0  0.50      -114.6929   2.0000                                                             
     3  1  1.50       -72.1325   6.0000                                                             
     3  2  2.50        -5.0394  10.0000                                                             
     4  0  0.50        -4.6097   1.0000                                                             
     4  1  0.50        -4.0817   0.0000                                                             
     4  3  2.50        -1.3606   0.0000                                                             
   Description                                                                                      
     l       E           TYP  RCUT    TYP  RCUT                                                     
     2     -5.0393973     23  2.200                                                                 
     2     10.8846608     23  2.200                                                                 
     0     -4.6097109     23  2.200                                                                 
     0      8.2520465     23  2.200                                                                 
     1     -2.7211652     23  2.200                                                                 
     1     21.7055443     23  2.200                                                                 
     3      2.7211652     23  2.300                                                                 
  local pseudopotential read in
  partial core-charges read in
  partial kinetic energy density read in
  atomic valenz-charges read in
  non local Contribution for L=           2  read in
    real space projection operators read in
  non local Contribution for L=           2  read in
    real space projection operators read in
  non local Contribution for L=           0  read in
    real space projection operators read in
  non local Contribution for L=           0  read in
    real space projection operators read in
  non local Contribution for L=           1  read in
    real space projection operators read in
  non local Contribution for L=           1  read in
    real space projection operators read in
    PAW grid and wavefunctions read in
 
   number of l-projection  operators is LMAX  =           6
   number of lm-projection operators is LMMAX =          18
 
 POTCAR:    PAW_PBE V 08Apr2002                   
   VRHFIN =V: p6 d4 s1                                                                              
   LEXCH  = PE                                                                                      
   EATOM  =   170.8679 eV,   12.5584 Ry                                                             
                                                                                                    
   TITEL  = PAW_PBE V 08Apr2002                                                                     
   LULTRA =        F    use ultrasoft PP ?                                                          
   IUNSCR =        1    unscreen: 0-lin 1-nonlin 2-no                                               
   RPACOR =    2.000    partial core radius                                                         
   POMASS =   50.941; ZVAL   =    5.000    mass and valenz                                          
   RCORE  =    2.700    outmost cutoff radius                                                       
   RWIGS  =    2.500; RWIGS  =    1.323    wigner-seitz radius (au A)                               
   ENMAX  =  192.543; ENMIN  =  144.408 eV                                                          
   RCLOC  =    1.779    cutoff for local pot                                                        
   LCOR   =        T    correct aug charges                                                         
   LPAW   =        T    paw PP                                                                      
   EAUG   =  358.662                                                                                
   DEXC   =    0.000                                                                                
   RMAX   =    2.768    core radius for proj-oper                                                   
   RAUG   =    1.300    factor for augmentation sphere                                              
   RDEP   =    2.762    radius for radial grids                                                     
   RDEPT  =    2.240    core radius for aug-charge                                                  
                                                                                                    
   Atomic configuration                                                                             
    9 entries                                                                                       
     n  l   j            E        occ.                                                              
     1  0  0.50     -5360.7193   2.0000                                                             
     2  0  0.50      -598.4546   2.0000                                                             
     2  1  1.50      -499.0155   6.0000                                                             
     3  0  0.50       -66.5711   2.0000                                                             
     3  1  1.50       -40.5282   6.0000                                                             
     3  2  2.50        -2.4291   4.0000                                                             
     4  0  0.50        -3.8743   1.0000                                                             
     4  1  0.50        -2.7212   0.0000                                                             
     4  3  2.50        -1.3606   0.0000                                                             
   Description                                                                                      
     l       E           TYP  RCUT    TYP  RCUT                                                     
     2     -2.4290901     23  2.700                                                                 
     2     -3.7896727     23  2.700                                                                 
     0     -3.8742752     23  2.700                                                                 
     0     27.2116520     23  2.700                                                                 
     1     -2.7211652     23  2.700                                                                 
     1     27.2116520     23  2.700                                                                 
  local pseudopotential read in
  partial core-charges read in
  partial kinetic energy density read in
  atomic valenz-charges read in
  non local Contribution for L=           2  read in
    real space projection operators read in
  non local Contribution for L=           2  read in
    real space projection operators read in
  non local Contribution for L=           0  read in
    real space projection operators read in
  non local Contribution for L=           0  read in
    real space projection operators read in
  non local Contribution for L=           1  read in
    real space projection operators read in
  non local Contribution for L=           1  read in
    real space projection operators read in
    PAW grid and wavefunctions read in
 
   number of l-projection  operators is LMAX  =           6
   number of lm-projection operators is LMMAX =          18
 
 POTCAR:    PAW_PBE C 08Apr2002                   
   VRHFIN =C: s2p2                                                                                  
   LEXCH  = PE                                                                                      
   EATOM  =   147.1560 eV,   10.8157 Ry                                                             
                                                                                                    
   TITEL  = PAW_PBE C 08Apr2002                                                                     
   LULTRA =        F    use ultrasoft PP ?                                                          
   IUNSCR =        1    unscreen: 0-lin 1-nonlin 2-no                                               
   RPACOR =    1.200    partial core radius                                                         
   POMASS =   12.011; ZVAL   =    4.000    mass and valenz                                          
   RCORE  =    1.500    outmost cutoff radius                                                       
   RWIGS  =    1.630; RWIGS  =    0.863    wigner-seitz radius (au A)                               
   ENMAX  =  400.000; ENMIN  =  300.000 eV                                                          
   ICORE  =        2    local potential                                                             
   LCOR   =        T    correct aug charges                                                         
   LPAW   =        T    paw PP                                                                      
   EAUG   =  644.873                                                                                
   DEXC   =    0.000                                                                                
   RMAX   =    1.529    core radius for proj-oper                                                   
   RAUG   =    1.300    factor for augmentation sphere                                              
   RDEP   =    1.501    radius for radial grids                                                     
   RDEPT  =    1.300    core radius for aug-charge                                                  
                                                                                                    
   Atomic configuration                                                                             
    4 entries                                                                                       
     n  l   j            E        occ.                                                              
     1  0  0.50      -273.3789   2.0000                                                             
     2  0  0.50       -13.7508   2.0000                                                             
     2  1  0.50        -5.2854   2.0000                                                             
     3  2  1.50        -5.4423   0.0000                                                             
   Description                                                                                      
     l       E           TYP  RCUT    TYP  RCUT                                                     
     0    -13.7508458     23  1.200                                                                 
     0     -8.2022199     23  1.200                                                                 
     1     -5.2854383     23  1.500                                                                 
     1     34.0145650     23  1.500                                                                 
     2     -5.4423304      7  1.500                                                                 
  local pseudopotential read in
  partial core-charges read in
  partial kinetic energy density read in
  atomic valenz-charges read in
  non local Contribution for L=           0  read in
    real space projection operators read in
  non local Contribution for L=           0  read in
    real space projection operators read in
  non local Contribution for L=           1  read in
    real space projection operators read in
  non local Contribution for L=           1  read in
    real space projection operators read in
    PAW grid and wavefunctions read in
 
   number of l-projection  operators is LMAX  =           4
   number of lm-projection operators is LMMAX =           8
 
 Optimization of the real space projectors (new method)

 maximal supplied QI-value         = 16.25
 optimisation between [QCUT,QGAM] = [ 11.38, 22.75] = [ 36.24,144.96] Ry 
 Optimized for a Real-space Cutoff    1.52 Angstroem

   l    n(q)    QCUT    max X(q) W(low)/X(q) W(high)/X(q)  e(spline) 
   2      9    11.376     4.610    0.21E-03    0.10E-03    0.26E-06
   2      9    11.376     8.522    0.33E-03    0.16E-03    0.37E-06
   0     10    11.376    51.609    0.62E-04    0.20E-04    0.13E-06
   0     10    11.376    27.747    0.54E-04    0.20E-04    0.13E-06
   1     10    11.376    20.408    0.13E-04    0.99E-04    0.19E-06
   1     10    11.376    13.425    0.12E-04    0.87E-04    0.17E-06
 Optimization of the real space projectors (new method)

 maximal supplied QI-value         = 13.98
 optimisation between [QCUT,QGAM] = [ 11.33, 22.79] = [ 35.93,145.49] Ry 
 Optimized for a Real-space Cutoff    1.56 Angstroem

   l    n(q)    QCUT    max X(q) W(low)/X(q) W(high)/X(q)  e(spline) 
   2     10    11.327    96.114    0.36E-03    0.35E-03    0.42E-06
   2     10    11.327    88.986    0.37E-03    0.35E-03    0.42E-06
   0     11    11.327    20.919    0.40E-04    0.56E-04    0.79E-06
   0     11    11.327     9.593    0.30E-04    0.41E-04    0.60E-06
   1     10    11.327    11.615    0.15E-03    0.10E-03    0.19E-06
   1     10    11.327     7.031    0.11E-03    0.73E-04    0.14E-06
 Optimization of the real space projectors (new method)

 maximal supplied QI-value         = 25.13
 optimisation between [QCUT,QGAM] = [ 11.31, 22.87] = [ 35.82,146.48] Ry 
 Optimized for a Real-space Cutoff    1.00 Angstroem

   l    n(q)    QCUT    max X(q) W(low)/X(q) W(high)/X(q)  e(spline) 
   0      7    11.310   115.676    0.43E-03    0.13E-02    0.19E-06
   0      7    11.310    87.132    0.43E-03    0.13E-02    0.18E-06
   1      6    11.310     4.429    0.42E-03    0.74E-03    0.11E-06
   1      6    11.310     2.733    0.34E-03    0.55E-03    0.92E-07
  PAW_PBE Cu 22Jun2005                  :
 energy of atom  1       EATOM=-1390.9808
 kinetic energy error for atom=    0.0043 (will be added to EATOM!!)
  PAW_PBE V 08Apr2002                   :
 energy of atom  2       EATOM= -170.8679
 kinetic energy error for atom=    0.0003 (will be added to EATOM!!)
  PAW_PBE C 08Apr2002                   :
 energy of atom  3       EATOM= -147.1560
 kinetic energy error for atom=    0.0076 (will be added to EATOM!!)
 
 
 POSCAR: Cu-V-C
  positions in direct lattice
  velocities in cartesian coordinates
 exchange correlation table for  LEXCH =        8
   RHO(1)=    0.500       N(1)  =     2000
   RHO(2)=  100.500       N(2)  =     4000

 VTST: version 3.2, (02/03/18)

 CHAIN: initializing optimizer
 
 OPT: Using VASP Conjugate-Gradient optimizer
 CHAIN: Read ICHAIN            0
 
 POSCAR: Cu-V-C
  positions in direct lattice
  velocities in cartesian coordinates
 


--------------------------------------------------------------------------------------------------------


 ion  position               nearest neighbor table
   1  0.000  0.000  0.226-   7 2.57   3 2.57   4 2.57   2 2.57   6 2.57   8 2.57  12 2.57  10 2.57
                            16 2.57
   2  0.333  0.000  0.226-   8 2.57   9 2.57   5 2.57   1 2.57   3 2.57  11 2.57   4 2.57  10 2.57
                            17 2.57
   3  0.667  0.000  0.226-   1 2.57   7 2.57   6 2.57   9 2.57   2 2.57  12 2.57   5 2.57  18 2.57
                            11 2.57
   4  0.000  0.333  0.226-   5 2.57   6 2.57   1 2.57   7 2.57   2 2.57  13 2.57   9 2.57  10 2.57
                            15 2.57
   5  0.333  0.333  0.226-   4 2.57   2 2.57   7 2.57  13 2.57   8 2.57   6 2.57   3 2.57  11 2.57
                            14 2.57
   6  0.667  0.333  0.226-   4 2.57   9 2.57  15 2.57   3 2.57   1 2.57   8 2.57  14 2.57   5 2.57
                            12 2.57
   7  0.000  0.667  0.226-   1 2.57   3 2.57  16 2.57  18 2.57   4 2.57   5 2.57   8 2.57   9 2.57
                            13 2.57
   8  0.333  0.667  0.226-   9 2.57   2 2.57  17 2.57   6 2.57   1 2.57   7 2.57   5 2.57  14 2.57
                            16 2.57
   9  0.667  0.667  0.226-   8 2.57   6 2.57   2 2.57  17 2.57   3 2.57   7 2.57   4 2.57  15 2.57
                            18 2.57
  10  0.111  0.111  0.314-  26 2.56  19 2.56  20 2.56  11 2.57  12 2.57  13 2.57   1 2.57   2 2.57
                             4 2.57  15 2.57  16 2.57  17 2.57
  11  0.444  0.111  0.314-  20 2.56  21 2.56  10 2.57  13 2.57   2 2.57  17 2.57  14 2.57  12 2.57
                             5 2.57   3 2.57  18 2.57  27 2.57
  12  0.778  0.111  0.314-  19 2.56  25 2.56  21 2.56  15 2.57  10 2.57  14 2.57  18 2.57   3 2.57
                             1 2.57  16 2.57  11 2.57   6 2.57
  13  0.111  0.444  0.314-  23 2.56  20 2.56  16 2.57  18 2.57  10 2.57  11 2.57  14 2.57   5 2.57
                             4 2.57   7 2.57  15 2.57  22 2.57
  14  0.444  0.444  0.314-  21 2.56  23 2.56  15 2.57  17 2.57  12 2.57  16 2.57  13 2.57  11 2.57
                             6 2.57   8 2.57   5 2.57  24 2.57
  15  0.778  0.444  0.314-  19 2.56  24 2.57  22 2.57  14 2.57  17 2.57  12 2.57   6 2.57  18 2.57
                            10 2.57   9 2.57  13 2.57   4 2.57
  16  0.111  0.778  0.314-  25 2.56  26 2.56  23 2.56  18 2.57  13 2.57   7 2.57  14 2.57  17 2.57
                            12 2.57  10 2.57   8 2.57   1 2.57
  17  0.444  0.778  0.314-  26 2.56  27 2.57  24 2.57  14 2.57  15 2.57   8 2.57   9 2.57  11 2.57
                            16 2.57  18 2.57  10 2.57   2 2.57
  18  0.778  0.778  0.314-  25 2.56  22 2.57  27 2.57  16 2.57  13 2.57   7 2.57  15 2.57  12 2.57
                            17 2.57   9 2.57   3 2.57  11 2.57
  19  0.889  0.222  0.401-  12 2.56  10 2.56  15 2.56  28 2.56  25 2.56  26 2.56  21 2.57  20 2.57
                            22 2.57  24 2.57  32 2.58  31 2.58
  20  0.222  0.222  0.401-  36 2.54  11 2.56  13 2.56  10 2.56  23 2.56  21 2.56  26 2.57  19 2.57
                            27 2.57  22 2.57  29 2.57  31 2.57
  21  0.555  0.222  0.401-  36 2.54  14 2.56  11 2.56  12 2.56  20 2.56  23 2.56  19 2.57  25 2.57
                            24 2.57  27 2.57  32 2.57  30 2.57
  22  0.888  0.556  0.402-  24 2.56  27 2.56  35 2.56  18 2.57  15 2.57  19 2.57  25 2.57  31 2.57
                            33 2.57  13 2.57  23 2.57  20 2.57
  23  0.222  0.555  0.401-  36 2.54  13 2.56  14 2.56  16 2.56  20 2.56  21 2.56  25 2.57  26 2.57
                            22 2.57  24 2.57  33 2.57  34 2.57
  24  0.556  0.556  0.402-  22 2.56  27 2.56  35 2.56  15 2.57  17 2.57  19 2.57  26 2.57  32 2.57
                            34 2.57  14 2.57  21 2.57  23 2.57
  25  0.889  0.889  0.401-  12 2.56  16 2.56  18 2.56  28 2.56  19 2.56  26 2.56  21 2.57  23 2.57
                            22 2.57  27 2.57  33 2.58  30 2.58
  26  0.222  0.889  0.401-  10 2.56  16 2.56  17 2.56  28 2.56  25 2.56  19 2.56  20 2.57  23 2.57
                            27 2.57  24 2.57  29 2.58  34 2.58
  27  0.556  0.888  0.402-  24 2.56  22 2.56  35 2.56  17 2.57  18 2.57  26 2.57  25 2.57  29 2.57
                            30 2.57  11 2.57  20 2.57  21 2.57
  28  0.000  0.000  0.489-  25 2.56  19 2.56  26 2.56  33 2.57  30 2.57  31 2.57  29 2.57  32 2.57
                            34 2.57
  29  0.333  0.000  0.490-  30 2.56  36 2.56  31 2.56  27 2.57  35 2.57  28 2.57  20 2.57  34 2.57
                            26 2.58
  30  0.666  0.000  0.490-  29 2.56  36 2.56  32 2.56  27 2.57  35 2.57  28 2.57  21 2.57  33 2.57
                            25 2.58
  31  0.000  0.333  0.490-  33 2.56  36 2.56  29 2.56  22 2.57  35 2.57  28 2.57  20 2.57  32 2.57
                            19 2.58
  32  0.666  0.333  0.490-  34 2.56  36 2.56  30 2.56  24 2.57  35 2.57  28 2.57  21 2.57  31 2.57
                            19 2.58
  33  0.000  0.666  0.490-  31 2.56  36 2.56  34 2.56  22 2.57  35 2.57  28 2.57  23 2.57  30 2.57
                            25 2.58
  34  0.333  0.666  0.490-  32 2.56  36 2.56  33 2.56  24 2.57  35 2.57  28 2.57  23 2.57  29 2.57
                            26 2.58
  35  0.667  0.667  0.490-  24 2.56  27 2.56  22 2.56  34 2.57  32 2.57  29 2.57  30 2.57  33 2.57
                            31 2.57
  36  0.333  0.333  0.488-  37 1.70  23 2.54  20 2.54  21 2.54  31 2.56  29 2.56  33 2.56  32 2.56
                            34 2.56  30 2.56
  37  0.333  0.333  0.560-  36 1.70
 
  LATTYP: Found a hexagonal cell.
 ALAT       =     7.6967864036
 C/A-ratio  =     3.0908716217
  
  Lattice vectors:
  
 A1 = (  -3.8483927580,  -6.6656128093,   0.0000000000)
 A2 = (   7.6967864037,   0.0000000000,   0.0000000000)
 A3 = (   0.0000000000,   0.0000000000,  23.7897786731)


Analysis of symmetry for initial positions (statically):
=====================================================================
 Subroutine PRICEL returns:
 Original cell was already a primitive cell.
 

 Routine SETGRP: Setting up the symmetry group for a 
 hexagonal supercell.


 Subroutine GETGRP returns: Found  6 space group operations
 (whereof  6 operations were pure point group operations)
 out of a pool of 24 trial point group operations.


The static configuration has the point symmetry C_3v.


Analysis of symmetry for dynamics (positions and initial velocities):
=====================================================================
 Subroutine PRICEL returns:
 Original cell was already a primitive cell.
 

 Routine SETGRP: Setting up the symmetry group for a 
 hexagonal supercell.


 Subroutine GETGRP returns: Found  6 space group operations
 (whereof  6 operations were pure point group operations)
 out of a pool of 24 trial point group operations.


The dynamic configuration has the point symmetry C_3v.


Analysis of constrained symmetry for selective dynamics:
=====================================================================
 Subroutine PRICEL returns:
 Original cell was already a primitive cell.
 

 Routine SETGRP: Setting up the symmetry group for a 
 hexagonal supercell.


 Subroutine GETGRP returns: Found  6 space group operations
 (whereof  6 operations were pure point group operations)
 out of a pool of 24 trial point group operations.


The constrained configuration has the point symmetry C_3v.


 Subroutine INISYM returns: Found  6 space group operations
 (whereof  6 operations are pure point group operations),
 and found     1 'primitive' translations


----------------------------------------------------------------------------------------

                                     Primitive cell                                     

  volume of cell :    1220.5060

  direct lattice vectors                    reciprocal lattice vectors
     7.696786404  0.000000000  0.000000000     0.129924354 -0.075011849  0.000000000
     3.848392758  6.665612809  0.000000000     0.000000000  0.150023716  0.000000000
     0.000000000  0.000000000 23.789778673     0.000000000  0.000000000  0.042034859

  length of vectors
     7.696786404  7.696786404 23.789778673     0.150023716  0.150023716  0.042034859

  position of ions in fractional coordinates (direct lattice)
     0.000000000  0.000000000  0.225792754
     0.333333343  0.000000000  0.225792754
     0.666666687  0.000000000  0.225792754
     1.000000000  0.333333343  0.225792754
     0.333333313  0.333333343  0.225792754
     0.666666687  0.333333343  0.225792754
     1.000000000  0.666666687  0.225792754
     0.333333373  0.666666687  0.225792754
     0.666666627  0.666666687  0.225792754
     0.111111119  0.111111112  0.313847389
     0.444444418  0.111111112  0.313847389
     0.777777791  0.111111112  0.313847389
     0.111111119  0.444444448  0.313847389
     0.444444478  0.444444448  0.313847389
     0.777777731  0.444444448  0.313847389
     0.111111112  0.777777731  0.313847389
     0.444444478  0.777777731  0.313847389
     0.777777851  0.777777731  0.313847389
     0.888969867  0.222060282  0.401395193
     0.222289655  0.222289640  0.401483782
     0.555420751  0.222289640  0.401483782
     0.888491892  0.555754024  0.401917959
     0.222289625  0.555420691  0.401483782
     0.555754084  0.555754024  0.401917959
     0.888969867  0.888969867  0.401395193
     0.222060297  0.888969867  0.401395193
     0.555754024  0.888491892  0.401917959
     0.000000000  0.000000000  0.489316104
     0.333456448  0.000460112  0.490010544
     0.666083470  0.000460112  0.490010544
     0.000460112  0.333456448  0.490010544
     0.666083470  0.333456448  0.490010544
     0.000460112  0.666083470  0.490010544
     0.333456478  0.666083470  0.490010544
     0.666666627  0.666666687  0.489956698
     0.333333313  0.333333343  0.488454712
     0.333333313  0.333333343  0.559901092

  ion indices of the primitive-cell ions
   primitive index   ion index
                 1           1
                 2           2
                 3           3
                 4           4
                 5           5
                 6           6
                 7           7
                 8           8
                 9           9
                10          10
                11          11
                12          12
                13          13
                14          14
                15          15
                16          16
                17          17
                18          18
                19          19
                20          20
                21          21
                22          22
                23          23
                24          24
                25          25
                26          26
                27          27
                28          28
                29          29
                30          30
                31          31
                32          32
                33          33
                34          34
                35          35
                36          36
                37          37

----------------------------------------------------------------------------------------

 
 
 KPOINTS: Automatic mesh                          

Automatic generation of k-mesh.
 Grid dimensions read from file:
 generate k-points for:    8    8    1

 Generating k-lattice:

  Cartesian coordinates                     Fractional coordinates (reciprocal lattice)
     0.016240544 -0.009376481  0.000000000     0.125000000 -0.000000000  0.000000000
     0.000000000  0.018752964  0.000000000     0.000000000  0.125000000  0.000000000
     0.000000000  0.000000000  0.042034859     0.000000000  0.000000000  1.000000000

  Length of vectors
     0.018752964  0.018752964  0.042034859

  Shift w.r.t. Gamma in fractional coordinates (k-lattice)
     0.000000000  0.000000000  0.000000000

 TETIRR: Found     36 inequivalent tetrahedra from      384
 
 Subroutine IBZKPT returns following result:
 ===========================================
 
 Found     10 irreducible k-points:
 
 Following reciprocal coordinates:
            Coordinates               Weight
  0.000000  0.000000  0.000000      1.000000
  0.125000 -0.000000  0.000000      6.000000
  0.250000 -0.000000  0.000000      6.000000
  0.375000 -0.000000  0.000000      6.000000
  0.500000 -0.000000  0.000000      3.000000
  0.250000  0.125000  0.000000      6.000000
  0.375000  0.125000  0.000000     12.000000
  0.500000  0.125000  0.000000     12.000000
  0.500000  0.250000  0.000000      6.000000
 -0.375000  0.250000  0.000000      6.000000
 
 Following cartesian coordinates:
            Coordinates               Weight
  0.000000  0.000000  0.000000      1.000000
  0.016241 -0.009376  0.000000      6.000000
  0.032481 -0.018753  0.000000      6.000000
  0.048722 -0.028129  0.000000      6.000000
  0.064962 -0.037506  0.000000      3.000000
  0.032481  0.000000  0.000000      6.000000
  0.048722 -0.009376  0.000000     12.000000
  0.064962 -0.018753  0.000000     12.000000
  0.064962  0.000000  0.000000      6.000000
 -0.048722  0.065635  0.000000      6.000000
 


--------------------------------------------------------------------------------------------------------




 Dimension of arrays:
   k-points           NKPTS =     10   k-points in BZ     NKDIM =     10   number of bands    NBANDS=    252
   number of dos      NEDOS =    301   number of ions     NIONS =     37
   non local maximal  LDIM  =      6   non local SUM 2l+1 LMDIM =     18
   total plane-waves  NPLWV = 246960
   max r-space proj   IRMAX =   3293   max aug-charges    IRDMAX=  12469
   dimension x,y,z NGX =    42 NGY =   42 NGZ =  140
   dimension x,y,z NGXF=    84 NGYF=   84 NGZF=  280
   support grid    NGXF=    84 NGYF=   84 NGZF=  280
   ions per type =              35   1   1
   NGX,Y,Z   is equivalent  to a cutoff of   9.07,  9.07,  9.78 a.u.
   NGXF,Y,Z  is equivalent  to a cutoff of  18.14, 18.14, 19.57 a.u.

 SYSTEM =  unknown system                          
 POSCAR =  Cu-V-C                                  

 Startparameter for this run:
   NWRITE =      2    write-flag & timer
   PREC   = normal    normal or accurate (medium, high low for compatibility)
   ISTART =      0    job   : 0-new  1-cont  2-samecut
   ICHARG =     11    charge: 1-file 2-atom 10-const
   ISPIN  =      1    spin polarized calculation?
   LNONCOLLINEAR =      F non collinear calculations
   LSORBIT =      F    spin-orbit coupling
   INIWAV =      1    electr: 0-lowe 1-rand  2-diag
   LASPH  =      F    aspherical Exc in radial PAW
   METAGGA=      F    non-selfconsistent MetaGGA calc.

 Electronic Relaxation 1
   ENCUT  =  500.0 eV  36.75 Ry    6.06 a.u.  14.03 14.03 43.37*2*pi/ulx,y,z
   ENINI  =  500.0     initial cutoff
   ENAUG  =  644.9 eV  augmentation charge cutoff
   NELM   =    150;   NELMIN=  2; NELMDL= -5     # of ELM steps 
   EDIFF  = 0.1E-04   stopping-criterion for ELM
   LREAL  =      T    real-space projection
   NLSPLINE    = F    spline interpolate recip. space projectors
   LCOMPAT=      F    compatible to vasp.4.4
   GGA_COMPAT  = T    GGA compatible to vasp.4.4-vasp.4.6
   LMAXPAW     = -100 max onsite density
   LMAXMIX     =    2 max onsite mixed and CHGCAR
   VOSKOWN=      0    Vosko Wilk Nusair interpolation
   ROPT   =   -0.00050  -0.00050  -0.00050
 Ionic relaxation
   EDIFFG = -.1E-01   stopping-criterion for IOM
   NSW    =      0    number of steps for IOM
   NBLOCK =      1;   KBLOCK =      1    inner block; outer block 
   IBRION =     -1    ionic relax: 0-MD 1-quasi-New 2-CG
   NFREE  =      1    steps in history (QN), initial steepest desc. (CG)
   ISIF   =      2    stress and relaxation
   IWAVPR =     10    prediction:  0-non 1-charg 2-wave 3-comb
   ISYM   =      2    0-nonsym 1-usesym 2-fastsym
   LCORR  =      T    Harris-Foulkes like correction to forces

   POTIM  = 0.5000    time-step for ionic-motion
   TEIN   =    0.0    initial temperature
   TEBEG  =    0.0;   TEEND  =   0.0 temperature during run
   SMASS  =  -3.00    Nose mass-parameter (am)
   estimated Nose-frequenzy (Omega)   =  0.10E-29 period in steps = 0.13E+47 mass=  -0.135E-26a.u.
   SCALEE = 1.0000    scale energy and forces
   NPACO  =    256;   APACO  = 16.0  distance and # of slots for P.C.
   PSTRESS=    0.0 pullay stress

  Mass of Ions in am
   POMASS =  63.55 50.94 12.01
  Ionic Valenz
   ZVAL   =  11.00  5.00  4.00
  Atomic Wigner-Seitz radii
   RWIGS  =  -1.00 -1.00 -1.00
  virtual crystal weights 
   VCA    =   1.00  1.00  1.00
   NELECT =     394.0000    total number of electrons
   NUPDOWN=      -1.0000    fix difference up-down

 DOS related values:
   EMIN   =  10.00;   EMAX   =-10.00  energy-range for DOS
   EFERMI =   0.00
   ISMEAR =    -5;   SIGMA  =   0.10  broadening in eV -4-tet -1-fermi 0-gaus

 Electronic relaxation 2 (details)
   IALGO  =     68    algorithm
   LDIAG  =      T    sub-space diagonalisation (order eigenvalues)
   LSUBROT=      F    optimize rotation matrix (better conditioning)
   TURBO    =      0    0=normal 1=particle mesh
   IRESTART =      0    0=no restart 2=restart with 2 vectors
   NREBOOT  =      0    no. of reboots
   NMIN     =      0    reboot dimension
   EREF     =   0.00    reference energy to select bands
   IMIX   =      4    mixing-type and parameters
     AMIX     =   0.40;   BMIX     =  1.00
     AMIX_MAG =   1.60;   BMIX_MAG =  1.00
     AMIN     =   0.10
     WC   =   100.;   INIMIX=   1;  MIXPRE=   1;  MAXMIX= -45

 Intra band minimization:
   WEIMIN = 0.0000     energy-eigenvalue tresh-hold
   EBREAK =  0.99E-08  absolut break condition
   DEPER  =   0.30     relativ break condition  

   TIME   =   0.40     timestep for ELM

  volume/ion in A,a.u.               =      32.99       222.60
  Fermi-wavevector in a.u.,A,eV,Ry     =   1.123036  2.122230 17.159796  1.261209
  Thomas-Fermi vector in A             =   2.259700
 
 Write flags
   LWAVE        =      F    write WAVECAR
   LDOWNSAMPLE  =      F    k-point downsampling of WAVECAR
   LCHARG       =      F    write CHGCAR
   LVTOT        =      F    write LOCPOT, total local potential
   LVHAR        =      F    write LOCPOT, Hartree potential only
   LELF         =      F    write electronic localiz. function (ELF)
   LORBIT       =     10    0 simple, 1 ext, 2 COOP (PROOUT), +10 PAW based schemes


 Dipole corrections
   LMONO  =      F    monopole corrections only (constant potential shift)
   LDIPOL =      F    correct potential (dipole corrections)
   IDIPOL =      0    1-x, 2-y, 3-z, 4-all directions 
   EPSILON=  1.0000000 bulk dielectric constant

 Exchange correlation treatment:
   GGA     =    --    GGA type
   LEXCH   =     8    internal setting for exchange type
   VOSKOWN=      0    Vosko Wilk Nusair interpolation
   LHFCALC =     F    Hartree Fock is set to
   LHFONE  =     F    Hartree Fock one center treatment
   AEXX    =    0.0000 exact exchange contribution

 Linear response parameters
   LEPSILON=     F    determine dielectric tensor
   LRPA    =     F    only Hartree local field effects (RPA)
   LNABLA  =     F    use nabla operator in PAW spheres
   LVEL    =     F    velocity operator in full k-point grid
   LINTERFAST=   F  fast interpolation
   KINTER  =     0    interpolate to denser k-point grid
   CSHIFT  =0.1000    complex shift for real part using Kramers Kronig
   OMEGAMAX=  -1.0    maximum frequency
   DEG_THRESHOLD= 0.2000000E-02 threshold for treating states as degnerate
   RTIME   =   -0.100 relaxation time in fs
  (WPLASMAI=    0.000 imaginary part of plasma frequency in eV, 0.658/RTIME)
   DFIELD  = 0.0000000 0.0000000 0.0000000 field for delta impulse in time
 
 Orbital magnetization related:
   ORBITALMAG=     F  switch on orbital magnetization
   LCHIMAG   =     F  perturbation theory with respect to B field
   DQ        =  0.001000  dq finite difference perturbation B field
   LLRAUG    =     F  two centre corrections for induced B field



--------------------------------------------------------------------------------------------------------


 Static calculation
 charge density and potential remain constant during run
 non-spin polarized calculation
 RMM-DIIS sequential band-by-band and
  variant of blocked Davidson during initial phase
 perform sub-space diagonalisation
    before iterative eigenvector-optimisation
 no mixing
 using additional bands           55
 real space projection scheme for non local part
 use partial core corrections
 calculate Harris-corrections to forces 
   (improved forces if not selfconsistent)
 use gradient corrections 
 WARNING: stress and forces are not correct
  (second derivative of E(xc) not defined)
 use of overlap-Matrix (Vanderbilt PP)
 Fermi weights with tetrahedron method with Bloechl corrections


--------------------------------------------------------------------------------------------------------


  energy-cutoff  :      500.00
  volume of cell :     1220.51
      direct lattice vectors                 reciprocal lattice vectors
     7.696786404  0.000000000  0.000000000     0.129924354 -0.075011849  0.000000000
     3.848392758  6.665612809  0.000000000     0.000000000  0.150023716  0.000000000
     0.000000000  0.000000000 23.789778673     0.000000000  0.000000000  0.042034859

  length of vectors
     7.696786404  7.696786404 23.789778673     0.150023716  0.150023716  0.042034859


 
 k-points in units of 2pi/SCALE and weight: Automatic mesh                          
   0.00000000  0.00000000  0.00000000       0.016
   0.01624054 -0.00937648  0.00000000       0.094
   0.03248109 -0.01875296  0.00000000       0.094
   0.04872163 -0.02812944  0.00000000       0.094
   0.06496218 -0.03750592  0.00000000       0.047
   0.03248109  0.00000000  0.00000000       0.094
   0.04872163 -0.00937648  0.00000000       0.188
   0.06496218 -0.01875296  0.00000000       0.188
   0.06496218  0.00000000  0.00000000       0.094
  -0.04872163  0.06563537  0.00000000       0.094
 
 k-points in reciprocal lattice and weights: Automatic mesh                          
   0.00000000  0.00000000  0.00000000       0.016
   0.12500000 -0.00000000  0.00000000       0.094
   0.25000000 -0.00000000  0.00000000       0.094
   0.37500000 -0.00000000  0.00000000       0.094
   0.50000000 -0.00000000  0.00000000       0.047
   0.25000000  0.12500000  0.00000000       0.094
   0.37500000  0.12500000  0.00000000       0.188
   0.50000000  0.12500000  0.00000000       0.188
   0.50000000  0.25000000  0.00000000       0.094
  -0.37500000  0.25000000  0.00000000       0.094
 
 position of ions in fractional coordinates (direct lattice) 
   0.00000000  0.00000000  0.22579275
   0.33333334  0.00000000  0.22579275
   0.66666669  0.00000000  0.22579275
   0.00000000  0.33333334  0.22579275
   0.33333331  0.33333334  0.22579275
   0.66666669  0.33333334  0.22579275
   0.00000000  0.66666669  0.22579275
   0.33333337  0.66666669  0.22579275
   0.66666663  0.66666669  0.22579275
   0.11111112  0.11111111  0.31384739
   0.44444442  0.11111111  0.31384739
   0.77777779  0.11111111  0.31384739
   0.11111112  0.44444445  0.31384739
   0.44444448  0.44444445  0.31384739
   0.77777773  0.44444445  0.31384739
   0.11111111  0.77777773  0.31384739
   0.44444448  0.77777773  0.31384739
   0.77777785  0.77777773  0.31384739
   0.88896987  0.22206028  0.40139519
   0.22228965  0.22228964  0.40148378
   0.55542075  0.22228964  0.40148378
   0.88849189  0.55575402  0.40191796
   0.22228962  0.55542069  0.40148378
   0.55575408  0.55575402  0.40191796
   0.88896987  0.88896987  0.40139519
   0.22206030  0.88896987  0.40139519
   0.55575402  0.88849189  0.40191796
   0.00000000  0.00000000  0.48931610
   0.33345645  0.00046011  0.49001054
   0.66608347  0.00046011  0.49001054
   0.00046011  0.33345645  0.49001054
   0.66608347  0.33345645  0.49001054
   0.00046011  0.66608347  0.49001054
   0.33345648  0.66608347  0.49001054
   0.66666663  0.66666669  0.48995670
   0.33333331  0.33333334  0.48845471
   0.33333331  0.33333334  0.55990109
 
 position of ions in cartesian coordinates  (Angst):
   0.00000000  0.00000000  5.37155964
   2.56559554  0.00000000  5.37155964
   5.13119109  0.00000000  5.37155964
   1.28279762  2.22187100  5.37155964
   3.84839293  2.22187100  5.37155964
   6.41398872  2.22187100  5.37155964
   2.56559525  4.44374201  5.37155964
   5.13119102  4.44374201  5.37155964
   7.69678588  4.44374201  5.37155964
   1.28279775  0.74062365  7.46635991
   3.84839295  0.74062365  7.46635991
   6.41398873  0.74062365  7.46635991
   2.56559535  2.96249461  7.46635991
   5.13119101  2.96249461  7.46635991
   7.69678586  2.96249461  7.46635991
   3.84839268  5.18436521  7.46635991
   6.41398840  5.18436521  7.46635991
   8.97958418  5.18436521  7.46635991
   7.69678637  1.48016786  9.54910280
   2.56637383  1.48169667  9.55121032
   5.13041272  1.48169667  9.55121032
   8.97729207  3.70444114  9.56153928
   3.84839272  3.70221927  9.55121032
   6.41628024  3.70444114  9.56153928
  10.26331639  5.92552893  9.54910280
   5.13025587  5.92552893  9.54910280
   7.69678578  5.92234294  9.56153928
   0.00000000  0.00000000 11.64072181
   2.56831375  0.00306693 11.65724238
   5.12847289  0.00306693 11.65724238
   1.28681276  2.22269157 11.65724238
   6.40997358  2.22269157 11.65724238
   2.56689218  4.43985451 11.65724238
   5.12989409  4.43985451 11.65724238
   7.69678588  4.44374201 11.65596141
   3.84839293  2.22187100 11.62022948
   3.84839293  2.22187100 13.31992306
 


--------------------------------------------------------------------------------------------------------


 k-point   1 :   0.0000 0.0000 0.0000  plane waves:   30861
 k-point   2 :   0.1250-0.0000 0.0000  plane waves:   30923
 k-point   3 :   0.2500-0.0000 0.0000  plane waves:   31010
 k-point   4 :   0.3750-0.0000 0.0000  plane waves:   30958
 k-point   5 :   0.5000-0.0000 0.0000  plane waves:   30974
 k-point   6 :   0.2500 0.1250 0.0000  plane waves:   30938
 k-point   7 :   0.3750 0.1250 0.0000  plane waves:   30990
 k-point   8 :   0.5000 0.1250 0.0000  plane waves:   31017
 k-point   9 :   0.5000 0.2500 0.0000  plane waves:   30996
 k-point  10 :  -0.3750 0.2500 0.0000  plane waves:   31036

 maximum and minimum number of plane-waves per node :     31036    30861

 maximum number of plane-waves:     31036
 maximum index in each direction: 
   IXMAX=   14   IYMAX=   14   IZMAX=   43
   IXMIN=  -14   IYMIN=  -14   IZMIN=  -43


 serial   3D FFT for wavefunctions
 parallel 3D FFT for charge:
    minimum data exchange during FFTs selected (reduces bandwidth)


 total amount of memory used by VASP MPI-rank0   112744. kBytes
=======================================================================

   base      :      30000. kBytes
   nonlr-proj:      18647. kBytes
   fftplans  :       3394. kBytes
   grid      :      14446. kBytes
   one-center:        575. kBytes
   wavefun   :      45682. kBytes
 
     INWAV:  cpu time    0.0000: real time    0.0000
 initial charge density was supplied:
 number of electron     393.9999750 magnetization 
 keeping initial charge density in first step


--------------------------------------------------------------------------------------------------------


 Maximum index for non-local projection operator         3138
 Maximum index for augmentation-charges          592 (set IRDMAX)


--------------------------------------------------------------------------------------------------------


 First call to EWALD:  gamma=   0.166
 Maximum number of real-space cells 4x 4x 2
 Maximum number of reciprocal cells 2x 2x 6

    FEWALD:  cpu time    0.0013: real time    0.0014


--------------------------------------- Iteration      1(   1)  ---------------------------------------


    POTLOK:  cpu time    0.0331: real time    0.0335
    SETDIJ:  cpu time    0.0047: real time    0.0048
     EDDAV:  cpu time    6.4600: real time    6.4614
 BZINTS: Fermi energy:   12.187657;  394.000000 electrons
         Band energy: 0.223960E+04;  BLOECHL correction:   -0.006219
       DOS:  cpu time    0.0104: real time    0.0104
    --------------------------------------------
      LOOP:  cpu time    6.5082: real time    6.5101

 eigenvalue-minimisations  :  5040
 total energy-change (2. order) : 0.3460387E+04  (-0.1679194E+05)
 number of electron     393.9999750 magnetization 
 augmentation part      393.9999750 magnetization 

 Free energy of the ion-electron system (eV)
  ---------------------------------------------------
  alpha Z        PSCENC =       777.82205640
  Ewald energy   TEWEN  =    194691.25766122
  -Hartree energ DENC   =   -241054.73752804
  -exchange      EXHF   =         0.00000000
  -V(xc)+E(xc)   XCENC  =      1524.00094855
  PAW double counting   =     46177.43093508   -49897.18182425
  entropy T*S    EENTRO =         0.00000000
  eigenvalues    EBANDS =      2239.59992647
  atomic energy  EATOM  =     49002.19513870
  Solvation  Ediel_sol  =         0.00000000
  ---------------------------------------------------
  free energy    TOTEN  =      3460.38731413 eV

  energy without entropy =     3460.38731413  energy(sigma->0) =     3460.38731413


--------------------------------------------------------------------------------------------------------




--------------------------------------- Iteration      1(   2)  ---------------------------------------


     EDDAV:  cpu time    6.4304: real time    6.4332
 BZINTS: Fermi energy:    2.055865;  394.000000 electrons
         Band energy:-0.924489E+03;  BLOECHL correction:   -0.005241
       DOS:  cpu time    0.0112: real time    0.0111
    --------------------------------------------
      LOOP:  cpu time    6.4415: real time    6.4444

 eigenvalue-minimisations  :  5040
 total energy-change (2. order) :-0.3164089E+04  (-0.3032908E+04)
 number of electron     393.9999750 magnetization 
 augmentation part      393.9999750 magnetization 

 Free energy of the ion-electron system (eV)
  ---------------------------------------------------
  alpha Z        PSCENC =       777.82205640
  Ewald energy   TEWEN  =    194691.25766122
  -Hartree energ DENC   =   -241054.73752804
  -exchange      EXHF   =         0.00000000
  -V(xc)+E(xc)   XCENC  =      1524.00094855
  PAW double counting   =     46177.43093508   -49897.18182425
  entropy T*S    EENTRO =         0.00000000
  eigenvalues    EBANDS =      -924.48925056
  atomic energy  EATOM  =     49002.19513870
  Solvation  Ediel_sol  =         0.00000000
  ---------------------------------------------------
  free energy    TOTEN  =       296.29813710 eV

  energy without entropy =      296.29813710  energy(sigma->0) =      296.29813710


--------------------------------------------------------------------------------------------------------




--------------------------------------- Iteration      1(   3)  ---------------------------------------


     EDDAV:  cpu time    6.8897: real time    6.8898
 BZINTS: Fermi energy:   -0.399958;  394.000000 electrons
         Band energy:-0.133507E+04;  BLOECHL correction:   -0.025511
       DOS:  cpu time    0.0103: real time    0.0103
    --------------------------------------------
      LOOP:  cpu time    6.9000: real time    6.9002

 eigenvalue-minimisations  :  5488
 total energy-change (2. order) :-0.4105856E+03  (-0.3827155E+03)
 number of electron     393.9999750 magnetization 
 augmentation part      393.9999750 magnetization 

 Free energy of the ion-electron system (eV)
  ---------------------------------------------------
  alpha Z        PSCENC =       777.82205640
  Ewald energy   TEWEN  =    194691.25766122
  -Hartree energ DENC   =   -241054.73752804
  -exchange      EXHF   =         0.00000000
  -V(xc)+E(xc)   XCENC  =      1524.00094855
  PAW double counting   =     46177.43093508   -49897.18182425
  entropy T*S    EENTRO =         0.00000000
  eigenvalues    EBANDS =     -1335.07486504
  atomic energy  EATOM  =     49002.19513870
  Solvation  Ediel_sol  =         0.00000000
  ---------------------------------------------------
  free energy    TOTEN  =      -114.28747738 eV

  energy without entropy =     -114.28747738  energy(sigma->0) =     -114.28747738


--------------------------------------------------------------------------------------------------------




--------------------------------------- Iteration      1(   4)  ---------------------------------------


     EDDAV:  cpu time    7.6679: real time    7.6681
 BZINTS: Fermi energy:   -0.590611;  394.000000 electrons
         Band energy:-0.135640E+04;  BLOECHL correction:   -0.050957
       DOS:  cpu time    0.0106: real time    0.0106
    --------------------------------------------
      LOOP:  cpu time    7.6785: real time    7.6787

 eigenvalue-minimisations  :  6244
 total energy-change (2. order) :-0.2132678E+02  (-0.2063588E+02)
 number of electron     393.9999750 magnetization 
 augmentation part      393.9999750 magnetization 

 Free energy of the ion-electron system (eV)
  ---------------------------------------------------
  alpha Z        PSCENC =       777.82205640
  Ewald energy   TEWEN  =    194691.25766122
  -Hartree energ DENC   =   -241054.73752804
  -exchange      EXHF   =         0.00000000
  -V(xc)+E(xc)   XCENC  =      1524.00094855
  PAW double counting   =     46177.43093508   -49897.18182425
  entropy T*S    EENTRO =         0.00000000
  eigenvalues    EBANDS =     -1356.40164236
  atomic energy  EATOM  =     49002.19513870
  Solvation  Ediel_sol  =         0.00000000
  ---------------------------------------------------
  free energy    TOTEN  =      -135.61425470 eV

  energy without entropy =     -135.61425470  energy(sigma->0) =     -135.61425470


--------------------------------------------------------------------------------------------------------




--------------------------------------- Iteration      1(   5)  ---------------------------------------


     EDDAV:  cpu time    7.6590: real time    7.6591
 BZINTS: Fermi energy:   -0.594386;  394.000000 electrons
         Band energy:-0.135691E+04;  BLOECHL correction:   -0.051496
       DOS:  cpu time    0.0106: real time    0.0106
    --------------------------------------------
      LOOP:  cpu time    7.6696: real time    7.6697

 eigenvalue-minimisations  :  6244
 total energy-change (2. order) :-0.5088755E+00  (-0.5082119E+00)
 number of electron     393.9999750 magnetization 
 augmentation part      393.9999750 magnetization 

 Free energy of the ion-electron system (eV)
  ---------------------------------------------------
  alpha Z        PSCENC =       777.82205640
  Ewald energy   TEWEN  =    194691.25766122
  -Hartree energ DENC   =   -241054.73752804
  -exchange      EXHF   =         0.00000000
  -V(xc)+E(xc)   XCENC  =      1524.00094855
  PAW double counting   =     46177.43093508   -49897.18182425
  entropy T*S    EENTRO =         0.00000000
  eigenvalues    EBANDS =     -1356.91051781
  atomic energy  EATOM  =     49002.19513870
  Solvation  Ediel_sol  =         0.00000000
  ---------------------------------------------------
  free energy    TOTEN  =      -136.12313015 eV

  energy without entropy =     -136.12313015  energy(sigma->0) =     -136.12313015


--------------------------------------------------------------------------------------------------------




--------------------------------------- Iteration      1(   6)  ---------------------------------------


    EDDIAG:  cpu time    1.1990: real time    1.1992
  RMM-DIIS:  cpu time    3.6771: real time    3.6772
    ORTHCH:  cpu time    0.2243: real time    0.2243
 BZINTS: Fermi energy:   -0.594416;  394.000000 electrons
         Band energy:-0.135692E+04;  BLOECHL correction:   -0.051495
       DOS:  cpu time    0.0103: real time    0.0103
    --------------------------------------------
      LOOP:  cpu time    5.1108: real time    5.1110

 eigenvalue-minimisations  :  5382
 total energy-change (2. order) :-0.1219502E-01  (-0.1219944E-01)
 number of electron     393.9999750 magnetization 
 augmentation part      393.9999750 magnetization 

 Free energy of the ion-electron system (eV)
  ---------------------------------------------------
  alpha Z        PSCENC =       777.82205640
  Ewald energy   TEWEN  =    194691.25766122
  -Hartree energ DENC   =   -241054.73752804
  -exchange      EXHF   =         0.00000000
  -V(xc)+E(xc)   XCENC  =      1524.00094855
  PAW double counting   =     46177.43093508   -49897.18182425
  entropy T*S    EENTRO =         0.00000000
  eigenvalues    EBANDS =     -1356.92271284
  atomic energy  EATOM  =     49002.19513870
  Solvation  Ediel_sol  =         0.00000000
  ---------------------------------------------------
  free energy    TOTEN  =      -136.13532518 eV

  energy without entropy =     -136.13532518  energy(sigma->0) =     -136.13532518


--------------------------------------------------------------------------------------------------------




--------------------------------------- Iteration      1(   7)  ---------------------------------------


    EDDIAG:  cpu time    1.2000: real time    1.2002
  RMM-DIIS:  cpu time    5.0922: real time    5.0922
    ORTHCH:  cpu time    0.2242: real time    0.2242
 BZINTS: Fermi energy:   -0.594427;  394.000000 electrons
         Band energy:-0.135693E+04;  BLOECHL correction:   -0.051495
       DOS:  cpu time    0.0098: real time    0.0098
    --------------------------------------------
      LOOP:  cpu time    6.5262: real time    6.5265

 eigenvalue-minimisations  :  7663
 total energy-change (2. order) :-0.4814025E-02  (-0.4813478E-02)
 number of electron     393.9999750 magnetization 
 augmentation part      393.9999750 magnetization 

 Free energy of the ion-electron system (eV)
  ---------------------------------------------------
  alpha Z        PSCENC =       777.82205640
  Ewald energy   TEWEN  =    194691.25766122
  -Hartree energ DENC   =   -241054.73752804
  -exchange      EXHF   =         0.00000000
  -V(xc)+E(xc)   XCENC  =      1524.00094855
  PAW double counting   =     46177.43093508   -49897.18182425
  entropy T*S    EENTRO =         0.00000000
  eigenvalues    EBANDS =     -1356.92752686
  atomic energy  EATOM  =     49002.19513870
  Solvation  Ediel_sol  =         0.00000000
  ---------------------------------------------------
  free energy    TOTEN  =      -136.14013920 eV

  energy without entropy =     -136.14013920  energy(sigma->0) =     -136.14013920


--------------------------------------------------------------------------------------------------------




--------------------------------------- Iteration      1(   8)  ---------------------------------------


    EDDIAG:  cpu time    1.2002: real time    1.2003
  RMM-DIIS:  cpu time    4.0670: real time    4.0670
    ORTHCH:  cpu time    0.2243: real time    0.2243
 BZINTS: Fermi energy:   -0.594428;  394.000000 electrons
         Band energy:-0.135693E+04;  BLOECHL correction:   -0.051495
       DOS:  cpu time    0.0103: real time    0.0103
    --------------------------------------------
      LOOP:  cpu time    5.5018: real time    5.5019

 eigenvalue-minimisations  :  5976
 total energy-change (2. order) :-0.2322938E-03  (-0.1930117E-03)
 number of electron     393.9999750 magnetization 
 augmentation part      393.9999750 magnetization 

 Free energy of the ion-electron system (eV)
  ---------------------------------------------------
  alpha Z        PSCENC =       777.82205640
  Ewald energy   TEWEN  =    194691.25766122
  -Hartree energ DENC   =   -241054.73752804
  -exchange      EXHF   =         0.00000000
  -V(xc)+E(xc)   XCENC  =      1524.00094855
  PAW double counting   =     46177.43093508   -49897.18182425
  entropy T*S    EENTRO =         0.00000000
  eigenvalues    EBANDS =     -1356.92775916
  atomic energy  EATOM  =     49002.19513870
  Solvation  Ediel_sol  =         0.00000000
  ---------------------------------------------------
  free energy    TOTEN  =      -136.14037149 eV

  energy without entropy =     -136.14037149  energy(sigma->0) =     -136.14037149


--------------------------------------------------------------------------------------------------------




--------------------------------------- Iteration      1(   9)  ---------------------------------------


    EDDIAG:  cpu time    1.1998: real time    1.1999
  RMM-DIIS:  cpu time    4.8536: real time    4.8536
    ORTHCH:  cpu time    0.2245: real time    0.2245
 BZINTS: Fermi energy:   -0.594428;  394.000000 electrons
         Band energy:-0.135693E+04;  BLOECHL correction:   -0.051495
       DOS:  cpu time    0.0101: real time    0.0101
    --------------------------------------------
      LOOP:  cpu time    6.2879: real time    6.2881

 eigenvalue-minimisations  :  7062
 total energy-change (2. order) :-0.6275621E-04  (-0.6117282E-04)
 number of electron     393.9999750 magnetization 
 augmentation part      393.9999750 magnetization 

 Free energy of the ion-electron system (eV)
  ---------------------------------------------------
  alpha Z        PSCENC =       777.82205640
  Ewald energy   TEWEN  =    194691.25766122
  -Hartree energ DENC   =   -241054.73752804
  -exchange      EXHF   =         0.00000000
  -V(xc)+E(xc)   XCENC  =      1524.00094855
  PAW double counting   =     46177.43093508   -49897.18182425
  entropy T*S    EENTRO =         0.00000000
  eigenvalues    EBANDS =     -1356.92782191
  atomic energy  EATOM  =     49002.19513870
  Solvation  Ediel_sol  =         0.00000000
  ---------------------------------------------------
  free energy    TOTEN  =      -136.14043425 eV

  energy without entropy =     -136.14043425  energy(sigma->0) =     -136.14043425


--------------------------------------------------------------------------------------------------------




--------------------------------------- Iteration      1(  10)  ---------------------------------------


    EDDIAG:  cpu time    1.1999: real time    1.2000
  RMM-DIIS:  cpu time    2.9365: real time    2.9365
    ORTHCH:  cpu time    0.2241: real time    0.2241
 BZINTS: Fermi energy:   -0.594428;  394.000000 electrons
         Band energy:-0.135693E+04;  BLOECHL correction:   -0.051495
       DOS:  cpu time    0.0099: real time    0.0099
    --------------------------------------------
      LOOP:  cpu time    4.3704: real time    4.3705

 eigenvalue-minimisations  :  3766
 total energy-change (2. order) :-0.2812129E-05  (-0.2133538E-05)
 number of electron     393.9999750 magnetization 
 augmentation part      393.9999750 magnetization 

 Free energy of the ion-electron system (eV)
  ---------------------------------------------------
  alpha Z        PSCENC =       777.82205640
  Ewald energy   TEWEN  =    194691.25766122
  -Hartree energ DENC   =   -241054.73752804
  -exchange      EXHF   =         0.00000000
  -V(xc)+E(xc)   XCENC  =      1524.00094855
  PAW double counting   =     46177.43093508   -49897.18182425
  entropy T*S    EENTRO =         0.00000000
  eigenvalues    EBANDS =     -1356.92782472
  atomic energy  EATOM  =     49002.19513870
  Solvation  Ediel_sol  =         0.00000000
  ---------------------------------------------------
  free energy    TOTEN  =      -136.14043706 eV

  energy without entropy =     -136.14043706  energy(sigma->0) =     -136.14043706


--------------------------------------------------------------------------------------------------------




 average (electrostatic) potential at core
  the test charge radii are     0.9430  1.2064  0.6991
  (the norm of the test charge is              1.0000)
       1 -71.5818       2 -71.5733       3 -71.5733       4 -71.5733       5 -71.5744
       6 -71.5730       7 -71.5733       8 -71.5730       9 -71.5705      10 -71.8442
      11 -71.8232      12 -71.8441      13 -71.8232      14 -71.8230      15 -71.8394
      16 -71.8441      17 -71.8394      18 -71.8395      19 -71.8229      20 -71.9705
      21 -71.9706      22 -71.8185      23 -71.9706      24 -71.8185      25 -71.8228
      26 -71.8229      27 -71.8185      28 -71.6149      29 -71.7035      30 -71.7035
      31 -71.7035      32 -71.7034      33 -71.7035      34 -71.7034      35 -71.6115
      36 -46.0896      37 -54.8835
 
 
 
 E-fermi :  -0.5944     XC(G=0):  -5.3437     alpha+bet : -4.7966

 Fermi energy:        -0.5944276916

 k-point     1 :       0.0000    0.0000    0.0000
  band No.  band energies     occupation 
      1      -9.4366      2.00000
      2      -8.7056      2.00000
      3      -7.9420      2.00000
      4      -6.4644      2.00000
      5      -6.4145      2.00000
      6      -6.4145      2.00000
      7      -6.3976      2.00000
      8      -6.3942      2.00000
      9      -6.3942      2.00000
     10      -6.2840      2.00000
     11      -5.6558      2.00000
     12      -5.6442      2.00000
     13      -5.6441      2.00000
     14      -5.6387      2.00000
     15      -5.6382      2.00000
     16      -5.6381      2.00000
     17      -5.4484      2.00000
     18      -4.9655      2.00000
     19      -4.9654      2.00000
     20      -4.9557      2.00000
     21      -4.9556      2.00000
     22      -4.9556      2.00000
     23      -4.8264      2.00000
     24      -4.6668      2.00000
     25      -4.6627      2.00000
     26      -4.6627      2.00000
     27      -4.6415      2.00000
     28      -4.6415      2.00000
     29      -4.6225      2.00000
     30      -4.4866      2.00000
     31      -4.4866      2.00000
     32      -4.4751      2.00000
     33      -4.4751      2.00000
     34      -4.4703      2.00000
     35      -4.4680      2.00000
     36      -4.4528      2.00000
     37      -4.4460      2.00000
     38      -4.4460      2.00000
     39      -4.4240      2.00000
     40      -4.4240      2.00000
     41      -4.4025      2.00000
     42      -4.3559      2.00000
     43      -4.3558      2.00000
     44      -4.3237      2.00000
     45      -4.3237      2.00000
     46      -4.2173      2.00000
     47      -4.2049      2.00000
     48      -4.1605      2.00000
     49      -4.1518      2.00000
     50      -4.1518      2.00000
     51      -4.1423      2.00000
     52      -4.1340      2.00000
     53      -4.1340      2.00000
     54      -4.0877      2.00000
     55      -4.0773      2.00000
     56      -3.8049      2.00000
     57      -3.8012      2.00000
     58      -3.7998      2.00000
     59      -3.7998      2.00000
     60      -3.7914      2.00000
     61      -3.7913      2.00000
     62      -3.7060      2.00000
     63      -3.7059      2.00000
     64      -3.6981      2.00000
     65      -3.6812      2.00000
     66      -3.6812      2.00000
     67      -3.6768      2.00000
     68      -3.6768      2.00000
     69      -3.6458      2.00000
     70      -3.6458      2.00000
     71      -3.6334      2.00000
     72      -3.6249      2.00000
     73      -3.5643      2.00000
     74      -3.5543      2.00000
     75      -3.5543      2.00000
     76      -3.4970      2.00000
     77      -3.4970      2.00000
     78      -3.4654      2.00000
     79      -3.4654      2.00000
     80      -3.4543      2.00000
     81      -3.4459      2.00000
     82      -3.4459      2.00000
     83      -3.4302      2.00000
     84      -3.4185      2.00000
     85      -3.4185      2.00000
     86      -3.3839      2.00000
     87      -3.3740      2.00000
     88      -3.3740      2.00000
     89      -3.3522      2.00000
     90      -3.3522      2.00000
     91      -3.3368      2.00000
     92      -3.3367      2.00000
     93      -3.3336      2.00000
     94      -3.2959      2.00000
     95      -3.2959      2.00000
     96      -3.2713      2.00000
     97      -3.2605      2.00000
     98      -3.2605      2.00000
     99      -3.2351      2.00000
    100      -3.2350      2.00000
    101      -3.2321      2.00000
    102      -3.2321      2.00000
    103      -3.2134      2.00000
    104      -3.2134      2.00000
    105      -3.2049      2.00000
    106      -3.1437      2.00000
    107      -3.1437      2.00000
    108      -3.1294      2.00000
    109      -3.0141      2.00000
    110      -3.0141      2.00000
    111      -2.9764      2.00000
    112      -2.9671      2.00000
    113      -2.9508      2.00000
    114      -2.9508      2.00000
    115      -2.9429      2.00000
    116      -2.9237      2.00000
    117      -2.9237      2.00000
    118      -2.9127      2.00000
    119      -2.9126      2.00000
    120      -2.9057      2.00000
    121      -2.8986      2.00000
    122      -2.8805      2.00000
    123      -2.7993      2.00000
    124      -2.7993      2.00000
    125      -2.7722      2.00000
    126      -2.7721      2.00000
    127      -2.7529      2.00000
    128      -2.7528      2.00000
    129      -2.7428      2.00000
    130      -2.7283      2.00000
    131      -2.7282      2.00000
    132      -2.7005      2.00000
    133      -2.7005      2.00000
    134      -2.6560      2.00000
    135      -2.6357      2.00000
    136      -2.6357      2.00000
    137      -2.6355      2.00000
    138      -2.6227      2.00000
    139      -2.6227      2.00000
    140      -2.6032      2.00000
    141      -2.5705      2.00000
    142      -2.5705      2.00000
    143      -2.5288      2.00000
    144      -2.5288      2.00000
    145      -2.5069      2.00000
    146      -2.5044      2.00000
    147      -2.5044      2.00000
    148      -2.5025      2.00000
    149      -2.4792      2.00000
    150      -2.4791      2.00000
    151      -2.4787      2.00000
    152      -2.4550      2.00000
    153      -2.4549      2.00000
    154      -2.4500      2.00000
    155      -2.4357      2.00000
    156      -2.4127      2.00000
    157      -2.3837      2.00000
    158      -2.3779      2.00000
    159      -2.3778      2.00000
    160      -2.3778      2.00000
    161      -2.3712      2.00000
    162      -2.3712      2.00000
    163      -2.3529      2.00000
    164      -2.3529      2.00000
    165      -2.3456      2.00000
    166      -2.3456      2.00000
    167      -2.3439      2.00000
    168      -2.3436      2.00000
    169      -2.3274      2.00000
    170      -2.3274      2.00000
    171      -2.3002      2.00000
    172      -2.3002      2.00000
    173      -2.2787      2.00000
    174      -2.2787      2.00000
    175      -2.2763      2.00000
    176      -2.2747      2.00000
    177      -2.2692      2.00000
    178      -2.2692      2.00000
    179      -2.2672      2.00000
    180      -2.2615      2.00000
    181      -2.2615      2.00000
    182      -2.2609      2.00000
    183      -2.2448      2.00000
    184      -2.2121      2.00000
    185      -2.2121      2.00000
    186      -2.1665      2.00000
    187      -2.1665      2.00000
    188      -2.1658      2.00000
    189      -2.1509      2.00000
    190      -2.1509      2.00000
    191      -2.1485      2.00000
    192      -1.6293      2.00000
    193      -1.5903      2.00000
    194      -1.5903      2.00000
    195      -1.2705      2.00000
    196      -0.9866      2.00000
    197      -0.9866      2.00000
    198      -0.9416      2.00000
    199      -0.8467      2.00000
    200      -0.6340      1.47383
    201      -0.6340      0.45779
    202      -0.3574      0.00000
    203      -0.0531      0.00000
    204      -0.0531      0.00000
    205       1.2557      0.00000
    206       1.3894      0.00000
    207       1.3958      0.00000
    208       1.3958      0.00000
    209       1.7705      0.00000
    210       1.7705      0.00000
    211       2.4941      0.00000
    212       2.4941      0.00000
    213       2.7889      0.00000
    214       2.8962      0.00000
    215       3.0854      0.00000
    216       3.0854      0.00000
    217       3.4236      0.00000
    218       3.4236      0.00000
    219       3.6293      0.00000
    220       3.9059      0.00000
    221       3.9059      0.00000
    222       3.9219      0.00000
    223       3.9279      0.00000
    224       3.9478      0.00000
    225       3.9478      0.00000
    226       4.2195      0.00000
    227       4.2195      0.00000
    228       4.4715      0.00000
    229       4.5412      0.00000
    230       4.6098      0.00000
    231       4.6098      0.00000
    232       4.8019      0.00000
    233       5.1121      0.00000
    234       5.3884      0.00000
    235       5.7202      0.00000
    236       5.7203      0.00000
    237       5.9763      0.00000
    238       5.9763      0.00000
    239       6.1991      0.00000
    240       6.2845      0.00000
    241       6.2847      0.00000
    242       6.3464      0.00000
    243       6.4813      0.00000
    244       6.4833      0.00000
    245       6.5429      0.00000
    246       6.8522      0.00000
    247       6.9059      0.00000
    248       6.9154      0.00000
    249       6.9258      0.00000
    250       6.9704      0.00000
    251       6.9758      0.00000
    252       7.0308      0.00000

 k-point     2 :       0.1250   -0.0000    0.0000
  band No.  band energies     occupation 
      1      -9.3839      2.00000
      2      -8.6940      2.00000
      3      -7.9028      2.00000
      4      -6.9571      2.00000
      5      -6.6494      2.00000
      6      -6.6295      2.00000
      7      -6.3632      2.00000
      8      -6.1136      2.00000
      9      -6.0953      2.00000
     10      -5.9613      2.00000
     11      -5.9071      2.00000
     12      -5.7734      2.00000
     13      -5.7102      2.00000
     14      -5.5948      2.00000
     15      -5.4864      2.00000
     16      -5.4454      2.00000
     17      -5.3702      2.00000
     18      -5.0025      2.00000
     19      -4.9596      2.00000
     20      -4.9492      2.00000
     21      -4.9384      2.00000
     22      -4.9328      2.00000
     23      -4.8192      2.00000
     24      -4.7156      2.00000
     25      -4.6697      2.00000
     26      -4.6691      2.00000
     27      -4.6214      2.00000
     28      -4.6121      2.00000
     29      -4.5983      2.00000
     30      -4.5918      2.00000
     31      -4.5857      2.00000
     32      -4.5538      2.00000
     33      -4.5454      2.00000
     34      -4.5158      2.00000
     35      -4.4601      2.00000
     36      -4.4581      2.00000
     37      -4.4463      2.00000
     38      -4.4426      2.00000
     39      -4.3767      2.00000
     40      -4.3714      2.00000
     41      -4.3545      2.00000
     42      -4.3430      2.00000
     43      -4.3413      2.00000
     44      -4.2716      2.00000
     45      -4.2702      2.00000
     46      -4.2304      2.00000
     47      -4.2279      2.00000
     48      -4.2151      2.00000
     49      -4.1888      2.00000
     50      -4.1817      2.00000
     51      -4.0992      2.00000
     52      -4.0948      2.00000
     53      -4.0665      2.00000
     54      -4.0587      2.00000
     55      -4.0501      2.00000
     56      -3.8829      2.00000
     57      -3.8564      2.00000
     58      -3.8562      2.00000
     59      -3.8066      2.00000
     60      -3.7991      2.00000
     61      -3.7847      2.00000
     62      -3.7357      2.00000
     63      -3.7321      2.00000
     64      -3.7015      2.00000
     65      -3.6992      2.00000
     66      -3.6921      2.00000
     67      -3.6804      2.00000
     68      -3.6667      2.00000
     69      -3.6576      2.00000
     70      -3.6268      2.00000
     71      -3.6253      2.00000
     72      -3.6057      2.00000
     73      -3.5722      2.00000
     74      -3.5588      2.00000
     75      -3.5368      2.00000
     76      -3.4884      2.00000
     77      -3.4834      2.00000
     78      -3.4782      2.00000
     79      -3.4723      2.00000
     80      -3.4584      2.00000
     81      -3.4343      2.00000
     82      -3.4330      2.00000
     83      -3.4143      2.00000
     84      -3.4097      2.00000
     85      -3.4068      2.00000
     86      -3.3962      2.00000
     87      -3.3839      2.00000
     88      -3.3776      2.00000
     89      -3.3620      2.00000
     90      -3.3537      2.00000
     91      -3.3537      2.00000
     92      -3.3470      2.00000
     93      -3.3096      2.00000
     94      -3.3046      2.00000
     95      -3.2975      2.00000
     96      -3.2962      2.00000
     97      -3.2618      2.00000
     98      -3.2538      2.00000
     99      -3.2347      2.00000
    100      -3.2250      2.00000
    101      -3.2243      2.00000
    102      -3.2209      2.00000
    103      -3.2165      2.00000
    104      -3.2037      2.00000
    105      -3.1907      2.00000
    106      -3.1830      2.00000
    107      -3.1816      2.00000
    108      -3.1229      2.00000
    109      -3.1111      2.00000
    110      -3.0935      2.00000
    111      -3.0692      2.00000
    112      -3.0392      2.00000
    113      -3.0088      2.00000
    114      -2.9955      2.00000
    115      -2.9770      2.00000
    116      -2.9539      2.00000
    117      -2.9344      2.00000
    118      -2.9310      2.00000
    119      -2.9228      2.00000
    120      -2.9195      2.00000
    121      -2.9133      2.00000
    122      -2.8933      2.00000
    123      -2.8886      2.00000
    124      -2.8421      2.00000
    125      -2.7715      2.00000
    126      -2.7703      2.00000
    127      -2.7636      2.00000
    128      -2.7264      2.00000
    129      -2.7216      2.00000
    130      -2.7173      2.00000
    131      -2.7103      2.00000
    132      -2.6982      2.00000
    133      -2.6971      2.00000
    134      -2.6865      2.00000
    135      -2.6831      2.00000
    136      -2.6720      2.00000
    137      -2.6388      2.00000
    138      -2.6350      2.00000
    139      -2.6082      2.00000
    140      -2.6076      2.00000
    141      -2.5944      2.00000
    142      -2.5844      2.00000
    143      -2.5831      2.00000
    144      -2.5377      2.00000
    145      -2.5235      2.00000
    146      -2.5076      2.00000
    147      -2.4961      2.00000
    148      -2.4891      2.00000
[...]
  0.000   0.000   0.000   0.000   0.000   0.000   0.000   0.000   0.000   0.000   0.000   0.000   0.000   0.000   0.000   0.000
  0.000   0.000   0.000   0.000   0.000   0.000   0.000   0.000   0.000   0.000   0.000   0.000   0.000   0.000   0.000   0.000
  0.000   0.000   0.000   0.000   0.000   0.000   0.000   0.000   0.000   0.000   0.000   0.000   0.000   0.000   0.000   0.000
  0.000   0.000   0.000   0.000   0.000   0.000   0.000   0.000   0.000   0.000   0.000   0.000   0.000   0.000   0.000   0.000
  0.000   0.000   0.000   0.000   0.000   0.000   0.000   0.000   0.000   0.000   0.000   0.000   0.000   0.000   0.000   0.000
  0.000   0.000   0.000   0.000   0.000   0.000   0.000   0.000   0.000   0.000   1.000   0.000   0.000   0.000   0.000   0.000
  0.000   0.000   0.000   0.000   0.000   0.000   0.000   0.000   0.000   0.000   0.000   0.000   0.000   0.000   0.000   0.000
  0.000   0.000   0.000   0.000   0.000   0.000   0.000   0.000   0.000   0.000   0.000   0.000   0.000   0.000   0.000   0.000
  0.000   0.000   0.000   0.000   0.000   0.000   0.000   0.000   0.000   0.000   0.000   0.000   0.000   0.000   0.000   0.000
  0.000   0.000   0.000   0.000   0.000   0.000   0.000   0.000   0.000   0.000   0.000   0.000   0.000   0.000   0.000   0.000
  0.000   0.000   0.000   0.000   0.000   0.000   0.000   0.000   0.000   0.000   0.000   0.000   0.000   0.000   0.000   0.000
  0.000   0.000   0.000   0.000   0.000   0.000   0.000   0.000   0.000   0.000   0.000   0.000   0.000   0.000   0.000   0.000
  0.000   0.000   0.000   0.000   0.000   0.000   0.000   0.000   0.000   0.000   0.000   0.000   0.000   0.000   0.000   0.000


------------------------ aborting loop because EDIFF is reached ----------------------------------------





 total charge

# of ion       s       p       d       tot
------------------------------------------
    1        0.448   0.285   9.187   9.921
    2        0.447   0.285   9.186   9.919
    3        0.447   0.285   9.186   9.919
    4        0.447   0.285   9.186   9.919
    5        0.451   0.283   9.185   9.919
    6        0.447   0.285   9.186   9.919
    7        0.447   0.285   9.186   9.919
    8        0.447   0.285   9.186   9.919
    9        0.448   0.285   9.188   9.921
   10        0.441   0.372   9.178   9.991
   11        0.442   0.368   9.180   9.990
   12        0.441   0.372   9.178   9.991
   13        0.442   0.368   9.180   9.990
   14        0.442   0.368   9.180   9.990
   15        0.439   0.371   9.176   9.987
   16        0.441   0.372   9.178   9.991
   17        0.439   0.371   9.176   9.987
   18        0.439   0.371   9.176   9.987
   19        0.440   0.368   9.181   9.989
   20        0.454   0.387   9.168  10.009
   21        0.454   0.387   9.168  10.009
   22        0.432   0.374   9.180   9.986
   23        0.454   0.387   9.168  10.009
   24        0.432   0.374   9.180   9.986
   25        0.440   0.368   9.181   9.989
   26        0.440   0.368   9.181   9.989
   27        0.432   0.374   9.180   9.986
   28        0.449   0.286   9.187   9.922
   29        0.460   0.297   9.174   9.930
   30        0.460   0.297   9.174   9.930
   31        0.460   0.297   9.174   9.930
   32        0.460   0.297   9.174   9.930
   33        0.460   0.297   9.174   9.930
   34        0.460   0.297   9.174   9.930
   35        0.450   0.285   9.186   9.921
   36        0.576   0.723   3.905   5.204
   37        1.000   1.215   0.000   2.215
--------------------------------------------------
tot         17.207  13.577 325.186 355.970
 
    CHARGE:  cpu time    0.2616: real time    0.2617
    FORLOC:  cpu time    0.0085: real time    0.0085
    FORNL :  cpu time    1.3695: real time    1.3697
    STRESS:  cpu time    4.0772: real time    4.0776
    FORCOR:  cpu time    0.0325: real time    0.0326
    FORHAR:  cpu time    0.0134: real time    0.0135
    OFIELD:  cpu time    0.0002: real time    0.0002

  FORCE on cell =-STRESS in cart. coord.  units (eV):
  Direction    XX          YY          ZZ          XY          YZ          ZX
  --------------------------------------------------------------------------------------
  Alpha Z   777.82206   777.82206   777.82206
  Ewald  220339.48082220339.48047************     0.00037     0.00013     0.00016
  Hartree232862.45712232862.45713************     0.00003     0.00006     0.00006
  E(xc)   -2281.84198 -2281.84149 -2289.17684    -0.00042    -0.00004    -0.00006
  Local  ************************466347.68409     0.01857    -0.00058    -0.00091
  n-local  -759.50084  -748.39693  -769.82019     6.18676    -0.08715     0.23887
  augment  3325.03523  3325.05570  3349.57951    -0.01772     0.00033     0.00052
  Kinetic  3216.98460  3218.96929  3246.63752     2.65254     1.73560    -1.20364
  Fock        0.00000     0.00000     0.00000     0.00000     0.00000     0.00000
  -------------------------------------------------------------------------------------
  Total      -7.68200    -7.68200    -2.27752     0.00000     0.00000    -0.00000
  in kB     -10.08428   -10.08428    -2.98973     0.00000     0.00000    -0.00000
  external pressure =       -7.72 kB  Pullay stress =        0.00 kB


 VOLUME and BASIS-vectors are now :
 -----------------------------------------------------------------------------
  energy-cutoff  :      500.00
  volume of cell :     1220.51
      direct lattice vectors                 reciprocal lattice vectors
     7.696786404  0.000000000  0.000000000     0.129924354 -0.075011849  0.000000000
     3.848392758  6.665612809  0.000000000     0.000000000  0.150023716  0.000000000
     0.000000000  0.000000000 23.789778673     0.000000000  0.000000000  0.042034859

  length of vectors
     7.696786404  7.696786404 23.789778673     0.150023716  0.150023716  0.042034859


 FORCES acting on ions
    electron-ion (+dipol)            ewald-force                    non-local-force                 convergence-correction
 -----------------------------------------------------------------------------------------------
   -.423E-04 -.288E-06 0.369E+04   0.581E-04 -.430E-05 -.369E+04   -.627E-17 0.204E-17 -.227E+01   -.278E-03 -.128E-03 -.288E-01
   -.825E+00 -.777E+00 0.369E+04   0.583E+00 0.539E+00 -.369E+04   0.708E-01 0.112E+00 -.196E+01   0.164E+00 0.117E+00 -.734E-01
   0.825E+00 -.777E+00 0.369E+04   -.583E+00 0.539E+00 -.369E+04   -.708E-01 0.112E+00 -.196E+01   -.164E+00 0.119E+00 -.726E-01
   -.109E+01 -.326E+00 0.369E+04   0.758E+00 0.235E+00 -.369E+04   0.132E+00 0.547E-02 -.196E+01   0.183E+00 0.840E-01 -.734E-01
   -.640E-04 -.477E-05 0.369E+04   0.116E-03 -.101E-04 -.369E+04   0.146E-17 -.326E-17 -.181E+01   0.121E-01 0.740E-02 -.270E-01
   0.109E+01 -.326E+00 0.369E+04   -.758E+00 0.235E+00 -.369E+04   -.132E+00 0.547E-02 -.196E+01   -.185E+00 0.852E-01 -.723E-01
   -.261E+00 0.110E+01 0.369E+04   0.176E+00 -.774E+00 -.369E+04   0.613E-01 -.117E+00 -.196E+01   0.215E-01 -.201E+00 -.725E-01
   0.261E+00 0.110E+01 0.369E+04   -.176E+00 -.774E+00 -.369E+04   -.613E-01 -.117E+00 -.196E+01   -.180E-01 -.203E+00 -.724E-01
   -.144E-03 -.333E-04 0.369E+04   0.263E-03 0.205E-04 -.369E+04   0.405E-17 -.303E-19 -.219E+01   -.132E-01 -.680E-02 0.285E-01
   -.490E+01 -.283E+01 0.121E+04   0.491E+01 0.284E+01 -.121E+04   -.216E+00 -.125E+00 -.798E+00   0.193E+00 0.111E+00 0.297E+00
   -.880E-04 -.506E+01 0.120E+04   0.189E-03 0.492E+01 -.120E+04   -.655E-08 0.983E-01 -.719E+00   0.115E-01 0.463E-01 0.321E+00
   0.490E+01 -.283E+01 0.121E+04   -.491E+01 0.284E+01 -.121E+04   0.216E+00 -.125E+00 -.798E+00   -.194E+00 0.112E+00 0.296E+00
   -.439E+01 0.253E+01 0.120E+04   0.427E+01 -.246E+01 -.120E+04   0.851E-01 -.492E-01 -.719E+00   0.463E-01 -.124E-01 0.321E+00
   0.439E+01 0.253E+01 0.120E+04   -.427E+01 -.246E+01 -.120E+04   -.851E-01 -.492E-01 -.719E+00   -.228E-01 -.135E-01 0.319E+00
   -.138E-03 -.103E+01 0.121E+04   0.297E-03 0.944E+00 -.121E+04   -.451E-08 0.677E-01 -.898E+00   -.311E-02 0.275E-01 0.211E+00
   -.899E-04 0.566E+01 0.121E+04   0.186E-03 -.567E+01 -.121E+04   -.166E-07 0.249E+00 -.798E+00   -.702E-03 -.225E+00 0.296E+00
   -.894E+00 0.516E+00 0.121E+04   0.817E+00 -.472E+00 -.121E+04   0.586E-01 -.338E-01 -.898E+00   0.230E-01 -.165E-01 0.211E+00
   0.894E+00 0.516E+00 0.121E+04   -.817E+00 -.472E+00 -.121E+04   -.586E-01 -.338E-01 -.898E+00   -.218E-01 -.143E-01 0.212E+00
   -.659E-04 -.682E+01 -.126E+04   0.720E-04 0.664E+01 0.126E+04   -.539E-08 0.809E-01 0.122E+01   0.102E-02 0.123E+00 0.132E+00
   -.498E+02 -.288E+02 -.133E+04   0.497E+02 0.287E+02 0.133E+04   -.346E+00 -.200E+00 -.593E-01   0.222E+00 0.128E+00 0.290E+00
   0.498E+02 -.288E+02 -.133E+04   -.497E+02 0.287E+02 0.133E+04   0.346E+00 -.200E+00 -.593E-01   -.242E+00 0.127E+00 0.289E+00
   -.235E+02 0.136E+02 -.128E+04   0.230E+02 -.133E+02 0.128E+04   0.324E+00 -.187E+00 0.808E+00   0.232E+00 -.135E+00 0.935E-01
   -.785E-04 0.575E+02 -.133E+04   0.151E-03 -.574E+02 0.133E+04   -.266E-07 0.400E+00 -.593E-01   -.124E-01 -.274E+00 0.289E+00
   0.235E+02 0.136E+02 -.128E+04   -.230E+02 -.133E+02 0.128E+04   -.324E+00 -.187E+00 0.808E+00   -.230E+00 -.134E+00 0.940E-01
   0.591E+01 0.341E+01 -.126E+04   -.575E+01 -.332E+01 0.126E+04   -.701E-01 -.405E-01 0.122E+01   -.107E+00 -.615E-01 0.132E+00
   -.591E+01 0.341E+01 -.126E+04   0.575E+01 -.332E+01 0.126E+04   0.701E-01 -.405E-01 0.122E+01   0.108E+00 -.606E-01 0.132E+00
   -.124E-03 -.272E+02 -.128E+04   0.239E-03 0.266E+02 0.128E+04   -.249E-07 0.374E+00 0.808E+00   -.982E-03 0.268E+00 0.936E-01
   -.377E-04 0.160E-04 -.367E+04   0.423E-04 -.323E-04 0.367E+04   0.182E-17 -.108E-17 0.228E+01   -.137E-02 -.740E-03 -.119E+00
   -.321E+02 -.614E+02 -.367E+04   0.321E+02 0.615E+02 0.367E+04   -.367E+00 -.525E+00 0.273E+01   0.284E+00 0.363E+00 -.160E+00
   0.321E+02 -.614E+02 -.367E+04   -.321E+02 0.615E+02 0.367E+04   0.367E+00 -.525E+00 0.273E+01   -.262E+00 0.364E+00 -.160E+00
   -.692E+02 0.290E+01 -.367E+04   0.693E+02 -.291E+01 0.367E+04   -.639E+00 -.554E-01 0.273E+01   0.456E+00 0.642E-01 -.160E+00
   0.692E+02 0.290E+01 -.367E+04   -.693E+02 -.291E+01 0.367E+04   0.639E+00 -.554E-01 0.273E+01   -.434E+00 0.654E-01 -.159E+00
   -.371E+02 0.585E+02 -.367E+04   0.372E+02 -.586E+02 0.367E+04   -.271E+00 0.581E+00 0.273E+01   0.185E+00 -.409E+00 -.160E+00
   0.371E+02 0.585E+02 -.367E+04   -.372E+02 -.586E+02 0.367E+04   0.271E+00 0.581E+00 0.273E+01   -.160E+00 -.409E+00 -.159E+00
   -.123E-03 -.150E-04 -.369E+04   0.249E-03 0.281E-05 0.369E+04   0.194E-17 0.114E-17 0.253E+01   -.143E-01 -.742E-02 -.647E-01
   -.446E-04 -.124E-04 -.158E+04   0.627E-04 0.126E-04 0.157E+04   -.250E-17 -.295E-18 0.814E+00   0.390E-04 0.364E-04 -.122E+00
   0.519E-04 -.194E-04 -.156E+04   0.124E-04 0.566E-05 0.157E+04   -.104E-17 -.711E-18 -.426E+01   0.344E-03 0.209E-03 -.409E+00
 -----------------------------------------------------------------------------------------------
   -.177E-03 -.114E-05 -.304E+00   -.425E-13 0.285E-14 -.682E-11   -.160E-17 0.133E-18 -.166E+01   0.558E-01 0.291E-01 0.189E+01
 
 
 POSITION                                       TOTAL-FORCE (eV/Angst)
 -----------------------------------------------------------------------------------
      0.00000      0.00000      5.37156         0.000000      0.000000      0.021950
      2.56560      0.00000      5.37156        -0.006726     -0.008719      0.055485
      5.13119      0.00000      5.37156         0.006726     -0.008719      0.055485
      1.28280      2.22187      5.37156        -0.010913     -0.001465      0.055485
      3.84839      2.22187      5.37156        -0.000000     -0.000000      0.039666
      6.41399      2.22187      5.37156         0.010913     -0.001465      0.055485
      2.56560      4.44374      5.37156        -0.004188      0.010184      0.055485
      5.13119      4.44374      5.37156         0.004188      0.010184      0.055485
      7.69679      4.44374      5.37156         0.000000      0.000000      0.037254
      1.28280      0.74062      7.46636        -0.010754     -0.006209     -0.055998
      3.84839      0.74062      7.46636         0.000000     -0.000517     -0.073984
      6.41399      0.74062      7.46636         0.010754     -0.006209     -0.055998
      2.56560      2.96249      7.46636        -0.000447      0.000258     -0.073984
      5.13119      2.96249      7.46636         0.000447      0.000258     -0.073984
      7.69679      2.96249      7.46636        -0.000000      0.006525     -0.006480
      3.84839      5.18437      7.46636        -0.000000      0.012417     -0.055998
      6.41399      5.18437      7.46636         0.005651     -0.003263     -0.006480
      8.97958      5.18437      7.46636        -0.005651     -0.003263     -0.006480
      7.69679      1.48017      9.54910        -0.000000      0.020570      0.124192
      2.56637      1.48170      9.55121        -0.184380     -0.106452     -0.209619
      5.13041      1.48170      9.55121         0.184380     -0.106452     -0.209619
      8.97729      3.70444      9.56154         0.038409     -0.022176      0.049131
      3.84839      3.70222      9.55121        -0.000000      0.212904     -0.209619
      6.41628      3.70444      9.56154        -0.038409     -0.022176      0.049131
     10.26332      5.92553      9.54910        -0.017814     -0.010285      0.124192
      5.13026      5.92553      9.54910         0.017814     -0.010285      0.124192
      7.69679      5.92234      9.56154        -0.000000      0.044351      0.049131
      0.00000      0.00000     11.64072         0.000000      0.000000     -0.113227
      2.56831      0.00307     11.65724        -0.031098     -0.035848      0.085825
      5.12847      0.00307     11.65724         0.031098     -0.035848      0.085825
      1.28681      2.22269     11.65724        -0.046594     -0.009008      0.085825
      6.40997      2.22269     11.65724         0.046594     -0.009008      0.085825
      2.56689      4.43985     11.65724        -0.015496      0.044856      0.085825
      5.12989      4.43985     11.65724         0.015496      0.044856      0.085825
      7.69679      4.44374     11.65596        -0.000000     -0.000000     -0.130427
      3.84839      2.22187     11.62023         0.000000      0.000000     -0.209360
      3.84839      2.22187     13.31992         0.000000      0.000000      0.024558
 -----------------------------------------------------------------------------------
    total drift:                                0.055612      0.029135     -0.075807


--------------------------------------------------------------------------------------------------------



  FREE ENERGIE OF THE ION-ELECTRON SYSTEM (eV)
  ---------------------------------------------------
  free  energy   TOTEN  =      -136.14043706 eV

  energy  without entropy=     -136.14043706  energy(sigma->0) =     -136.14043706
 


--------------------------------------------------------------------------------------------------------


    POTLOK:  cpu time    0.0328: real time    0.0328


--------------------------------------------------------------------------------------------------------


 stress matrix after NEB project (eV)
     -7.68200      0.00000     -0.00000
      0.00000     -7.68200      0.00000
     -0.00000      0.00000     -2.27752
  FORCES: max atom, RMS     0.024558    0.004037
  FORCE total and by dimension    0.024558    0.024558
  Stress total and by dimension   11.100149    7.681999
     LOOP+:  cpu time   68.8397: real time   68.8508
 -----------------------------------------------------------------------------
|                                                                             |
|           W    W    AA    RRRRR   N    N  II  N    N   GGGG   !!!           |
|           W    W   A  A   R    R  NN   N  II  NN   N  G    G  !!!           |
|           W    W  A    A  R    R  N N  N  II  N N  N  G       !!!           |
|           W WW W  AAAAAA  RRRRR   N  N N  II  N  N N  G  GGG   !            |
|           WW  WW  A    A  R   R   N   NN  II  N   NN  G    G                |
|           W    W  A    A  R    R  N    N  II  N    N   GGGG   !!!           |
|                                                                             |
|     Tetrahedron method does not include variations of the Fermi             |
|     occupations, so forces and stress will be inaccurate. We suggest        |
|     using a different smearing scheme ISMEAR = 1 or 2 for metals in         |
|     relaxations.                                                            |
|                                                                             |
 -----------------------------------------------------------------------------

    4ORBIT:  cpu time    0.0000: real time    0.0000



 total charge

# of ion       s       p       d       tot
------------------------------------------
    1        0.448   0.285   9.187   9.921
    2        0.447   0.285   9.186   9.919
    3        0.447   0.285   9.186   9.919
    4        0.447   0.285   9.186   9.919
    5        0.451   0.283   9.185   9.919
    6        0.447   0.285   9.186   9.919
    7        0.447   0.285   9.186   9.919
    8        0.447   0.285   9.186   9.919
    9        0.448   0.285   9.188   9.921
   10        0.441   0.372   9.178   9.991
   11        0.442   0.368   9.180   9.990
   12        0.441   0.372   9.178   9.991
   13        0.442   0.368   9.180   9.990
   14        0.442   0.368   9.180   9.990
   15        0.439   0.371   9.176   9.987
   16        0.441   0.372   9.178   9.991
   17        0.439   0.371   9.176   9.987
   18        0.439   0.371   9.176   9.987
   19        0.440   0.368   9.181   9.989
   20        0.454   0.387   9.168  10.009
   21        0.454   0.387   9.168  10.009
   22        0.432   0.374   9.180   9.986
   23        0.454   0.387   9.168  10.009
   24        0.432   0.374   9.180   9.986
   25        0.440   0.368   9.181   9.989
   26        0.440   0.368   9.181   9.989
   27        0.432   0.374   9.180   9.986
   28        0.449   0.286   9.187   9.922
   29        0.460   0.297   9.174   9.930
   30        0.460   0.297   9.174   9.930
   31        0.460   0.297   9.174   9.930
   32        0.460   0.297   9.174   9.930
   33        0.460   0.297   9.174   9.930
   34        0.460   0.297   9.174   9.930
   35        0.450   0.285   9.186   9.921
   36        0.576   0.723   3.905   5.204
   37        1.000   1.215   0.000   2.215
--------------------------------------------------
tot         17.207  13.577 325.186 355.970
 
 BZINTS: Fermi energy:   -0.594428;  394.000000 electrons
         Band energy:-0.135693E+04;  BLOECHL correction:   -0.051495

 total amount of memory used by VASP MPI-rank0   112744. kBytes
=======================================================================

   base      :      30000. kBytes
   nonlr-proj:      18647. kBytes
   fftplans  :       3394. kBytes
   grid      :      14446. kBytes
   one-center:        575. kBytes
   wavefun   :      45682. kBytes
 
  
  
 General timing and accounting informations for this job:
 ========================================================
  
                  Total CPU time used (sec):       75.284
                            User time (sec):       72.408
                          System time (sec):        2.876
                         Elapsed time (sec):       75.640
  
                   Maximum memory used (kb):      356248.
                   Average memory used (kb):          N/A
  
                          Minor page faults:        83068
                          Major page faults:            0
                 Voluntary context switches:         4609
