PROCAR new format
# of k-points:   10         # of bands:  252         # of ions:   37

 k-point     1 :    0.00000000 0.00000000 0.00000000     weight = 0.01562500

band     1 # energy   -9.43656398 # occ.  2.00000000
 
ion      s      p      d    tot
    1  0.006  0.001  0.000  0.006
    2  0.006  0.001  0.000  0.006
    3  0.006  0.001  0.000  0.006
    4  0.006  0.001  0.000  0.006
    5  0.006  0.001  0.000  0.006
    6  0.006  0.001  0.000  0.006
    7  0.006  0.001  0.000  0.006
    8  0.006  0.001  0.000  0.006
    9  0.006  0.001  0.000  0.006
   10  0.022  0.000  0.000  0.022
   11  0.022  0.000  0.000  0.022
   12  0.022  0.000  0.000  0.022
   13  0.022  0.000  0.000  0.022
   14  0.022  0.000  0.000  0.022
   15  0.022  0.000  0.000  0.022
   16  0.022  0.000  0.000  0.022
   17  0.022  0.000  0.000  0.022
   18  0.022  0.000  0.000  0.022
   19  0.023  0.000  0.000  0.024
   20  0.025  0.000  0.000  0.025
   21  0.025  0.000  0.000  0.025
   22  0.023  0.000  0.000  0.023
   23  0.025  0.000  0.000  0.025
   24  0.023  0.000  0.000  0.023
   25  0.023  0.000  0.000  0.024
   26  0.023  0.000  0.000  0.024
   27  0.023  0.000  0.000  0.023
   28  0.007  0.001  0.000  0.008
   29  0.008  0.001  0.000  0.008
   30  0.008  0.001  0.000  0.008
   31  0.008  0.001  0.000  0.008
   32  0.008  0.001  0.000  0.008
   33  0.008  0.001  0.000  0.008
   34  0.008  0.001  0.000  0.008
   35  0.007  0.001  0.000  0.008
   36  0.027  0.001  0.006  0.033
   37  0.025  0.001  0.000  0.026
tot    0.575  0.015  0.007  0.597
 
band     2 # energy   -8.70556337 # occ.  2.00000000
 
ion      s      p      d    tot
    1  0.004  0.000  0.000  0.005
    2  0.004  0.000  0.000  0.005
    3  0.004  0.000  0.000  0.005
    4  0.004  0.000  0.000  0.005
    5  0.004  0.000  0.000  0.004
    6  0.004  0.000  0.000  0.005
    7  0.004  0.000  0.000  0.005
    8  0.004  0.000  0.000  0.005
    9  0.004  0.000  0.000  0.005
   10  0.007  0.000  0.000  0.007
   11  0.006  0.000  0.000  0.006
   12  0.007  0.000  0.000  0.007
   13  0.006  0.000  0.000  0.006
   14  0.006  0.000  0.000  0.006
   15  0.007  0.000  0.000  0.007
   16  0.007  0.000  0.000  0.007
   17  0.007  0.000  0.000  0.007
   18  0.007  0.000  0.000  0.007
   19  0.000  0.001  0.000  0.001
   20  0.000  0.002  0.000  0.002
   21  0.000  0.002  0.000  0.002
   22  0.000  0.001  0.000  0.001
   23  0.000  0.002  0.000  0.002
   24  0.000  0.001  0.000  0.001
   25  0.000  0.001  0.000  0.001
   26  0.000  0.001  0.000  0.001
   27  0.000  0.001  0.000  0.001
   28  0.001  0.000  0.000  0.001
   29  0.004  0.000  0.001  0.005
   30  0.004  0.000  0.001  0.005
   31  0.004  0.000  0.001  0.005
   32  0.004  0.000  0.001  0.005
   33  0.004  0.000  0.001  0.005
   34  0.004  0.000  0.001  0.005
   35  0.001  0.000  0.000  0.001
   36  0.106  0.056  0.087  0.249
   37  0.345  0.008  0.000  0.353
tot    0.574  0.079  0.093  0.747
 
band     3 # energy   -7.94195624 # occ.  2.00000000
 
ion      s      p      d    tot
    1  0.016  0.001  0.001  0.017
    2  0.016  0.001  0.001  0.017
    3  0.016  0.001  0.001  0.017
    4  0.016  0.001  0.001  0.017
    5  0.016  0.001  0.001  0.018
    6  0.016  0.001  0.001  0.017
    7  0.016  0.001  0.001  0.017
    8  0.016  0.001  0.001  0.017
    9  0.016  0.001  0.001  0.017
   10  0.006  0.002  0.000  0.009
   11  0.007  0.002  0.000  0.009
   12  0.006  0.002  0.000  0.009
   13  0.007  0.002  0.000  0.009
   14  0.007  0.002  0.000  0.009
   15  0.005  0.003  0.000  0.008
   16  0.006  0.002  0.000  0.009
   17  0.005  0.003  0.000  0.008
   18  0.005  0.003  0.000  0.008
   19  0.015  0.002  0.001  0.017
   20  0.008  0.001  0.001  0.011
   21  0.008  0.001  0.001  0.011
   22  0.014  0.002  0.001  0.017
   23  0.008  0.001  0.001  0.011
   24  0.014  0.002  0.001  0.017
   25  0.015  0.002  0.001  0.017
   26  0.015  0.002  0.001  0.017
   27  0.014  0.002  0.001  0.017
   28  0.018  0.001  0.000  0.019
   29  0.012  0.002  0.000  0.014
   30  0.012  0.002  0.000  0.014
   31  0.012  0.002  0.000  0.014
   32  0.012  0.002  0.000  0.014
   33  0.012  0.002  0.000  0.014
   34  0.012  0.002  0.000  0.014
   35  0.018  0.001  0.000  0.019
   36  0.001  0.022  0.030  0.053
   37  0.078  0.001  0.000  0.079
tot    0.495  0.075  0.051  0.622
 
band     4 # energy   -6.46438930 # occ.  2.00000000
 
ion      s      p      d    tot
    1  0.015  0.000  0.005  0.020
    2  0.012  0.000  0.005  0.018
    3  0.012  0.000  0.005  0.018
    4  0.012  0.000  0.005  0.018
    5  0.002  0.001  0.007  0.009
    6  0.012  0.000  0.005  0.018
    7  0.012  0.000  0.005  0.018
    8  0.012  0.000  0.005  0.018
    9  0.026  0.000  0.003  0.029
   10  0.002  0.003  0.004  0.009
   11  0.019  0.006  0.001  0.026
   12  0.002  0.003  0.004  0.009
   13  0.019  0.006  0.001  0.026
   14  0.019  0.006  0.001  0.026
   15  0.001  0.002  0.006  0.008
   16  0.002  0.003  0.004  0.009
   17  0.001  0.002  0.006  0.008
   18  0.001  0.002  0.006  0.008
   19  0.000  0.002  0.007  0.009
   20  0.024  0.006  0.002  0.032
   21  0.024  0.006  0.002  0.032
   22  0.000  0.004  0.004  0.008
   23  0.024  0.006  0.002  0.032
   24  0.000  0.004  0.004  0.008
   25  0.000  0.002  0.007  0.009
   26  0.000  0.002  0.007  0.009
   27  0.000  0.004  0.004  0.008
   28  0.022  0.000  0.004  0.025
   29  0.013  0.001  0.007  0.020
   30  0.013  0.001  0.007  0.020
   31  0.013  0.001  0.007  0.020
   32  0.013  0.001  0.007  0.020
   33  0.013  0.001  0.007  0.020
   34  0.013  0.001  0.007  0.020
   35  0.028  0.000  0.004  0.033
   36  0.000  0.001  0.014  0.015
   37  0.001  0.000  0.000  0.002
tot    0.376  0.080  0.178  0.633
 
band     5 # energy   -6.41449880 # occ.  2.00000000
 
ion      s      p      d    tot
    1  0.000  0.002  0.005  0.008
    2  0.010  0.002  0.002  0.014
    3  0.001  0.001  0.002  0.004
    4  0.010  0.002  0.002  0.014
    5  0.000  0.003  0.004  0.006
    6  0.004  0.001  0.002  0.007
    7  0.001  0.001  0.002  0.004
    8  0.004  0.001  0.002  0.007
    9  0.000  0.000  0.002  0.002
   10  0.058  0.005  0.003  0.066
   11  0.008  0.010  0.004  0.022
   12  0.014  0.002  0.013  0.029
   13  0.007  0.010  0.004  0.021
   14  0.030  0.000  0.007  0.037
   15  0.001  0.005  0.007  0.013
   16  0.015  0.002  0.013  0.030
   17  0.001  0.005  0.007  0.013
   18  0.005  0.002  0.003  0.010
   19  0.006  0.010  0.003  0.020
   20  0.064  0.004  0.004  0.072
   21  0.015  0.003  0.014  0.032
   22  0.002  0.004  0.008  0.015
   23  0.017  0.003  0.014  0.033
   24  0.008  0.003  0.003  0.014
   25  0.025  0.000  0.007  0.032
   26  0.006  0.010  0.003  0.020
   27  0.002  0.004  0.008  0.015
   28  0.000  0.002  0.004  0.006
   29  0.011  0.003  0.003  0.016
   30  0.003  0.001  0.003  0.007
   31  0.011  0.003  0.003  0.016
   32  0.002  0.001  0.002  0.006
   33  0.003  0.001  0.003  0.007
   34  0.002  0.001  0.002  0.006
   35  0.000  0.000  0.003  0.003
   36  0.000  0.006  0.006  0.011
   37  0.000  0.000  0.000  0.000
tot    0.346  0.117  0.180  0.643
 
band     6 # energy   -6.41446026 # occ.  2.00000000
 
ion      s      p      d    tot
    1  0.000  0.002  0.005  0.008
    2  0.000  0.001  0.002  0.003
    3  0.008  0.002  0.002  0.013
    4  0.000  0.001  0.002  0.003
    5  0.000  0.003  0.004  0.006
    6  0.006  0.002  0.002  0.010
    7  0.008  0.002  0.002  0.013
    8  0.006  0.002  0.002  0.010
    9  0.000  0.000  0.002  0.002
   10  0.000  0.001  0.016  0.017
   11  0.022  0.004  0.006  0.032
   12  0.044  0.004  0.006  0.054
   13  0.023  0.003  0.006  0.032
   14  0.000  0.013  0.003  0.016
   15  0.003  0.003  0.005  0.011
   16  0.043  0.004  0.007  0.053
   17  0.003  0.003  0.005  0.011
   18  0.000  0.006  0.008  0.014
   19  0.018  0.004  0.006  0.028
   20  0.000  0.002  0.017  0.019
   21  0.049  0.004  0.007  0.060
   22  0.006  0.003  0.005  0.015
   23  0.047  0.004  0.008  0.059
   24  0.000  0.005  0.010  0.015
   25  0.000  0.014  0.002  0.016
   26  0.019  0.003  0.006  0.028
   27  0.006  0.004  0.005  0.015
   28  0.000  0.002  0.004  0.006
   29  0.000  0.001  0.002  0.003
   30  0.008  0.002  0.003  0.013
   31  0.000  0.001  0.002  0.003
   32  0.008  0.002  0.003  0.014
   33  0.007  0.002  0.003  0.012
   34  0.008  0.002  0.003  0.013
   35  0.000  0.000  0.003  0.003
   36  0.000  0.006  0.006  0.011
   37  0.000  0.000  0.000  0.000
tot    0.346  0.117  0.180  0.643
 
band     7 # energy   -6.39756194 # occ.  2.00000000
 
ion      s      p      d    tot
    1  0.020  0.003  0.001  0.024
    2  0.000  0.002  0.004  0.006
    3  0.000  0.002  0.004  0.006
    4  0.000  0.002  0.004  0.006
    5  0.002  0.000  0.000  0.002
    6  0.000  0.002  0.004  0.006
    7  0.000  0.002  0.004  0.006
    8  0.000  0.002  0.004  0.006
    9  0.009  0.001  0.000  0.011
   10  0.031  0.006  0.005  0.042
   11  0.005  0.000  0.012  0.017
   12  0.030  0.006  0.006  0.042
   13  0.005  0.000  0.012  0.017
   14  0.005  0.000  0.011  0.017
   15  0.011  0.008  0.003  0.022
   16  0.030  0.006  0.006  0.042
   17  0.011  0.008  0.003  0.022
   18  0.012  0.008  0.004  0.023
   19  0.024  0.009  0.002  0.035
   20  0.000  0.003  0.011  0.013
   21  0.000  0.003  0.011  0.013
   22  0.025  0.002  0.009  0.036
   23  0.000  0.003  0.011  0.013
   24  0.023  0.002  0.009  0.035
   25  0.022  0.010  0.002  0.034
   26  0.024  0.009  0.002  0.035
   27  0.025  0.002  0.009  0.036
   28  0.018  0.003  0.001  0.021
   29  0.000  0.002  0.004  0.006
   30  0.000  0.002  0.004  0.006
   31  0.000  0.002  0.004  0.006
   32  0.000  0.002  0.004  0.006
   33  0.000  0.002  0.004  0.006
   34  0.000  0.002  0.004  0.006
   35  0.014  0.002  0.001  0.017
   36  0.000  0.000  0.000  0.000
   37  0.000  0.000  0.000  0.000
tot    0.345  0.114  0.181  0.640
 
band     8 # energy   -6.39424425 # occ.  2.00000000
 
ion      s      p      d    tot
    1  0.000  0.001  0.002  0.003
    2  0.010  0.002  0.002  0.015
    3  0.002  0.001  0.002  0.005
    4  0.010  0.002  0.002  0.015
    5  0.000  0.001  0.004  0.005
    6  0.004  0.001  0.002  0.008
    7  0.001  0.001  0.002  0.005
    8  0.004  0.001  0.002  0.007
    9  0.000  0.003  0.005  0.009
   10  0.000  0.012  0.002  0.014
   11  0.024  0.004  0.005  0.033
   12  0.003  0.003  0.005  0.011
   13  0.024  0.004  0.006  0.033
   14  0.000  0.001  0.015  0.016
   15  0.043  0.004  0.007  0.053
   16  0.003  0.003  0.005  0.011
   17  0.042  0.004  0.007  0.053
   18  0.000  0.007  0.010  0.017
   19  0.029  0.004  0.006  0.038
   20  0.000  0.012  0.003  0.015
   21  0.001  0.004  0.005  0.010
   22  0.041  0.004  0.006  0.051
   23  0.001  0.004  0.005  0.010
   24  0.000  0.009  0.008  0.017
   25  0.000  0.000  0.017  0.017
   26  0.029  0.004  0.006  0.038
   27  0.041  0.004  0.006  0.052
   28  0.000  0.001  0.005  0.006
   29  0.011  0.003  0.003  0.016
   30  0.003  0.001  0.003  0.007
   31  0.011  0.003  0.003  0.016
   32  0.003  0.001  0.002  0.006
   33  0.003  0.001  0.003  0.007
   34  0.002  0.001  0.002  0.006
   35  0.000  0.004  0.005  0.009
   36  0.000  0.001  0.003  0.004
   37  0.000  0.000  0.000  0.000
tot    0.344  0.116  0.178  0.638
 
band     9 # energy   -6.39420901 # occ.  2.00000000
 
ion      s      p      d    tot
    1  0.000  0.001  0.002  0.003
    2  0.000  0.001  0.002  0.003
    3  0.009  0.002  0.002  0.013
    4  0.000  0.001  0.002  0.003
    5  0.000  0.001  0.004  0.005
    6  0.006  0.002  0.002  0.010
    7  0.009  0.002  0.002  0.013
    8  0.006  0.002  0.002  0.011
    9  0.000  0.003  0.005  0.009
   10  0.003  0.000  0.006  0.010
   11  0.008  0.002  0.012  0.021
   12  0.001  0.009  0.003  0.013
   13  0.008  0.002  0.012  0.022
   14  0.032  0.005  0.002  0.039
   15  0.014  0.006  0.009  0.029
   16  0.001  0.009  0.003  0.013
   17  0.015  0.006  0.009  0.030
   18  0.056  0.003  0.005  0.064
   19  0.009  0.001  0.013  0.024
   20  0.002  0.001  0.006  0.008
   21  0.000  0.009  0.004  0.013
   22  0.014  0.007  0.008  0.028
   23  0.000  0.009  0.004  0.013
   24  0.056  0.002  0.006  0.064
   25  0.039  0.005  0.002  0.046
   26  0.009  0.001  0.013  0.024
   27  0.013  0.007  0.008  0.028
   28  0.000  0.001  0.005  0.006
   29  0.000  0.001  0.002  0.003
   30  0.008  0.002  0.002  0.013
   31  0.000  0.001  0.002  0.003
   32  0.009  0.002  0.003  0.014
   33  0.008  0.002  0.002  0.013
   34  0.009  0.002  0.003  0.014
   35  0.000  0.004  0.005  0.009
   36  0.000  0.001  0.003  0.004
   37  0.000  0.000  0.000  0.000
tot    0.344  0.116  0.178  0.638
 
band    10 # energy   -6.28400742 # occ.  2.00000000
 
ion      s      p      d    tot
    1  0.001  0.000  0.002  0.003
    2  0.005  0.002  0.007  0.013
    3  0.005  0.002  0.007  0.013
    4  0.005  0.002  0.007  0.013
    5  0.044  0.002  0.000  0.047
    6  0.005  0.002  0.007  0.013
    7  0.005  0.002  0.007  0.013
    8  0.005  0.002  0.007  0.013
    9  0.001  0.002  0.006  0.009
   10  0.004  0.004  0.008  0.017
   11  0.013  0.008  0.005  0.026
   12  0.004  0.004  0.008  0.017
   13  0.013  0.008  0.005  0.026
   14  0.013  0.008  0.005  0.026
   15  0.030  0.002  0.010  0.042
   16  0.004  0.004  0.008  0.017
   17  0.030  0.002  0.010  0.042
   18  0.030  0.002  0.010  0.042
   19  0.006  0.003  0.007  0.016
   20  0.012  0.003  0.007  0.022
   21  0.012  0.003  0.007  0.022
   22  0.007  0.006  0.004  0.018
   23  0.012  0.003  0.007  0.022
   24  0.007  0.006  0.004  0.018
   25  0.006  0.003  0.007  0.016
   26  0.006  0.003  0.007  0.016
   27  0.007  0.006  0.004  0.018
   28  0.004  0.000  0.004  0.008
   29  0.005  0.000  0.004  0.009
   30  0.005  0.000  0.004  0.009
   31  0.005  0.000  0.004  0.009
   32  0.005  0.000  0.004  0.009
   33  0.005  0.000  0.004  0.009
   34  0.005  0.000  0.004  0.009
   35  0.001  0.000  0.003  0.005
   36  0.009  0.007  0.005  0.021
   37  0.009  0.000  0.000  0.009
tot    0.345  0.104  0.207  0.655
 
band    11 # energy   -5.65575536 # occ.  2.00000000
 
ion      s      p      d    tot
    1  0.004  0.000  0.009  0.013
    2  0.004  0.001  0.009  0.014
    3  0.004  0.001  0.009  0.014
    4  0.004  0.001  0.009  0.014
    5  0.000  0.002  0.009  0.010
    6  0.004  0.001  0.009  0.014
    7  0.004  0.001  0.009  0.014
    8  0.004  0.001  0.009  0.014
    9  0.018  0.000  0.006  0.024
   10  0.008  0.000  0.024  0.032
   11  0.011  0.001  0.021  0.032
   12  0.008  0.000  0.024  0.032
   13  0.011  0.001  0.021  0.032
   14  0.011  0.001  0.021  0.032
   15  0.001  0.000  0.021  0.023
   16  0.008  0.000  0.024  0.032
   17  0.001  0.000  0.021  0.023
   18  0.001  0.000  0.021  0.023
   19  0.005  0.000  0.020  0.024
   20  0.011  0.001  0.026  0.038
   21  0.011  0.001  0.026  0.038
   22  0.002  0.000  0.022  0.024
   23  0.011  0.001  0.026  0.038
   24  0.002  0.000  0.022  0.024
   25  0.004  0.000  0.020  0.024
   26  0.005  0.000  0.020  0.024
   27  0.002  0.000  0.022  0.024
   28  0.003  0.000  0.007  0.010
   29  0.004  0.001  0.009  0.013
   30  0.004  0.001  0.009  0.013
   31  0.004  0.001  0.009  0.013
   32  0.004  0.001  0.009  0.013
   33  0.004  0.001  0.009  0.013
   34  0.004  0.001  0.009  0.013
   35  0.017  0.000  0.006  0.023
   36  0.000  0.002  0.009  0.011
   37  0.000  0.000  0.000  0.000
tot    0.203  0.020  0.552  0.775
 
band    12 # energy   -5.64416314 # occ.  2.00000000
 
ion      s      p      d    tot
    1  0.000  0.001  0.012  0.013
    2  0.020  0.004  0.005  0.030
    3  0.008  0.002  0.005  0.016
    4  0.020  0.004  0.005  0.029
    5  0.000  0.002  0.009  0.011
    6  0.003  0.002  0.005  0.010
    7  0.008  0.002  0.005  0.015
    8  0.003  0.002  0.005  0.010
    9  0.000  0.006  0.009  0.015
   10  0.000  0.004  0.017  0.021
   11  0.011  0.003  0.010  0.025
   12  0.000  0.001  0.010  0.012
   13  0.011  0.003  0.010  0.025
   14  0.000  0.000  0.017  0.017
   15  0.015  0.003  0.010  0.028
   16  0.000  0.001  0.010  0.011
   17  0.014  0.003  0.010  0.028
   18  0.000  0.002  0.026  0.028
   19  0.006  0.003  0.011  0.019
   20  0.000  0.004  0.027  0.031
   21  0.002  0.001  0.013  0.016
   22  0.015  0.004  0.011  0.030
   23  0.002  0.001  0.012  0.015
   24  0.000  0.001  0.026  0.027
   25  0.000  0.001  0.013  0.014
   26  0.006  0.003  0.011  0.019
   27  0.015  0.004  0.010  0.030
   28  0.000  0.001  0.011  0.012
   29  0.022  0.004  0.006  0.033
   30  0.007  0.003  0.007  0.017
   31  0.022  0.004  0.006  0.032
   32  0.005  0.002  0.006  0.012
   33  0.007  0.002  0.007  0.016
   34  0.004  0.002  0.006  0.012
   35  0.000  0.006  0.008  0.014
   36  0.000  0.004  0.010  0.014
   37  0.000  0.000  0.000  0.000
tot    0.228  0.096  0.382  0.705
 
band    13 # energy   -5.64413055 # occ.  2.00000000
 
ion      s      p      d    tot
    1  0.000  0.001  0.012  0.013
    2  0.000  0.002  0.005  0.007
    3  0.012  0.003  0.005  0.021
    4  0.001  0.002  0.005  0.007
    5  0.000  0.002  0.009  0.011
    6  0.018  0.003  0.005  0.026
    7  0.013  0.003  0.005  0.021
    8  0.018  0.003  0.005  0.027
    9  0.000  0.006  0.009  0.015
   10  0.000  0.000  0.008  0.008
   11  0.004  0.001  0.015  0.020
   12  0.000  0.003  0.015  0.018
   13  0.004  0.001  0.015  0.020
   14  0.015  0.004  0.008  0.027
   15  0.004  0.002  0.021  0.028
   16  0.000  0.003  0.015  0.018
   17  0.005  0.002  0.020  0.028
   18  0.020  0.004  0.005  0.028
   19  0.002  0.002  0.012  0.016
   20  0.003  0.000  0.008  0.011
   21  0.001  0.003  0.022  0.025
   22  0.005  0.002  0.021  0.028
   23  0.001  0.003  0.022  0.026
   24  0.020  0.005  0.005  0.030
   25  0.008  0.003  0.010  0.021
   26  0.002  0.002  0.012  0.016
   27  0.005  0.002  0.021  0.028
   28  0.000  0.001  0.011  0.012
   29  0.000  0.002  0.006  0.008
   30  0.015  0.003  0.006  0.024
   31  0.000  0.002  0.006  0.008
   32  0.018  0.004  0.007  0.028
   33  0.016  0.003  0.006  0.025
   34  0.018  0.004  0.007  0.029
   35  0.000  0.006  0.008  0.014
   36  0.000  0.004  0.010  0.014
   37  0.000  0.000  0.000  0.000
tot    0.228  0.095  0.382  0.705
 
band    14 # energy   -5.63867726 # occ.  2.00000000
 
ion      s      p      d    tot
    1  0.036  0.003  0.000  0.039
    2  0.000  0.003  0.010  0.013
    3  0.000  0.003  0.010  0.013
    4  0.000  0.003  0.010  0.013
    5  0.000  0.000  0.001  0.001
    6  0.000  0.003  0.010  0.013
    7  0.000  0.003  0.010  0.013
    8  0.000  0.003  0.010  0.013
    9  0.025  0.004  0.001  0.030
   10  0.007  0.003  0.011  0.022
   11  0.002  0.000  0.016  0.018
   12  0.007  0.003  0.011  0.021
   13  0.002  0.000  0.016  0.018
   14  0.002  0.000  0.015  0.018
   15  0.008  0.003  0.017  0.028
   16  0.007  0.003  0.011  0.021
   17  0.008  0.003  0.017  0.028
   18  0.008  0.003  0.016  0.027
   19  0.004  0.003  0.019  0.026
   20  0.000  0.000  0.016  0.016
   21  0.000  0.000  0.016  0.016
   22  0.012  0.003  0.010  0.025
   23  0.000  0.000  0.016  0.016
   24  0.013  0.003  0.010  0.026
   25  0.003  0.003  0.019  0.025
   26  0.004  0.003  0.019  0.026
   27  0.012  0.003  0.010  0.025
   28  0.040  0.003  0.000  0.043
   29  0.000  0.003  0.011  0.014
   30  0.000  0.003  0.011  0.014
   31  0.000  0.003  0.011  0.014
   32  0.000  0.003  0.011  0.014
   33  0.000  0.003  0.011  0.014
   34  0.000  0.003  0.011  0.014
   35  0.023  0.003  0.002  0.028
   36  0.000  0.000  0.000  0.000
   37  0.000  0.000  0.000  0.000
tot    0.225  0.089  0.394  0.707
 
band    15 # energy   -5.63815608 # occ.  2.00000000
 
ion      s      p      d    tot
    1  0.000  0.005  0.008  0.014
    2  0.021  0.004  0.006  0.030
    3  0.008  0.002  0.005  0.016
    4  0.021  0.004  0.006  0.030
    5  0.000  0.004  0.011  0.015
    6  0.003  0.002  0.005  0.010
    7  0.009  0.002  0.005  0.016
    8  0.003  0.002  0.005  0.010
    9  0.000  0.000  0.011  0.012
   10  0.023  0.005  0.006  0.034
   11  0.002  0.003  0.020  0.025
   12  0.006  0.002  0.019  0.027
   13  0.002  0.003  0.020  0.025
   14  0.008  0.001  0.006  0.015
   15  0.001  0.002  0.013  0.016
   16  0.006  0.002  0.019  0.027
   17  0.001  0.002  0.013  0.016
   18  0.004  0.002  0.010  0.015
   19  0.003  0.002  0.022  0.027
   20  0.018  0.006  0.009  0.032
   21  0.005  0.001  0.018  0.024
   22  0.000  0.002  0.014  0.016
   23  0.005  0.001  0.018  0.024
   24  0.001  0.001  0.009  0.010
   25  0.012  0.003  0.005  0.019
   26  0.003  0.002  0.022  0.028
   27  0.000  0.002  0.014  0.016
   28  0.000  0.005  0.010  0.015
   29  0.021  0.004  0.006  0.031
   30  0.007  0.002  0.006  0.015
   31  0.021  0.004  0.006  0.031
   32  0.004  0.002  0.006  0.012
   33  0.007  0.002  0.006  0.015
   34  0.004  0.002  0.006  0.012
   35  0.000  0.000  0.013  0.013
   36  0.000  0.007  0.005  0.013
   37  0.000  0.000  0.000  0.000
tot    0.227  0.097  0.384  0.708
 
band    16 # energy   -5.63810220 # occ.  2.00000000
 
ion      s      p      d    tot
    1  0.000  0.005  0.008  0.014
    2  0.001  0.002  0.005  0.007
    3  0.013  0.003  0.005  0.022
    4  0.000  0.002  0.005  0.007
    5  0.000  0.004  0.011  0.015
    6  0.019  0.004  0.005  0.028
    7  0.013  0.003  0.005  0.021
    8  0.019  0.004  0.005  0.027
    9  0.000  0.000  0.011  0.012
   10  0.000  0.000  0.024  0.024
   11  0.006  0.002  0.011  0.018
   12  0.017  0.004  0.010  0.032
   13  0.006  0.002  0.010  0.018
   14  0.000  0.004  0.024  0.028
   15  0.003  0.002  0.011  0.015
   16  0.017  0.004  0.011  0.032
   17  0.003  0.002  0.011  0.015
   18  0.000  0.002  0.014  0.017
   19  0.009  0.003  0.011  0.022
   20  0.000  0.000  0.021  0.021
   21  0.014  0.004  0.012  0.030
   22  0.000  0.001  0.011  0.012
   23  0.014  0.004  0.012  0.030
   24  0.000  0.003  0.015  0.018
   25  0.000  0.002  0.028  0.031
   26  0.009  0.003  0.010  0.022
   27  0.000  0.001  0.011  0.012
   28  0.000  0.005  0.010  0.015
   29  0.000  0.001  0.006  0.008
   30  0.014  0.003  0.006  0.023
   31  0.000  0.001  0.006  0.008
   32  0.018  0.003  0.006  0.027
   33  0.014  0.003  0.006  0.023
   34  0.018  0.003  0.006  0.027
   35  0.000  0.000  0.013  0.013
   36  0.000  0.007  0.005  0.013
   37  0.000  0.000  0.000  0.000
tot    0.227  0.097  0.384  0.708
 
band    17 # energy   -5.44836301 # occ.  2.00000000
 
ion      s      p      d    tot
    1  0.014  0.002  0.000  0.016
    2  0.000  0.003  0.012  0.014
    3  0.000  0.003  0.011  0.014
    4  0.000  0.003  0.012  0.014
    5  0.044  0.003  0.000  0.047
    6  0.000  0.003  0.011  0.014
    7  0.000  0.003  0.011  0.014
    8  0.000  0.003  0.011  0.014
    9  0.004  0.001  0.001  0.005
   10  0.001  0.001  0.028  0.030
   11  0.003  0.004  0.022  0.029
   12  0.001  0.001  0.028  0.030
   13  0.003  0.004  0.022  0.029
   14  0.003  0.004  0.022  0.029
   15  0.003  0.001  0.009  0.014
   16  0.001  0.001  0.028  0.030
   17  0.003  0.001  0.009  0.014
   18  0.003  0.001  0.009  0.014
   19  0.012  0.001  0.025  0.037
   20  0.010  0.003  0.007  0.020
   21  0.010  0.003  0.007  0.020
   22  0.003  0.001  0.018  0.022
   23  0.010  0.003  0.007  0.020
   24  0.003  0.001  0.018  0.022
   25  0.012  0.001  0.025  0.037
   26  0.012  0.001  0.025  0.037
   27  0.003  0.001  0.018  0.022
   28  0.001  0.002  0.008  0.010
   29  0.002  0.001  0.011  0.014
   30  0.002  0.001  0.011  0.014
   31  0.002  0.001  0.011  0.014
   32  0.002  0.001  0.011  0.014
   33  0.002  0.001  0.011  0.014
   34  0.002  0.001  0.011  0.014
   35  0.001  0.001  0.003  0.006
   36  0.023  0.012  0.003  0.038
   37  0.006  0.000  0.000  0.007
tot    0.199  0.082  0.475  0.756
 
band    18 # energy   -4.96545412 # occ.  2.00000000
 
ion      s      p      d    tot
    1  0.000  0.000  0.035  0.035
    2  0.014  0.001  0.010  0.025
    3  0.008  0.001  0.009  0.018
    4  0.014  0.001  0.010  0.025
    5  0.000  0.001  0.013  0.014
    6  0.001  0.001  0.009  0.011
    7  0.008  0.001  0.009  0.018
    8  0.001  0.001  0.009  0.011
    9  0.000  0.003  0.005  0.008
   10  0.000  0.000  0.060  0.060
   11  0.000  0.004  0.017  0.022
   12  0.000  0.000  0.019  0.020
   13  0.000  0.004  0.017  0.021
   14  0.000  0.000  0.010  0.010
   15  0.001  0.004  0.016  0.021
   16  0.000  0.000  0.018  0.019
   17  0.001  0.004  0.017  0.022
   18  0.000  0.000  0.030  0.031
   19  0.001  0.004  0.017  0.022
   20  0.000  0.000  0.066  0.066
   21  0.000  0.000  0.024  0.025
   22  0.001  0.003  0.017  0.021
   23  0.000  0.000  0.023  0.024
   24  0.000  0.000  0.032  0.032
   25  0.000  0.000  0.011  0.011
   26  0.001  0.004  0.017  0.022
   27  0.001  0.003  0.016  0.021
   28  0.000  0.001  0.009  0.010
   29  0.012  0.001  0.013  0.026
   30  0.000  0.001  0.012  0.013
   31  0.012  0.001  0.013  0.026
   32  0.011  0.001  0.012  0.024
   33  0.000  0.001  0.012  0.013
   34  0.011  0.001  0.012  0.023
   35  0.000  0.002  0.011  0.013
   36  0.000  0.000  0.020  0.021
   37  0.000  0.000  0.000  0.000
tot    0.099  0.052  0.651  0.802
 
band    19 # energy   -4.96542935 # occ.  2.00000000
 
ion      s      p      d    tot
    1  0.000  0.000  0.035  0.035
    2  0.001  0.001  0.009  0.011
    3  0.007  0.001  0.010  0.018
    4  0.001  0.001  0.009  0.011
    5  0.000  0.001  0.013  0.014
    6  0.015  0.001  0.009  0.025
    7  0.007  0.001  0.010  0.018
    8  0.015  0.001  0.009  0.025
    9  0.000  0.003  0.005  0.008
   10  0.000  0.000  0.005  0.006
   11  0.000  0.001  0.012  0.014
   12  0.000  0.000  0.046  0.046
   13  0.000  0.001  0.013  0.014
   14  0.000  0.005  0.020  0.025
   15  0.000  0.001  0.026  0.028
   16  0.000  0.000  0.046  0.047
   17  0.000  0.001  0.026  0.027
   18  0.001  0.006  0.012  0.018
   19  0.000  0.001  0.013  0.014
   20  0.000  0.000  0.010  0.010
   21  0.000  0.000  0.051  0.051
   22  0.000  0.001  0.027  0.028
   23  0.000  0.000  0.052  0.052
   24  0.002  0.004  0.011  0.017
   25  0.001  0.006  0.019  0.026
   26  0.000  0.002  0.013  0.015
   27  0.000  0.001  0.027  0.028
   28  0.000  0.001  0.009  0.010
   29  0.004  0.001  0.011  0.016
   30  0.015  0.001  0.012  0.029
   31  0.003  0.001  0.011  0.016
   32  0.004  0.001  0.013  0.018
   33  0.015  0.001  0.012  0.029
   34  0.004  0.001  0.013  0.018
   35  0.000  0.002  0.011  0.013
   36  0.000  0.000  0.020  0.021
   37  0.000  0.000  0.000  0.000
tot    0.099  0.052  0.651  0.802
 
band    20 # energy   -4.95566052 # occ.  2.00000000
 
ion      s      p      d    tot
    1  0.000  0.002  0.001  0.004
    2  0.014  0.001  0.012  0.026
    3  0.007  0.001  0.009  0.018
    4  0.014  0.001  0.012  0.026
    5  0.000  0.002  0.020  0.022
    6  0.001  0.001  0.007  0.008
    7  0.008  0.001  0.009  0.018
    8  0.001  0.001  0.007  0.008
    9  0.000  0.000  0.030  0.030
   10  0.001  0.006  0.023  0.030
   11  0.000  0.000  0.041  0.042
   12  0.000  0.002  0.009  0.011
   13  0.000  0.000  0.041  0.042
   14  0.001  0.003  0.003  0.006
   15  0.000  0.001  0.028  0.028
   16  0.000  0.002  0.009  0.011
   17  0.000  0.001  0.028  0.028
   18  0.000  0.001  0.016  0.017
   19  0.000  0.000  0.043  0.044
   20  0.002  0.006  0.024  0.032
   21  0.001  0.002  0.015  0.018
   22  0.000  0.001  0.023  0.024
   23  0.001  0.002  0.015  0.018
   24  0.000  0.002  0.019  0.020
   25  0.001  0.001  0.003  0.006
   26  0.000  0.000  0.043  0.044
   27  0.000  0.001  0.023  0.024
   28  0.000  0.001  0.030  0.032
   29  0.013  0.001  0.015  0.029
   30  0.000  0.001  0.008  0.009
   31  0.013  0.001  0.015  0.029
   32  0.011  0.001  0.013  0.025
   33  0.000  0.001  0.008  0.009
   34  0.011  0.001  0.013  0.025
   35  0.000  0.000  0.031  0.031
   36  0.000  0.005  0.000  0.005
   37  0.000  0.001  0.000  0.001
tot    0.099  0.054  0.647  0.800
 
band    21 # energy   -4.95561204 # occ.  2.00000000
 
ion      s      p      d    tot
    1  0.000  0.002  0.001  0.004
    2  0.001  0.001  0.009  0.011
    3  0.007  0.001  0.010  0.018
    4  0.001  0.001  0.008  0.010
    5  0.000  0.002  0.021  0.023
    6  0.014  0.001  0.009  0.025
    7  0.007  0.001  0.009  0.017
    8  0.014  0.001  0.009  0.024
    9  0.000  0.000  0.030  0.030
   10  0.000  0.000  0.007  0.007
   11  0.001  0.002  0.017  0.019
   12  0.001  0.005  0.017  0.023
   13  0.001  0.002  0.016  0.018
   14  0.000  0.000  0.053  0.053
   15  0.000  0.001  0.017  0.018
   16  0.001  0.005  0.017  0.023
   17  0.000  0.001  0.018  0.019
   18  0.000  0.000  0.035  0.035
   19  0.001  0.001  0.017  0.019
   20  0.000  0.000  0.014  0.014
   21  0.001  0.005  0.021  0.027
   22  0.000  0.002  0.018  0.020
   23  0.001  0.005  0.020  0.026
   24  0.000  0.000  0.028  0.029
   25  0.000  0.000  0.056  0.057
   26  0.001  0.001  0.017  0.018
   27  0.000  0.002  0.018  0.020
   28  0.000  0.001  0.030  0.032
   29  0.003  0.001  0.011  0.014
   30  0.016  0.001  0.012  0.029
   31  0.003  0.001  0.011  0.015
   32  0.005  0.001  0.013  0.019
   33  0.016  0.001  0.012  0.029
   34  0.005  0.001  0.012  0.018
   35  0.000  0.000  0.031  0.031
   36  0.000  0.005  0.000  0.005