 vasp.6.2.0 18Jan21 (build Jun 12 2021 23:27:24) complex                        
  
 executed on             LinuxIFC date 2022.05.26  20:12:58
 running on   28 total cores
 distrk:  each k-point on   28 cores,    1 groups
 distr:  one band on NCORE=   1 cores,   28 groups


--------------------------------------------------------------------------------------------------------


 INCAR:
   ISMEAR = -5
   SIGMA = 0.1
   ISPIN = 1
   EDIFF = 1.d-5
   EDIFFG = -0.01
   NSW = 0
   NELM = 150
   ENCUT = 500
   ISIF = 2
   IBRION = 2
   LREAL = Auto
   ALGO = Fast
   ICHARG = 11
   LORBIT = 10
   LCHARG = .F.
   LWAVE = .F.

 POTCAR:    PAW_PBE Au 04Oct2007                  
 POTCAR:    PAW_PBE Mo 08Apr2002                  
 -----------------------------------------------------------------------------
|                                                                             |
|           W    W    AA    RRRRR   N    N  II  N    N   GGGG   !!!           |
|           W    W   A  A   R    R  NN   N  II  NN   N  G    G  !!!           |
|           W    W  A    A  R    R  N N  N  II  N N  N  G       !!!           |
|           W WW W  AAAAAA  RRRRR   N  N N  II  N  N N  G  GGG   !            |
|           WW  WW  A    A  R   R   N   NN  II  N   NN  G    G                |
|           W    W  A    A  R    R  N    N  II  N    N   GGGG   !!!           |
|                                                                             |
|     For optimal performance we recommend to set                             |
|       NCORE = 2 up to number-of-cores-per-socket                            |
|     NCORE specifies how many cores store one orbital (NPAR=cpu/NCORE).      |
|     This setting can greatly improve the performance of VASP for DFT.       |
|     The default, NCORE=1 might be grossly inefficient on modern             |
|     multi-core architectures or massively parallel machines. Do your        |
|     own testing! More info at https://www.vasp.at/wiki/index.php/NCORE      |
|     Unfortunately you need to use the default for GW and RPA                |
|     calculations (for HF NCORE is supported but not extensively tested      |
|     yet).                                                                   |
|                                                                             |
 -----------------------------------------------------------------------------

 POTCAR:    PAW_PBE Au 04Oct2007                  
   VRHFIN =Au: s1d10                                                                                
   LEXCH  = PE                                                                                      
   EATOM  =   926.0867 eV,   68.0654 Ry                                                             
                                                                                                    
   TITEL  = PAW_PBE Au 04Oct2007                                                                    
   LULTRA =        F    use ultrasoft PP ?                                                          
   IUNSCR =        1    unscreen: 0-lin 1-nonlin 2-no                                               
   RPACOR =    2.330    partial core radius                                                         
   POMASS =  196.966; ZVAL   =   11.000    mass and valenz                                          
   RCORE  =    2.500    outmost cutoff radius                                                       
   RWIGS  =    2.840; RWIGS  =    1.503    wigner-seitz radius (au A)                               
   ENMAX  =  229.943; ENMIN  =  172.457 eV                                                          
   ICORE  =        3    local potential                                                             
   LCOR   =        T    correct aug charges                                                         
   LPAW   =        T    paw PP                                                                      
   EAUG   =  356.670                                                                                
   DEXC   =    0.000                                                                                
   RMAX   =    2.562    core radius for proj-oper                                                   
   RAUG   =    1.300    factor for augmentation sphere                                              
   RDEP   =    2.598    radius for radial grids                                                     
   RDEPT  =    2.193    core radius for aug-charge                                                  
                                                                                                    
   Atomic configuration                                                                             
   16 entries                                                                                       
     n  l   j            E        occ.                                                              
     1  0  0.50    -80748.5001   2.0000                                                             
     2  0  0.50    -14244.7466   2.0000                                                             
     2  1  1.50    -12310.9591   6.0000                                                             
     3  0  0.50     -3362.1768   2.0000                                                             
     3  1  1.50     -2801.5463   6.0000                                                             
     3  2  2.50     -2203.8206  10.0000                                                             
     4  0  0.50      -729.8168   2.0000                                                             
     4  1  1.50      -546.0527   6.0000                                                             
     4  2  2.50      -325.7302  10.0000                                                             
     4  3  3.50       -81.1472  14.0000                                                             
     5  0  0.50      -108.3201   2.0000                                                             
     5  1  1.50       -59.7479   6.0000                                                             
     5  2  2.50        -6.8783  10.0000                                                             
     6  0  0.50        -5.7602   1.0000                                                             
     6  1  1.50        -6.8029   0.0000                                                             
     5  3  2.50        -1.3606   0.0000                                                             
   Description                                                                                      
     l       E           TYP  RCUT    TYP  RCUT                                                     
     2     -6.8782861     23  2.500                                                                 
     2     -8.2388687     23  2.500                                                                 
     0     -5.7601759     23  2.500                                                                 
     0     -0.8493231     23  2.500                                                                 
     1     -2.7211652     23  2.500                                                                 
     1     27.2116520     23  2.500                                                                 
     3     -1.3605826     23  2.500                                                                 
  local pseudopotential read in
  partial core-charges read in
  partial kinetic energy density read in
  atomic valenz-charges read in
  non local Contribution for L=           2  read in
    real space projection operators read in
  non local Contribution for L=           2  read in
    real space projection operators read in
  non local Contribution for L=           0  read in
    real space projection operators read in
  non local Contribution for L=           0  read in
    real space projection operators read in
  non local Contribution for L=           1  read in
    real space projection operators read in
  non local Contribution for L=           1  read in
    real space projection operators read in
    PAW grid and wavefunctions read in
 
   number of l-projection  operators is LMAX  =           6
   number of lm-projection operators is LMMAX =          18
 
 POTCAR:    PAW_PBE Mo 08Apr2002                  
   VRHFIN =Mo: 4p5s4d                                                                               
   LEXCH  = PE                                                                                      
   EATOM  =   217.5176 eV,   15.9871 Ry                                                             
                                                                                                    
   TITEL  = PAW_PBE Mo 08Apr2002                                                                    
   LULTRA =        F    use ultrasoft PP ?                                                          
   IUNSCR =        1    unscreen: 0-lin 1-nonlin 2-no                                               
   RPACOR =    2.200    partial core radius                                                         
   POMASS =   95.940; ZVAL   =    6.000    mass and valenz                                          
   RCORE  =    2.750    outmost cutoff radius                                                       
   RWIGS  =    2.750; RWIGS  =    1.455    wigner-seitz radius (au A)                               
   ENMAX  =  224.584; ENMIN  =  168.438 eV                                                          
   RCLOC  =    2.111    cutoff for local pot                                                        
   LCOR   =        T    correct aug charges                                                         
   LPAW   =        T    paw PP                                                                      
   EAUG   =  345.278                                                                                
   DEXC   =    0.000                                                                                
   RMAX   =    2.821    core radius for proj-oper                                                   
   RAUG   =    1.300    factor for augmentation sphere                                              
   RDEP   =    2.815    radius for radial grids                                                     
   RDEPT  =    2.211    core radius for aug-charge                                                  
                                                                                                    
   Atomic configuration                                                                             
   12 entries                                                                                       
     n  l   j            E        occ.                                                              
     1  0  0.50    -19819.0341   2.0000                                                             
     2  0  0.50     -2799.0127   2.0000                                                             
     2  1  1.50     -2502.0276   6.0000                                                             
     3  0  0.50      -476.4448   2.0000                                                             
     3  1  1.50      -379.1496   6.0000                                                             
     3  2  2.50      -220.9367  10.0000                                                             
     4  0  0.50       -64.3378   2.0000                                                             
     4  1  1.50       -38.4773   6.0000                                                             
     4  2  2.50        -3.7535   5.0000                                                             
     5  0  0.50        -4.0862   1.0000                                                             
     5  1  0.50        -2.7701   0.0000                                                             
     4  3  2.50        -1.3606   0.0000                                                             
   Description                                                                                      
     l       E           TYP  RCUT    TYP  RCUT                                                     
     2     -3.7534765     23  2.500                                                                 
     2     -5.1140591     23  2.500                                                                 
     0     -4.0861560     23  2.600                                                                 
     0     13.6058260     23  2.600                                                                 
     1      5.4423304     23  2.750                                                                 
     1     27.2116520     23  2.750                                                                 
  local pseudopotential read in
  partial core-charges read in
  partial kinetic energy density read in
  atomic valenz-charges read in
  non local Contribution for L=           2  read in
    real space projection operators read in
  non local Contribution for L=           2  read in
    real space projection operators read in
  non local Contribution for L=           0  read in
    real space projection operators read in
  non local Contribution for L=           0  read in
    real space projection operators read in
  non local Contribution for L=           1  read in
    real space projection operators read in
  non local Contribution for L=           1  read in
    real space projection operators read in
    PAW grid and wavefunctions read in
 
   number of l-projection  operators is LMAX  =           6
   number of lm-projection operators is LMMAX =          18
 
 Optimization of the real space projectors (new method)

 maximal supplied QI-value         = 15.12
 optimisation between [QCUT,QGAM] = [ 11.34, 22.83] = [ 36.00,145.93] Ry 
 Optimized for a Real-space Cutoff    1.39 Angstroem

   l    n(q)    QCUT    max X(q) W(low)/X(q) W(high)/X(q)  e(spline) 
   2      9    11.338    60.898    0.39E-03    0.42E-03    0.21E-06
   2      9    11.338    58.894    0.40E-03    0.42E-03    0.22E-06
   0      9    11.338   109.617    0.13E-03    0.20E-04    0.13E-06
   0      9    11.338    75.026    0.13E-03    0.20E-04    0.13E-06
   1      9    11.338    16.344    0.33E-04    0.24E-03    0.18E-06
   1      9    11.338    10.160    0.26E-04    0.19E-03    0.15E-06
 Optimization of the real space projectors (new method)

 maximal supplied QI-value         = 13.61
 optimisation between [QCUT,QGAM] = [ 11.43, 22.86] = [ 36.58,146.31] Ry 
 Optimized for a Real-space Cutoff    1.56 Angstroem

   l    n(q)    QCUT    max X(q) W(low)/X(q) W(high)/X(q)  e(spline) 
   2     10    11.429    80.908    0.27E-03    0.78E-03    0.13E-05
   2     10    11.429    79.000    0.27E-03    0.78E-03    0.13E-05
   0     11    11.429    52.066    0.33E-04    0.97E-04    0.72E-06
   0     11    11.429    24.514    0.27E-04    0.80E-04    0.60E-06
   1     10    11.429    16.033    0.31E-04    0.17E-03    0.36E-06
   1     10    11.429    11.179    0.22E-04    0.13E-03    0.29E-06
  PAW_PBE Au 04Oct2007                  :
 energy of atom  1       EATOM= -926.0867
 kinetic energy error for atom=    0.0042 (will be added to EATOM!!)
  PAW_PBE Mo 08Apr2002                  :
 energy of atom  2       EATOM= -217.5176
 kinetic energy error for atom=    0.0017 (will be added to EATOM!!)
 
 
 POSCAR: Au-Mo
  positions in direct lattice
  velocities in cartesian coordinates
 exchange correlation table for  LEXCH =        8
   RHO(1)=    0.500       N(1)  =     2000
   RHO(2)=  100.500       N(2)  =     4000

 VTST: version 3.2, (02/03/18)

 CHAIN: initializing optimizer
 
 OPT: Using VASP Conjugate-Gradient optimizer
 CHAIN: Read ICHAIN            0
 
 POSCAR: Au-Mo
  positions in direct lattice
  velocities in cartesian coordinates
 


--------------------------------------------------------------------------------------------------------


 ion  position               nearest neighbor table
   1  0.000  0.000  0.238-  16 2.94  12 2.94   6 2.94   8 2.94   7 2.94   3 2.94  10 2.94   4 2.94
                             2 2.94
   2  0.333  0.000  0.238-   9 2.94  11 2.94  17 2.94  10 2.94   8 2.94   4 2.94   5 2.94   1 2.94
                             3 2.94
   3  0.667  0.000  0.238-   7 2.94  18 2.94  12 2.94   1 2.94  11 2.94   5 2.94   6 2.94   9 2.94
                             2 2.94
   4  0.000  0.333  0.238-  10 2.94   6 2.94   5 2.94  13 2.94   2 2.94  15 2.94   9 2.94   1 2.94
                             7 2.94
   5  0.333  0.333  0.238-  13 2.94   7 2.94  11 2.94   4 2.94   2 2.94  14 2.94   3 2.94   8 2.94
                             6 2.94
   6  0.667  0.333  0.238-  15 2.94  14 2.94   1 2.94  12 2.94   4 2.94   9 2.94   8 2.94   3 2.94
                             5 2.94
   7  0.000  0.667  0.238-  18 2.94   3 2.94  16 2.94   5 2.94   1 2.94  13 2.94   8 2.94   4 2.94
                             9 2.94
   8  0.333  0.667  0.238-   9 2.94  17 2.94   1 2.94   2 2.94  14 2.94  16 2.94   6 2.94   7 2.94
                             5 2.94
   9  0.667  0.667  0.238-   2 2.94   8 2.94  17 2.94   6 2.94  15 2.94   4 2.94   3 2.94  18 2.94
                             7 2.94
  10  0.111  0.111  0.346-  20 2.91  11 2.94  17 2.94   2 2.94   4 2.94   1 2.94  12 2.94  16 2.94
                            13 2.94  15 2.94  26 2.95  19 2.95
  11  0.444  0.111  0.346-  20 2.91  21 2.91  13 2.94   2 2.94  10 2.94  17 2.94   5 2.94   3 2.94
                            18 2.94  14 2.94  12 2.94  27 2.94
  12  0.778  0.111  0.346-  21 2.91  16 2.94  18 2.94   1 2.94  14 2.94  15 2.94   3 2.94   6 2.94
                            10 2.94  11 2.94  25 2.95  19 2.95
  13  0.111  0.444  0.346-  23 2.91  20 2.91   5 2.94  18 2.94  11 2.94   7 2.94   4 2.94  16 2.94
                            10 2.94  14 2.94  15 2.94  22 2.94
  14  0.444  0.444  0.346-  21 2.91  23 2.91  15 2.94   6 2.94  12 2.94   8 2.94  17 2.94   5 2.94
                            16 2.94  13 2.94  11 2.94  24 2.94
  15  0.778  0.444  0.346-  24 2.93  22 2.93  14 2.94   6 2.94  17 2.94  12 2.94   9 2.94   4 2.94
                            10 2.94  13 2.94  18 2.94  19 2.95
  16  0.111  0.778  0.346-  23 2.91  18 2.94  12 2.94   7 2.94   1 2.94   8 2.94  13 2.94  10 2.94
                            14 2.94  17 2.94  25 2.95  26 2.95
  17  0.444  0.778  0.346-  27 2.93  24 2.93   9 2.94  15 2.94   2 2.94  10 2.94  11 2.94   8 2.94
                            14 2.94  16 2.94  18 2.94  26 2.95
  18  0.778  0.778  0.346-  22 2.93  27 2.93  16 2.94   7 2.94  13 2.94  12 2.94   3 2.94  11 2.94
                             9 2.94  15 2.94  17 2.94  25 2.95
  19  0.889  0.223  0.455-  24 2.93  22 2.93  21 2.94  20 2.94  28 2.95  26 2.95  25 2.95  15 2.95
                            10 2.95  12 2.95  32 3.02  31 3.02
  20  0.222  0.222  0.453-  36 2.77  11 2.91  13 2.91  10 2.91  23 2.94  21 2.94  26 2.94  19 2.94
                            27 2.95  22 2.95  29 2.98  31 2.98
  21  0.555  0.222  0.453-  36 2.77  14 2.91  11 2.91  12 2.91  20 2.94  23 2.94  25 2.94  19 2.94
                            27 2.95  24 2.95  30 2.98  32 2.98
  22  0.887  0.557  0.454-  24 2.91  27 2.91  18 2.93  15 2.93  25 2.93  19 2.93  13 2.94  35 2.95
                            23 2.95  20 2.95  33 3.00  31 3.00
  23  0.222  0.555  0.453-  36 2.77  13 2.91  14 2.91  16 2.91  20 2.94  21 2.94  25 2.94  26 2.94
                            22 2.95  24 2.95  33 2.98  34 2.98
  24  0.557  0.557  0.454-  27 2.91  22 2.91  15 2.93  17 2.93  26 2.93  19 2.93  14 2.94  35 2.95
                            21 2.95  23 2.95  32 3.00  34 3.00
  25  0.889  0.889  0.455-  22 2.93  27 2.93  23 2.94  21 2.94  28 2.95  19 2.95  26 2.95  18 2.95
                            16 2.95  12 2.95  33 3.02  30 3.02
  26  0.223  0.889  0.455-  27 2.93  24 2.93  20 2.94  23 2.94  28 2.95  19 2.95  25 2.95  17 2.95
                            10 2.95  16 2.95  29 3.02  34 3.02
  27  0.557  0.887  0.454-  24 2.91  22 2.91  17 2.93  18 2.93  26 2.93  25 2.93  11 2.94  35 2.95
                            20 2.95  21 2.95  29 3.00  30 3.00
  28  0.000  0.000  0.563-  25 2.95  19 2.95  26 2.95  34 2.98  32 2.98  33 2.98  30 2.98  31 2.98
                            29 2.98
  29  0.333  0.010  0.565-  30 2.85  31 2.85  36 2.87  20 2.98  35 2.98  28 2.98  27 3.00  26 3.02
                            34 3.11
  30  0.657  0.010  0.565-  29 2.85  32 2.85  36 2.87  21 2.98  35 2.98  28 2.98  27 3.00  25 3.02
                            33 3.11
  31  0.010  0.333  0.565-  33 2.85  29 2.85  36 2.87  20 2.98  35 2.98  28 2.98  22 3.00  19 3.02
                            32 3.11
  32  0.657  0.333  0.565-  34 2.85  30 2.85  36 2.87  21 2.98  35 2.98  28 2.98  24 3.00  19 3.02
                            31 3.11
  33  0.010  0.657  0.565-  31 2.85  34 2.85  36 2.87  23 2.98  35 2.98  28 2.98  22 3.00  25 3.02
                            30 3.11
  34  0.333  0.657  0.565-  32 2.85  33 2.85  36 2.87  23 2.98  35 2.98  28 2.98  24 3.00  26 3.02
                            29 3.11
  35  0.667  0.667  0.563-  24 2.95  27 2.95  22 2.95  29 2.98  34 2.98  32 2.98  31 2.98  30 2.98
                            33 2.98
  36  0.333  0.333  0.551-  20 2.77  23 2.77  21 2.77  33 2.87  31 2.87  29 2.87  30 2.87  34 2.87
                            32 2.87
 
  LATTYP: Found a hexagonal cell.
 ALAT       =     8.8135128021
 C/A-ratio  =     2.5184286595
  
  Lattice vectors:
  
 A1 = (  -4.4067569092,  -7.6327256898,   0.0000000000)
 A2 = (   8.8135128021,   0.0000000000,   0.0000000000)
 A3 = (   0.0000000000,   0.0000000000,  22.1962032318)


Analysis of symmetry for initial positions (statically):
=====================================================================
 Subroutine PRICEL returns:
 Original cell was already a primitive cell.
 

 Routine SETGRP: Setting up the symmetry group for a 
 hexagonal supercell.


 Subroutine GETGRP returns: Found  6 space group operations
 (whereof  6 operations were pure point group operations)
 out of a pool of 24 trial point group operations.


The static configuration has the point symmetry C_3v.


Analysis of symmetry for dynamics (positions and initial velocities):
=====================================================================
 Subroutine PRICEL returns:
 Original cell was already a primitive cell.
 

 Routine SETGRP: Setting up the symmetry group for a 
 hexagonal supercell.


 Subroutine GETGRP returns: Found  6 space group operations
 (whereof  6 operations were pure point group operations)
 out of a pool of 24 trial point group operations.


The dynamic configuration has the point symmetry C_3v.


Analysis of constrained symmetry for selective dynamics:
=====================================================================
 Subroutine PRICEL returns:
 Original cell was already a primitive cell.
 

 Routine SETGRP: Setting up the symmetry group for a 
 hexagonal supercell.


 Subroutine GETGRP returns: Found  6 space group operations
 (whereof  6 operations were pure point group operations)
 out of a pool of 24 trial point group operations.


The constrained configuration has the point symmetry C_3v.


 Subroutine INISYM returns: Found  6 space group operations
 (whereof  6 operations are pure point group operations),
 and found     1 'primitive' translations


----------------------------------------------------------------------------------------

                                     Primitive cell                                     

  volume of cell :    1493.1636

  direct lattice vectors                    reciprocal lattice vectors
     8.813512802  0.000000000  0.000000000     0.113462137 -0.065507406  0.000000000
     4.406756909  7.632725690  0.000000000     0.000000000  0.131014796  0.000000000
     0.000000000  0.000000000 22.196203232     0.000000000  0.000000000  0.045052750

  length of vectors
     8.813512802  8.813512802 22.196203232     0.131014796  0.131014796  0.045052750

  position of ions in fractional coordinates (direct lattice)
     0.000000000  0.000000000  0.237895638
     0.333333343  0.000000000  0.237895638
     0.666666687  0.000000000  0.237895638
     1.000000000  0.333333343  0.237895638
     0.333333313  0.333333343  0.237895638
     0.666666687  0.333333343  0.237895638
     1.000000000  0.666666687  0.237895638
     0.333333343  0.666666687  0.237895638
     0.666666627  0.666666687  0.237895638
     0.111111119  0.111111112  0.345965207
     0.444444418  0.111111112  0.345965207
     0.777777791  0.111111112  0.345965207
     0.111111127  0.444444448  0.345965207
     0.444444478  0.444444448  0.345965207
     0.777777731  0.444444448  0.345965207
     0.111111090  0.777777791  0.345965207
     0.444444448  0.777777791  0.345965207
     0.777777851  0.777777791  0.345965207
     0.888518739  0.222962538  0.454757985
     0.222314337  0.222314322  0.452545314
     0.555371387  0.222314322  0.452545314
     0.886544633  0.556727714  0.453613148
     0.222314292  0.555371387  0.452545314
     0.556727714  0.556727714  0.453613148
     0.888518739  0.888518739  0.454757985
     0.222962568  0.888518739  0.454757985
     0.556727654  0.886544633  0.453613148
     0.000000000  0.000000000  0.563129614
     0.333456407  0.009911723  0.564946950
     0.656631900  0.009911723  0.564946950
     0.009911723  0.333456407  0.564946950
     0.656631900  0.333456407  0.564946950
     0.009911723  0.656631900  0.564946950
     0.333456407  0.656631900  0.564946950
     0.666666627  0.666666687  0.563093302
     0.333333313  0.333333343  0.551198178

  ion indices of the primitive-cell ions
   primitive index   ion index
                 1           1
                 2           2
                 3           3
                 4           4
                 5           5
                 6           6
                 7           7
                 8           8
                 9           9
                10          10
                11          11
                12          12
                13          13
                14          14
                15          15
                16          16
                17          17
                18          18
                19          19
                20          20
                21          21
                22          22
                23          23
                24          24
                25          25
                26          26
                27          27
                28          28
                29          29
                30          30
                31          31
                32          32
                33          33
                34          34
                35          35
                36          36

----------------------------------------------------------------------------------------

 
 
 KPOINTS: Automatic mesh                          

Automatic generation of k-mesh.
 Grid dimensions read from file:
 generate k-points for:    8    8    1

 Generating k-lattice:

  Cartesian coordinates                     Fractional coordinates (reciprocal lattice)
     0.014182767 -0.008188426  0.000000000     0.125000000 -0.000000000  0.000000000
     0.000000000  0.016376850  0.000000000     0.000000000  0.125000000  0.000000000
     0.000000000  0.000000000  0.045052750     0.000000000  0.000000000  1.000000000

  Length of vectors
     0.016376850  0.016376850  0.045052750

  Shift w.r.t. Gamma in fractional coordinates (k-lattice)
     0.000000000  0.000000000  0.000000000

 TETIRR: Found     36 inequivalent tetrahedra from      384
 
 Subroutine IBZKPT returns following result:
 ===========================================
 
 Found     10 irreducible k-points:
 
 Following reciprocal coordinates:
            Coordinates               Weight
  0.000000  0.000000  0.000000      1.000000
  0.125000 -0.000000  0.000000      6.000000
  0.250000 -0.000000  0.000000      6.000000
  0.375000  0.000000  0.000000      6.000000
  0.500000 -0.000000  0.000000      3.000000
  0.250000  0.125000  0.000000      6.000000
  0.375000  0.125000  0.000000     12.000000
  0.500000  0.125000  0.000000     12.000000
  0.500000  0.250000  0.000000      6.000000
 -0.375000  0.250000  0.000000      6.000000
 
 Following cartesian coordinates:
            Coordinates               Weight
  0.000000  0.000000  0.000000      1.000000
  0.014183 -0.008188  0.000000      6.000000
  0.028366 -0.016377  0.000000      6.000000
  0.042548 -0.024565  0.000000      6.000000
  0.056731 -0.032754  0.000000      3.000000
  0.028366 -0.000000  0.000000      6.000000
  0.042548 -0.008188  0.000000     12.000000
  0.056731 -0.016377  0.000000     12.000000
  0.056731 -0.000000  0.000000      6.000000
 -0.042548  0.057319  0.000000      6.000000
 


--------------------------------------------------------------------------------------------------------




 Dimension of arrays:
   k-points           NKPTS =     10   k-points in BZ     NKDIM =     10   number of bands    NBANDS=    252
   number of dos      NEDOS =    301   number of ions     NIONS =     36
   non local maximal  LDIM  =      6   non local SUM 2l+1 LMDIM =     18
   total plane-waves  NPLWV = 290304
   max r-space proj   IRMAX =   3166   max aug-charges    IRDMAX=  12681
   dimension x,y,z NGX =    48 NGY =   48 NGZ =  126
   dimension x,y,z NGXF=    96 NGYF=   96 NGZF=  252
   support grid    NGXF=    96 NGYF=   96 NGZF=  252
   ions per type =              35   1
   NGX,Y,Z   is equivalent  to a cutoff of   9.05,  9.05,  9.44 a.u.
   NGXF,Y,Z  is equivalent  to a cutoff of  18.11, 18.11, 18.87 a.u.

 SYSTEM =  unknown system                          
 POSCAR =  Au-Mo                                   

 Startparameter for this run:
   NWRITE =      2    write-flag & timer
   PREC   = normal    normal or accurate (medium, high low for compatibility)
   ISTART =      0    job   : 0-new  1-cont  2-samecut
   ICHARG =     11    charge: 1-file 2-atom 10-const
   ISPIN  =      1    spin polarized calculation?
   LNONCOLLINEAR =      F non collinear calculations
   LSORBIT =      F    spin-orbit coupling
   INIWAV =      1    electr: 0-lowe 1-rand  2-diag
   LASPH  =      F    aspherical Exc in radial PAW
   METAGGA=      F    non-selfconsistent MetaGGA calc.

 Electronic Relaxation 1
   ENCUT  =  500.0 eV  36.75 Ry    6.06 a.u.  16.07 16.07 40.47*2*pi/ulx,y,z
   ENINI  =  500.0     initial cutoff
   ENAUG  =  356.7 eV  augmentation charge cutoff
   NELM   =    150;   NELMIN=  2; NELMDL= -5     # of ELM steps 
   EDIFF  = 0.1E-04   stopping-criterion for ELM
   LREAL  =      T    real-space projection
   NLSPLINE    = F    spline interpolate recip. space projectors
   LCOMPAT=      F    compatible to vasp.4.4
   GGA_COMPAT  = T    GGA compatible to vasp.4.4-vasp.4.6
   LMAXPAW     = -100 max onsite density
   LMAXMIX     =    2 max onsite mixed and CHGCAR
   VOSKOWN=      0    Vosko Wilk Nusair interpolation
   ROPT   =   -0.00050  -0.00050
 Ionic relaxation
   EDIFFG = -.1E-01   stopping-criterion for IOM
   NSW    =      0    number of steps for IOM
   NBLOCK =      1;   KBLOCK =      1    inner block; outer block 
   IBRION =     -1    ionic relax: 0-MD 1-quasi-New 2-CG
   NFREE  =      1    steps in history (QN), initial steepest desc. (CG)
   ISIF   =      2    stress and relaxation
   IWAVPR =     10    prediction:  0-non 1-charg 2-wave 3-comb
   ISYM   =      2    0-nonsym 1-usesym 2-fastsym
   LCORR  =      T    Harris-Foulkes like correction to forces

   POTIM  = 0.5000    time-step for ionic-motion
   TEIN   =    0.0    initial temperature
   TEBEG  =    0.0;   TEEND  =   0.0 temperature during run
   SMASS  =  -3.00    Nose mass-parameter (am)
   estimated Nose-frequenzy (Omega)   =  0.10E-29 period in steps = 0.13E+47 mass=  -0.178E-26a.u.
   SCALEE = 1.0000    scale energy and forces
   NPACO  =    256;   APACO  = 16.0  distance and # of slots for P.C.
   PSTRESS=    0.0 pullay stress

  Mass of Ions in am
   POMASS = 196.97 95.94
  Ionic Valenz
   ZVAL   =  11.00  6.00
  Atomic Wigner-Seitz radii
   RWIGS  =  -1.00 -1.00
  virtual crystal weights 
   VCA    =   1.00  1.00
   NELECT =     391.0000    total number of electrons
   NUPDOWN=      -1.0000    fix difference up-down

 DOS related values:
   EMIN   =  10.00;   EMAX   =-10.00  energy-range for DOS
   EFERMI =   0.00
   ISMEAR =    -5;   SIGMA  =   0.10  broadening in eV -4-tet -1-fermi 0-gaus

 Electronic relaxation 2 (details)
   IALGO  =     68    algorithm
   LDIAG  =      T    sub-space diagonalisation (order eigenvalues)
   LSUBROT=      F    optimize rotation matrix (better conditioning)
   TURBO    =      0    0=normal 1=particle mesh
   IRESTART =      0    0=no restart 2=restart with 2 vectors
   NREBOOT  =      0    no. of reboots
   NMIN     =      0    reboot dimension
   EREF     =   0.00    reference energy to select bands
   IMIX   =      4    mixing-type and parameters
     AMIX     =   0.40;   BMIX     =  1.00
     AMIX_MAG =   1.60;   BMIX_MAG =  1.00
     AMIN     =   0.10
     WC   =   100.;   INIMIX=   1;  MIXPRE=   1;  MAXMIX= -45

 Intra band minimization:
   WEIMIN = 0.0000     energy-eigenvalue tresh-hold
   EBREAK =  0.99E-08  absolut break condition
   DEPER  =   0.30     relativ break condition  

   TIME   =   0.40     timestep for ELM

  volume/ion in A,a.u.               =      41.48       279.90
  Fermi-wavevector in a.u.,A,eV,Ry     =   1.047365  1.979232 14.925223  1.096973
  Thomas-Fermi vector in A             =   2.182242
 
 Write flags
   LWAVE        =      F    write WAVECAR
   LDOWNSAMPLE  =      F    k-point downsampling of WAVECAR
   LCHARG       =      F    write CHGCAR
   LVTOT        =      F    write LOCPOT, total local potential
   LVHAR        =      F    write LOCPOT, Hartree potential only
   LELF         =      F    write electronic localiz. function (ELF)
   LORBIT       =     10    0 simple, 1 ext, 2 COOP (PROOUT), +10 PAW based schemes


 Dipole corrections
   LMONO  =      F    monopole corrections only (constant potential shift)
   LDIPOL =      F    correct potential (dipole corrections)
   IDIPOL =      0    1-x, 2-y, 3-z, 4-all directions 
   EPSILON=  1.0000000 bulk dielectric constant

 Exchange correlation treatment:
   GGA     =    --    GGA type
   LEXCH   =     8    internal setting for exchange type
   VOSKOWN=      0    Vosko Wilk Nusair interpolation
   LHFCALC =     F    Hartree Fock is set to
   LHFONE  =     F    Hartree Fock one center treatment
   AEXX    =    0.0000 exact exchange contribution

 Linear response parameters
   LEPSILON=     F    determine dielectric tensor
   LRPA    =     F    only Hartree local field effects (RPA)
   LNABLA  =     F    use nabla operator in PAW spheres
   LVEL    =     F    velocity operator in full k-point grid
   LINTERFAST=   F  fast interpolation
   KINTER  =     0    interpolate to denser k-point grid
   CSHIFT  =0.1000    complex shift for real part using Kramers Kronig
   OMEGAMAX=  -1.0    maximum frequency
   DEG_THRESHOLD= 0.2000000E-02 threshold for treating states as degnerate
   RTIME   =   -0.100 relaxation time in fs
  (WPLASMAI=    0.000 imaginary part of plasma frequency in eV, 0.658/RTIME)
   DFIELD  = 0.0000000 0.0000000 0.0000000 field for delta impulse in time
 
 Orbital magnetization related:
   ORBITALMAG=     F  switch on orbital magnetization
   LCHIMAG   =     F  perturbation theory with respect to B field
   DQ        =  0.001000  dq finite difference perturbation B field
   LLRAUG    =     F  two centre corrections for induced B field



--------------------------------------------------------------------------------------------------------


 Static calculation
 charge density and potential remain constant during run
 non-spin polarized calculation
 RMM-DIIS sequential band-by-band and
  variant of blocked Davidson during initial phase
 perform sub-space diagonalisation
    before iterative eigenvector-optimisation
 no mixing
 using additional bands           56
 real space projection scheme for non local part
 use partial core corrections
 calculate Harris-corrections to forces 
   (improved forces if not selfconsistent)
 use gradient corrections 
 WARNING: stress and forces are not correct
  (second derivative of E(xc) not defined)
 use of overlap-Matrix (Vanderbilt PP)
 Fermi weights with tetrahedron method with Bloechl corrections


--------------------------------------------------------------------------------------------------------


  energy-cutoff  :      500.00
  volume of cell :     1493.16
      direct lattice vectors                 reciprocal lattice vectors
     8.813512802  0.000000000  0.000000000     0.113462137 -0.065507406  0.000000000
     4.406756909  7.632725690  0.000000000     0.000000000  0.131014796  0.000000000
     0.000000000  0.000000000 22.196203232     0.000000000  0.000000000  0.045052750

  length of vectors
     8.813512802  8.813512802 22.196203232     0.131014796  0.131014796  0.045052750


 
 k-points in units of 2pi/SCALE and weight: Automatic mesh                          
   0.00000000  0.00000000  0.00000000       0.016
   0.01418277 -0.00818843  0.00000000       0.094
   0.02836553 -0.01637685  0.00000000       0.094
   0.04254830 -0.02456528  0.00000000       0.094
   0.05673107 -0.03275370  0.00000000       0.047
   0.02836553 -0.00000000  0.00000000       0.094
   0.04254830 -0.00818843  0.00000000       0.188
   0.05673107 -0.01637685  0.00000000       0.188
   0.05673107 -0.00000000  0.00000000       0.094
  -0.04254830  0.05731898  0.00000000       0.094
 
 k-points in reciprocal lattice and weights: Automatic mesh                          
   0.00000000  0.00000000  0.00000000       0.016
   0.12500000 -0.00000000  0.00000000       0.094
   0.25000000 -0.00000000  0.00000000       0.094
   0.37500000  0.00000000  0.00000000       0.094
   0.50000000 -0.00000000  0.00000000       0.047
   0.25000000  0.12500000  0.00000000       0.094
   0.37500000  0.12500000  0.00000000       0.188
   0.50000000  0.12500000  0.00000000       0.188
   0.50000000  0.25000000  0.00000000       0.094
  -0.37500000  0.25000000  0.00000000       0.094
 
 position of ions in fractional coordinates (direct lattice) 
   0.00000000  0.00000000  0.23789564
   0.33333334  0.00000000  0.23789564
   0.66666669  0.00000000  0.23789564
   0.00000000  0.33333334  0.23789564
   0.33333331  0.33333334  0.23789564
   0.66666669  0.33333334  0.23789564
   0.00000000  0.66666669  0.23789564
   0.33333334  0.66666669  0.23789564
   0.66666663  0.66666669  0.23789564
   0.11111112  0.11111111  0.34596521
   0.44444442  0.11111111  0.34596521
   0.77777779  0.11111111  0.34596521
   0.11111113  0.44444445  0.34596521
   0.44444448  0.44444445  0.34596521
   0.77777773  0.44444445  0.34596521
   0.11111109  0.77777779  0.34596521
   0.44444445  0.77777779  0.34596521
   0.77777785  0.77777779  0.34596521
   0.88851874  0.22296254  0.45475798
   0.22231434  0.22231432  0.45254531
   0.55537139  0.22231432  0.45254531
   0.88654463  0.55672771  0.45361315
   0.22231429  0.55537139  0.45254531
   0.55672771  0.55672771  0.45361315
   0.88851874  0.88851874  0.45475798
   0.22296257  0.88851874  0.45475798
   0.55672765  0.88654463  0.45361315
   0.00000000  0.00000000  0.56312961
   0.33345641  0.00991172  0.56494695
   0.65663190  0.00991172  0.56494695
   0.00991172  0.33345641  0.56494695
   0.65663190  0.33345641  0.56494695
   0.00991172  0.65663190  0.56494695
   0.33345641  0.65663190  0.56494695
   0.66666663  0.66666669  0.56309330
   0.33333331  0.33333334  0.55119818
 
 position of ions in cartesian coordinates  (Angst):
   0.00000000  0.00000000  5.28037993
   2.93783769  0.00000000  5.28037993
   5.87567538  0.00000000  5.28037993
   1.46891901  2.54424197  5.28037993
   4.40675643  2.54424197  5.28037993
   7.34459439  2.54424197  5.28037993
   2.93783803  5.08848395  5.28037993
   5.87567571  5.08848395  5.28037993
   8.81351288  5.08848395  5.28037993
   1.46891893  0.84808064  7.67911405
   4.40675623  0.84808064  7.67911405
   7.34459418  0.84808064  7.67911405
   2.93783798  3.39232256  7.67911405
   5.87567574  3.39232256  7.67911405
   8.81351263  3.39232256  7.67911405
   4.40675667  5.93656453  7.67911405
   7.34459449  5.93656453  7.67911405
  10.28243270  5.93656453  7.67911405
   8.81351299  1.70181189 10.09390065
   2.93905542  1.69686423 10.04478777
   5.87445800  1.69686423 10.04478777
  10.26693617  4.24934992 10.06848962
   4.40675655  4.23899745 10.04478777
   7.36009053  4.24934992 10.06848962
  11.74645737  6.78181981 10.09390065
   5.88056954  6.78181981 10.09390065
   8.81351299  6.76675199 10.06848962
   0.00000000  0.00000000 12.49933935
   2.98260087  0.07565346 12.53967732
   5.83091221  0.07565346 12.53967732
   1.55681842  2.54518129 12.53967732
   7.25669498  2.54518129 12.53967732
   2.98097426  5.01189117 12.53967732
   5.83253948  5.01189117 12.53967732
   8.81351288  5.08848395 12.49853336
   4.40675643  2.54424197 12.23450679
 


--------------------------------------------------------------------------------------------------------


 k-point   1 :   0.0000 0.0000 0.0000  plane waves:   37827
 k-point   2 :   0.1250-0.0000 0.0000  plane waves:   37876
 k-point   3 :   0.2500-0.0000 0.0000  plane waves:   37924
 k-point   4 :   0.3750 0.0000 0.0000  plane waves:   37904
 k-point   5 :   0.5000-0.0000 0.0000  plane waves:   37912
 k-point   6 :   0.2500 0.1250 0.0000  plane waves:   37858
 k-point   7 :   0.3750 0.1250 0.0000  plane waves:   37928
 k-point   8 :   0.5000 0.1250 0.0000  plane waves:   37924
 k-point   9 :   0.5000 0.2500 0.0000  plane waves:   37926
 k-point  10 :  -0.3750 0.2500 0.0000  plane waves:   37916

 maximum and minimum number of plane-waves per node :     37928    37827

 maximum number of plane-waves:     37928
 maximum index in each direction: 
   IXMAX=   16   IYMAX=   16   IZMAX=   40
   IXMIN=  -16   IYMIN=  -16   IZMIN=  -40


 serial   3D FFT for wavefunctions
 parallel 3D FFT for charge:
    minimum data exchange during FFTs selected (reduces bandwidth)


 total amount of memory used by VASP MPI-rank0   121698. kBytes
=======================================================================

   base      :      30000. kBytes
   nonlr-proj:      14110. kBytes
   fftplans  :       4330. kBytes
   grid      :      17098. kBytes
   one-center:        559. kBytes
   wavefun   :      55601. kBytes
 
     INWAV:  cpu time    0.0001: real time    0.0001
 initial charge density was supplied:
 number of electron     391.0000053 magnetization 
 keeping initial charge density in first step


--------------------------------------------------------------------------------------------------------


 Maximum index for non-local projection operator         3036
 Maximum index for augmentation-charges          857 (set IRDMAX)


--------------------------------------------------------------------------------------------------------


 First call to EWALD:  gamma=   0.155
 Maximum number of real-space cells 4x 4x 2
 Maximum number of reciprocal cells 2x 2x 5

    FEWALD:  cpu time    0.0013: real time    0.0013


--------------------------------------- Iteration      1(   1)  ---------------------------------------


    POTLOK:  cpu time    0.0452: real time    0.0455
    SETDIJ:  cpu time    0.0070: real time    0.0070
     EDDAV:  cpu time    7.9500: real time    7.9588
 BZINTS: Fermi energy:   11.048582;  391.000000 electrons
         Band energy: 0.148291E+04;  BLOECHL correction:   -0.023025
       DOS:  cpu time    0.0104: real time    0.0105
    --------------------------------------------
      LOOP:  cpu time    8.0126: real time    8.0218

 eigenvalue-minimisations  :  5040
 total energy-change (2. order) : 0.2546780E+04  (-0.1765904E+05)
 number of electron     391.0000053 magnetization 
 augmentation part      391.0000053 magnetization 

 Free energy of the ion-electron system (eV)
  ---------------------------------------------------
  alpha Z        PSCENC =      1000.45553901
  Ewald energy   TEWEN  =     94902.26039129
  -Hartree energ DENC   =   -128723.04745489
  -exchange      EXHF   =         0.00000000
  -V(xc)+E(xc)   XCENC  =       456.00959085
  PAW double counting   =     35458.13284857   -34660.34391235
  entropy T*S    EENTRO =         0.00000000
  eigenvalues    EBANDS =      1482.91136026
  atomic energy  EATOM  =     32630.40209365
  Solvation  Ediel_sol  =         0.00000000
  ---------------------------------------------------
  free energy    TOTEN  =      2546.78045639 eV

  energy without entropy =     2546.78045639  energy(sigma->0) =     2546.78045639


--------------------------------------------------------------------------------------------------------




--------------------------------------- Iteration      1(   2)  ---------------------------------------


     EDDAV:  cpu time   12.1004: real time   12.1080
 BZINTS: Fermi energy:    1.357982;  391.000000 electrons
         Band energy:-0.105984E+04;  BLOECHL correction:   -0.028504
       DOS:  cpu time    0.0106: real time    0.0106
    --------------------------------------------
      LOOP:  cpu time   12.1110: real time   12.1187

 eigenvalue-minimisations  :  5656
 total energy-change (2. order) :-0.2542753E+04  (-0.2338556E+04)
 number of electron     391.0000053 magnetization 
 augmentation part      391.0000053 magnetization 

 Free energy of the ion-electron system (eV)
  ---------------------------------------------------
  alpha Z        PSCENC =      1000.45553901
  Ewald energy   TEWEN  =     94902.26039129
  -Hartree energ DENC   =   -128723.04745489
  -exchange      EXHF   =         0.00000000
  -V(xc)+E(xc)   XCENC  =       456.00959085
  PAW double counting   =     35458.13284857   -34660.34391235
  entropy T*S    EENTRO =         0.00000000
  eigenvalues    EBANDS =     -1059.84206964
  atomic energy  EATOM  =     32630.40209365
  Solvation  Ediel_sol  =         0.00000000
  ---------------------------------------------------
  free energy    TOTEN  =         4.02702649 eV

  energy without entropy =        4.02702649  energy(sigma->0) =        4.02702649


--------------------------------------------------------------------------------------------------------




--------------------------------------- Iteration      1(   3)  ---------------------------------------


     EDDAV:  cpu time   12.6085: real time   12.6909
 BZINTS: Fermi energy:    0.713178;  391.000000 electrons
         Band energy:-0.117699E+04;  BLOECHL correction:   -0.032967
       DOS:  cpu time    0.0120: real time    0.0120
    --------------------------------------------
      LOOP:  cpu time   12.6205: real time   12.7028

 eigenvalue-minimisations  :  5880
 total energy-change (2. order) :-0.1171487E+03  (-0.1129265E+03)
 number of electron     391.0000053 magnetization 
 augmentation part      391.0000053 magnetization 

 Free energy of the ion-electron system (eV)
  ---------------------------------------------------
  alpha Z        PSCENC =      1000.45553901
  Ewald energy   TEWEN  =     94902.26039129
  -Hartree energ DENC   =   -128723.04745489
  -exchange      EXHF   =         0.00000000
  -V(xc)+E(xc)   XCENC  =       456.00959085
  PAW double counting   =     35458.13284857   -34660.34391235
  entropy T*S    EENTRO =         0.00000000
  eigenvalues    EBANDS =     -1176.99076867
  atomic energy  EATOM  =     32630.40209365
  Solvation  Ediel_sol  =         0.00000000
  ---------------------------------------------------
  free energy    TOTEN  =      -113.12167254 eV

  energy without entropy =     -113.12167254  energy(sigma->0) =     -113.12167254


--------------------------------------------------------------------------------------------------------




--------------------------------------- Iteration      1(   4)  ---------------------------------------


     EDDAV:  cpu time   12.7139: real time   12.7300
 BZINTS: Fermi energy:    0.699079;  391.000000 electrons
         Band energy:-0.117918E+04;  BLOECHL correction:   -0.032979
       DOS:  cpu time    0.0104: real time    0.0104
    --------------------------------------------
      LOOP:  cpu time   12.7242: real time   12.7404

 eigenvalue-minimisations  :  6020
 total energy-change (2. order) :-0.2192511E+01  (-0.2189532E+01)
 number of electron     391.0000053 magnetization 
 augmentation part      391.0000053 magnetization 

 Free energy of the ion-electron system (eV)
  ---------------------------------------------------
  alpha Z        PSCENC =      1000.45553901
  Ewald energy   TEWEN  =     94902.26039129
  -Hartree energ DENC   =   -128723.04745489
  -exchange      EXHF   =         0.00000000
  -V(xc)+E(xc)   XCENC  =       456.00959085
  PAW double counting   =     35458.13284857   -34660.34391235
  entropy T*S    EENTRO =         0.00000000
  eigenvalues    EBANDS =     -1179.18327998
  atomic energy  EATOM  =     32630.40209365
  Solvation  Ediel_sol  =         0.00000000
  ---------------------------------------------------
  free energy    TOTEN  =      -115.31418385 eV

  energy without entropy =     -115.31418385  energy(sigma->0) =     -115.31418385


--------------------------------------------------------------------------------------------------------




--------------------------------------- Iteration      1(   5)  ---------------------------------------


     EDDAV:  cpu time   12.9801: real time   13.0564
 BZINTS: Fermi energy:    0.698692;  391.000000 electrons
         Band energy:-0.117923E+04;  BLOECHL correction:   -0.032976
       DOS:  cpu time    0.0112: real time    0.0112
    --------------------------------------------
      LOOP:  cpu time   12.9913: real time   13.0676

 eigenvalue-minimisations  :  6160
 total energy-change (2. order) :-0.4765528E-01  (-0.4764810E-01)
 number of electron     391.0000053 magnetization 
 augmentation part      391.0000053 magnetization 

 Free energy of the ion-electron system (eV)
  ---------------------------------------------------
  alpha Z        PSCENC =      1000.45553901
  Ewald energy   TEWEN  =     94902.26039129
  -Hartree energ DENC   =   -128723.04745489
  -exchange      EXHF   =         0.00000000
  -V(xc)+E(xc)   XCENC  =       456.00959085
  PAW double counting   =     35458.13284857   -34660.34391235
  entropy T*S    EENTRO =         0.00000000
  eigenvalues    EBANDS =     -1179.23093527
  atomic energy  EATOM  =     32630.40209365
  Solvation  Ediel_sol  =         0.00000000
  ---------------------------------------------------
  free energy    TOTEN  =      -115.36183913 eV

  energy without entropy =     -115.36183913  energy(sigma->0) =     -115.36183913


--------------------------------------------------------------------------------------------------------




--------------------------------------- Iteration      1(   6)  ---------------------------------------


    EDDIAG:  cpu time    2.0728: real time    2.0735
  RMM-DIIS:  cpu time    6.3272: real time    6.3561
    ORTHCH:  cpu time    0.3721: real time    0.3728
 BZINTS: Fermi energy:    0.698681;  391.000000 electrons
         Band energy:-0.117923E+04;  BLOECHL correction:   -0.032975
       DOS:  cpu time    0.0119: real time    0.0119
    --------------------------------------------
      LOOP:  cpu time    8.7840: real time    8.8142

 eigenvalue-minimisations  :  5006
 total energy-change (2. order) :-0.1398641E-02  (-0.1399173E-02)
 number of electron     391.0000053 magnetization 
 augmentation part      391.0000053 magnetization 

 Free energy of the ion-electron system (eV)
  ---------------------------------------------------
  alpha Z        PSCENC =      1000.45553901
  Ewald energy   TEWEN  =     94902.26039129
  -Hartree energ DENC   =   -128723.04745489
  -exchange      EXHF   =         0.00000000
  -V(xc)+E(xc)   XCENC  =       456.00959085
  PAW double counting   =     35458.13284857   -34660.34391235
  entropy T*S    EENTRO =         0.00000000
  eigenvalues    EBANDS =     -1179.23233391
  atomic energy  EATOM  =     32630.40209365
  Solvation  Ediel_sol  =         0.00000000
  ---------------------------------------------------
  free energy    TOTEN  =      -115.36323778 eV

  energy without entropy =     -115.36323778  energy(sigma->0) =     -115.36323778


--------------------------------------------------------------------------------------------------------




--------------------------------------- Iteration      1(   7)  ---------------------------------------


    EDDIAG:  cpu time    2.0958: real time    2.0976
  RMM-DIIS:  cpu time    8.4597: real time    8.4720
    ORTHCH:  cpu time    0.4075: real time    0.4075
 BZINTS: Fermi energy:    0.698677;  391.000000 electrons
         Band energy:-0.117923E+04;  BLOECHL correction:   -0.032975
       DOS:  cpu time    0.0101: real time    0.0101
    --------------------------------------------
      LOOP:  cpu time   10.9731: real time   10.9873

 eigenvalue-minimisations  :  6520
 total energy-change (2. order) :-0.4054273E-03  (-0.4045824E-03)
 number of electron     391.0000053 magnetization 
 augmentation part      391.0000053 magnetization 

 Free energy of the ion-electron system (eV)
  ---------------------------------------------------
  alpha Z        PSCENC =      1000.45553901
  Ewald energy   TEWEN  =     94902.26039129
  -Hartree energ DENC   =   -128723.04745489
  -exchange      EXHF   =         0.00000000
  -V(xc)+E(xc)   XCENC  =       456.00959085
  PAW double counting   =     35458.13284857   -34660.34391235
  entropy T*S    EENTRO =         0.00000000
  eigenvalues    EBANDS =     -1179.23273933
  atomic energy  EATOM  =     32630.40209365
  Solvation  Ediel_sol  =         0.00000000
  ---------------------------------------------------
  free energy    TOTEN  =      -115.36364320 eV

  energy without entropy =     -115.36364320  energy(sigma->0) =     -115.36364320


--------------------------------------------------------------------------------------------------------




--------------------------------------- Iteration      1(   8)  ---------------------------------------


    EDDIAG:  cpu time    2.4083: real time    2.4085
  RMM-DIIS:  cpu time    8.2678: real time    8.3200
    ORTHCH:  cpu time    0.3724: real time    0.3724
 BZINTS: Fermi energy:    0.698677;  391.000000 electrons
         Band energy:-0.117923E+04;  BLOECHL correction:   -0.032975
       DOS:  cpu time    0.0108: real time    0.0108
    --------------------------------------------
      LOOP:  cpu time   11.0593: real time   11.1118

 eigenvalue-minimisations  :  5861
 total energy-change (2. order) :-0.4096409E-04  (-0.4076658E-04)
 number of electron     391.0000053 magnetization 
 augmentation part      391.0000053 magnetization 

 Free energy of the ion-electron system (eV)
  ---------------------------------------------------
  alpha Z        PSCENC =      1000.45553901
  Ewald energy   TEWEN  =     94902.26039129
  -Hartree energ DENC   =   -128723.04745489
  -exchange      EXHF   =         0.00000000
  -V(xc)+E(xc)   XCENC  =       456.00959085
  PAW double counting   =     35458.13284857   -34660.34391235
  entropy T*S    EENTRO =         0.00000000
  eigenvalues    EBANDS =     -1179.23278030
  atomic energy  EATOM  =     32630.40209365
  Solvation  Ediel_sol  =         0.00000000
  ---------------------------------------------------
  free energy    TOTEN  =      -115.36368417 eV

  energy without entropy =     -115.36368417  energy(sigma->0) =     -115.36368417


--------------------------------------------------------------------------------------------------------




--------------------------------------- Iteration      1(   9)  ---------------------------------------


    EDDIAG:  cpu time    2.3853: real time    2.3854
  RMM-DIIS:  cpu time    6.0001: real time    6.0678
    ORTHCH:  cpu time    0.4169: real time    0.4188
 BZINTS: Fermi energy:    0.698677;  391.000000 electrons
         Band energy:-0.117923E+04;  BLOECHL correction:   -0.032975
       DOS:  cpu time    0.0104: real time    0.0104
    --------------------------------------------
      LOOP:  cpu time    8.8127: real time    8.8824

 eigenvalue-minimisations  :  3214
 total energy-change (2. order) :-0.2314817E-05  (-0.2226319E-05)
 number of electron     391.0000053 magnetization 
 augmentation part      391.0000053 magnetization 

 Free energy of the ion-electron system (eV)
  ---------------------------------------------------
  alpha Z        PSCENC =      1000.45553901
  Ewald energy   TEWEN  =     94902.26039129
  -Hartree energ DENC   =   -128723.04745489
  -exchange      EXHF   =         0.00000000
  -V(xc)+E(xc)   XCENC  =       456.00959085
  PAW double counting   =     35458.13284857   -34660.34391235
  entropy T*S    EENTRO =         0.00000000
  eigenvalues    EBANDS =     -1179.23278261
  atomic energy  EATOM  =     32630.40209365
  Solvation  Ediel_sol  =         0.00000000
  ---------------------------------------------------
  free energy    TOTEN  =      -115.36368648 eV

  energy without entropy =     -115.36368648  energy(sigma->0) =     -115.36368648


--------------------------------------------------------------------------------------------------------




 average (electrostatic) potential at core
  the test charge radii are     1.2098  1.2296
  (the norm of the test charge is              1.0000)
       1 -72.3596       2 -72.3239       3 -72.3238       4 -72.3239       5 -72.3296
       6 -72.3236       7 -72.3238       8 -72.3236       9 -72.3301      10 -72.6838
      11 -72.6272      12 -72.6834      13 -72.6272      14 -72.6267      15 -72.6591
      16 -72.6834      17 -72.6591      18 -72.6593      19 -72.6039      20 -72.8406
      21 -72.8401      22 -72.6136      23 -72.8401      24 -72.6130      25 -72.6039
      26 -72.6039      27 -72.6136      28 -72.3191      29 -72.4361      30 -72.4360
      31 -72.4361      32 -72.4357      33 -72.4360      34 -72.4357      35 -72.3176
      36 -43.2063
 
 
 
 E-fermi :   0.6987     XC(G=0):  -6.0938     alpha+bet : -5.7150

 Fermi energy:         0.6986769038

 k-point     1 :       0.0000    0.0000    0.0000
  band No.  band energies     occupation 
      1      -8.0973      2.00000
      2      -6.9276      2.00000
      3      -5.9970      2.00000
      4      -5.9660      2.00000
      5      -5.9660      2.00000
      6      -5.9581      2.00000
      7      -5.9235      2.00000
      8      -5.9075      2.00000
      9      -5.9075      2.00000
     10      -5.9005      2.00000
     11      -5.4840      2.00000
     12      -5.4784      2.00000
     13      -5.4784      2.00000
     14      -5.4277      2.00000
     15      -5.4277      2.00000
     16      -5.4223      2.00000
     17      -5.1050      2.00000
     18      -5.1050      2.00000
     19      -5.0950      2.00000
     20      -5.0813      2.00000
     21      -5.0587      2.00000
     22      -5.0587      2.00000
     23      -4.9147      2.00000
     24      -4.9131      2.00000
     25      -4.9130      2.00000
     26      -4.9026      2.00000
     27      -4.9025      2.00000
     28      -4.8952      2.00000
     29      -4.7710      2.00000
     30      -4.7494      2.00000
     31      -4.7493      2.00000
     32      -4.7384      2.00000
     33      -4.7384      2.00000
     34      -4.7327      2.00000
     35      -4.7327      2.00000
     36      -4.6980      2.00000
     37      -4.6907      2.00000
     38      -4.6907      2.00000
     39      -4.6899      2.00000
     40      -4.6750      2.00000
     41      -4.2410      2.00000
     42      -4.2410      2.00000
     43      -4.2296      2.00000
     44      -4.2110      2.00000
     45      -4.2110      2.00000
     46      -4.1915      2.00000
     47      -4.1796      2.00000
     48      -4.1796      2.00000
     49      -4.1523      2.00000
     50      -4.1522      2.00000
     51      -4.0768      2.00000
     52      -4.0689      2.00000
     53      -4.0168      2.00000
     54      -3.9672      2.00000
     55      -3.7132      2.00000
     56      -3.6729      2.00000
     57      -3.6729      2.00000
     58      -3.6683      2.00000
     59      -3.6650      2.00000
     60      -3.6650      2.00000
     61      -3.6628      2.00000
     62      -3.5838      2.00000
     63      -3.5838      2.00000
     64      -3.5258      2.00000
     65      -3.5258      2.00000
     66      -3.5172      2.00000
     67      -3.4852      2.00000
     68      -3.4852      2.00000
     69      -3.4512      2.00000
     70      -3.4512      2.00000
     71      -3.4487      2.00000
     72      -3.4201      2.00000
     73      -3.3962      2.00000
     74      -3.3962      2.00000
     75      -3.3916      2.00000
     76      -3.3866      2.00000
     77      -3.3866      2.00000
     78      -3.3719      2.00000
     79      -3.3718      2.00000
     80      -3.3248      2.00000
     81      -3.3248      2.00000
     82      -3.2934      2.00000
     83      -3.2799      2.00000
     84      -3.2798      2.00000
     85      -3.2787      2.00000
     86      -3.2317      2.00000
     87      -3.2316      2.00000
     88      -3.1998      2.00000
     89      -3.1786      2.00000
     90      -3.1786      2.00000
     91      -3.1339      2.00000
     92      -3.1339      2.00000
     93      -3.0773      2.00000
     94      -3.0773      2.00000
     95      -2.9715      2.00000
     96      -2.9715      2.00000
     97      -2.9652      2.00000
     98      -2.9652      2.00000
     99      -2.8328      2.00000
    100      -2.8057      2.00000
    101      -2.8056      2.00000
    102      -2.7797      2.00000
    103      -2.7748      2.00000
    104      -2.7748      2.00000
    105      -2.6831      2.00000
    106      -2.6831      2.00000
    107      -2.6219      2.00000
    108      -2.6035      2.00000
    109      -2.5694      2.00000
    110      -2.5694      2.00000
    111      -2.5414      2.00000
    112      -2.5414      2.00000
    113      -2.5084      2.00000
    114      -2.4777      2.00000
    115      -2.4588      2.00000
    116      -2.3465      2.00000
    117      -2.3465      2.00000
    118      -2.3378      2.00000
    119      -2.2910      2.00000
    120      -2.2909      2.00000
    121      -2.2662      2.00000
    122      -2.2445      2.00000
    123      -2.2444      2.00000
    124      -2.2148      2.00000
    125      -2.2148      2.00000
    126      -2.1957      2.00000
    127      -2.1957      2.00000
    128      -2.0668      2.00000
    129      -2.0667      2.00000
    130      -2.0508      2.00000
    131      -2.0407      2.00000
    132      -2.0356      2.00000
    133      -2.0356      2.00000
    134      -2.0151      2.00000
    135      -2.0151      2.00000
    136      -2.0139      2.00000
    137      -2.0027      2.00000
    138      -2.0026      2.00000
    139      -1.8966      2.00000
    140      -1.8966      2.00000
    141      -1.8843      2.00000
    142      -1.8082      2.00000
    143      -1.8082      2.00000
    144      -1.8080      2.00000
    145      -1.7847      2.00000
    146      -1.7847      2.00000
    147      -1.7655      2.00000
    148      -1.7569      2.00000
    149      -1.7568      2.00000
    150      -1.7287      2.00000
    151      -1.7140      2.00000
    152      -1.6919      2.00000
    153      -1.6918      2.00000
    154      -1.6643      2.00000
    155      -1.6346      2.00000
    156      -1.6345      2.00000
    157      -1.6150      2.00000
    158      -1.6006      2.00000
    159      -1.5853      2.00000
    160      -1.5853      2.00000
    161      -1.5484      2.00000
    162      -1.5484      2.00000
    163      -1.5463      2.00000
    164      -1.5261      2.00000
    165      -1.5261      2.00000
    166      -1.5249      2.00000
    167      -1.5144      2.00000
    168      -1.5143      2.00000
    169      -1.5004      2.00000
    170      -1.4696      2.00000
    171      -1.4696      2.00000
    172      -1.4462      2.00000
    173      -1.4449      2.00000
    174      -1.4402      2.00000
    175      -1.4402      2.00000
    176      -1.4300      2.00000
    177      -1.3991      2.00000
    178      -1.3936      2.00000
    179      -1.3935      2.00000
    180      -1.3588      2.00000
    181      -1.3505      2.00000
    182      -1.3505      2.00000
    183      -1.2919      2.00000
    184      -1.2918      2.00000
    185      -1.1944      2.00000
    186      -1.1944      2.00000
    187      -1.1761      2.00000
    188      -1.1544      2.00000
    189      -1.1543      2.00000
    190      -1.1422      2.00000
    191      -0.3680      2.00000
    192      -0.0866      2.00000
    193      -0.0866      2.00000
    194      -0.0777      2.00000
    195       0.0811      2.00000
    196       0.0811      2.00000
    197       0.1347      2.00000
    198       0.7043      0.00000
    199       0.7043      0.00000
    200       0.8758      0.00000
    201       0.8758      0.00000
    202       1.0295      0.00000
    203       1.1437      0.00000
    204       2.2126      0.00000
    205       2.2653      0.00000
    206       2.2653      0.00000
    207       2.5490      0.00000
    208       2.6027      0.00000
    209       2.6027      0.00000
    210       3.5051      0.00000
    211       3.5081      0.00000
    212       3.5081      0.00000
    213       3.5968      0.00000
    214       3.5968      0.00000
    215       3.6934      0.00000
    216       4.0613      0.00000
    217       4.6487      0.00000
    218       5.2749      0.00000
    219       5.3283      0.00000
    220       5.3284      0.00000
    221       5.3465      0.00000
    222       5.3912      0.00000
    223       5.3913      0.00000
    224       5.5038      0.00000
    225       5.5056      0.00000
    226       5.5056      0.00000
    227       5.6181      0.00000
    228       5.6181      0.00000
    229       5.6562      0.00000
    230       6.1268      0.00000
    231       6.2683      0.00000
    232       6.8976      0.00000
    233       7.0190      0.00000
    234       7.0249      0.00000
    235       7.0249      0.00000
    236       7.0604      0.00000
    237       7.0605      0.00000
    238       7.0815      0.00000
    239       7.1521      0.00000
    240       7.1537      0.00000
    241       7.1540      0.00000
    242       7.1999      0.00000
    243       7.2000      0.00000
    244       7.3724      0.00000
    245       7.3728      0.00000
    246       7.4323      0.00000
    247       7.4632      0.00000
    248       7.4646      0.00000
    249       7.6740      0.00000
    250       7.8294      0.00000
    251       7.8983      0.00000
    252       8.0613      0.00000

 k-point     2 :       0.1250   -0.0000    0.0000
  band No.  band energies     occupation 
      1      -8.0462      2.00000
      2      -6.8773      2.00000
      3      -6.1919      2.00000
      4      -6.0165      2.00000
      5      -6.0158      2.00000
      6      -5.9397      2.00000
      7      -5.8677      2.00000
      8      -5.8259      2.00000
      9      -5.8185      2.00000
     10      -5.8029      2.00000
     11      -5.5125      2.00000
     12      -5.4656      2.00000
     13      -5.4547      2.00000
     14      -5.4517      2.00000
     15      -5.4031      2.00000
     16      -5.3989      2.00000
     17      -5.1417      2.00000
     18      -5.0931      2.00000
     19      -5.0929      2.00000
     20      -5.0588      2.00000
     21      -5.0362      2.00000
     22      -5.0318      2.00000
     23      -4.9993      2.00000
     24      -4.9403      2.00000
     25      -4.9364      2.00000
     26      -4.8545      2.00000
     27      -4.8540      2.00000
     28      -4.8335      2.00000
     29      -4.8163      2.00000
     30      -4.8149      2.00000
     31      -4.7812      2.00000
     32      -4.7764      2.00000
     33      -4.7611      2.00000
     34      -4.7301      2.00000
     35      -4.7270      2.00000
     36      -4.6520      2.00000
     37      -4.6520      2.00000
     38      -4.6204      2.00000
     39      -4.5907      2.00000
     40      -4.5888      2.00000
     41      -4.3017      2.00000
     42      -4.2999      2.00000
     43      -4.2795      2.00000
     44      -4.2508      2.00000
     45      -4.2406      2.00000
     46      -4.2404      2.00000
     47      -4.2018      2.00000
     48      -4.1481      2.00000
     49      -4.1309      2.00000
     50      -4.0925      2.00000
     51      -4.0454      2.00000
     52      -4.0296      2.00000
     53      -4.0114      2.00000
     54      -3.9712      2.00000
     55      -3.7449      2.00000
     56      -3.7135      2.00000
     57      -3.7004      2.00000
     58      -3.6971      2.00000
     59      -3.6715      2.00000
     60      -3.6654      2.00000
     61      -3.6610      2.00000
     62      -3.6302      2.00000
     63      -3.6185      2.00000
     64      -3.5775      2.00000
     65      -3.5730      2.00000
     66      -3.5718      2.00000
     67      -3.5465      2.00000
     68      -3.5287      2.00000
     69      -3.5235      2.00000
     70      -3.4992      2.00000
     71      -3.4925      2.00000
     72      -3.4604      2.00000
     73      -3.4572      2.00000
     74      -3.4516      2.00000
     75      -3.4381      2.00000
     76      -3.4187      2.00000
     77      -3.3621      2.00000
     78      -3.3583      2.00000
     79      -3.3330      2.00000
     80      -3.3277      2.00000
     81      -3.2882      2.00000
     82      -3.2833      2.00000
     83      -3.2506      2.00000
     84      -3.2467      2.00000
     85      -3.2144      2.00000
     86      -3.2143      2.00000
     87      -3.1946      2.00000
     88      -3.1742      2.00000
     89      -3.1647      2.00000
     90      -3.1645      2.00000
     91      -3.1265      2.00000
     92      -3.0920      2.00000
     93      -3.0780      2.00000
     94      -3.0648      2.00000
     95      -3.0321      2.00000
     96      -3.0081      2.00000
     97      -2.9271      2.00000
     98      -2.9012      2.00000
     99      -2.8979      2.00000
    100      -2.8319      2.00000
    101      -2.8315      2.00000
    102      -2.8025      2.00000
    103      -2.7741      2.00000
    104      -2.7438      2.00000
    105      -2.7422      2.00000
    106      -2.6940      2.00000
    107      -2.6319      2.00000
    108      -2.6215      2.00000
    109      -2.6112      2.00000
    110      -2.5924      2.00000
    111      -2.5885      2.00000
    112      -2.5621      2.00000
    113      -2.5430      2.00000
    114      -2.5343      2.00000
    115      -2.5312      2.00000
    116      -2.5006      2.00000
    117      -2.4870      2.00000
    118      -2.4845      2.00000
    119      -2.4713      2.00000
    120      -2.3665      2.00000
    121      -2.3602      2.00000
    122      -2.2718      2.00000
    123      -2.2610      2.00000
    124      -2.2544      2.00000
    125      -2.2292      2.00000
    126      -2.2116      2.00000
    127      -2.1920      2.00000
    128      -2.1858      2.00000
    129      -2.1685      2.00000
    130      -2.1680      2.00000
    131      -2.1379      2.00000
    132      -2.1294      2.00000
    133      -2.1167      2.00000
    134      -2.0334      2.00000
    135      -2.0331      2.00000
    136      -1.9986      2.00000
    137      -1.9662      2.00000
    138      -1.9523      2.00000
    139      -1.9503      2.00000
    140      -1.9392      2.00000
    141      -1.9294      2.00000
    142      -1.9026      2.00000
    143      -1.8576      2.00000
    144      -1.8408      2.00000
    145      -1.7904      2.00000
    146      -1.7657      2.00000
    147      -1.7527      2.00000
    148      -1.7371      2.00000
    149      -1.7294      2.00000
    150      -1.7262      2.00000
    151      -1.7052      2.00000
    152      -1.6955      2.00000
    153      -1.6858      2.00000
    154      -1.6293      2.00000
    155      -1.6280      2.00000
    156      -1.6077      2.00000
    157      -1.5876      2.00000
    158      -1.5853      2.00000
    159      -1.5719      2.00000
    160      -1.5522      2.00000
    161      -1.5235      2.00000
    162      -1.5200      2.00000
    163      -1.5140      2.00000
    164      -1.4901      2.00000
    165      -1.4853      2.00000
    166      -1.4752      2.00000
    167      -1.4642      2.00000
    168      -1.4566      2.00000
    169      -1.4374      2.00000
    170      -1.4349      2.00000
    171      -1.4033      2.00000
    172      -1.3957      2.00000
    173      -1.3516      2.00000
    174      -1.3436      2.00000
    175      -1.3426      2.00000
    176      -1.3211      2.00000
    177      -1.2797      2.00000
    178      -1.2585      2.00000
    179      -1.2411      2.00000
    180      -1.2328      2.00000
    181      -1.2250      2.00000
    182      -1.2208      2.00000
    183      -1.1964      2.00000
    184      -1.1849      2.00000
    185      -1.1481      2.00000
    186      -1.1391      2.00000
    187      -1.1020      2.00000
    188      -1.0337      2.00000
    189      -1.0041      2.00000
    190      -0.9246      2.00000
    191      -0.3474      2.00000
    192      -0.2846      2.00000
    193      -0.1520      2.00000
    194      -0.1285      2.00000
    195       0.2218      2.00000
    196       0.2326      2.00000
    197       0.4958      2.00000
    198       0.7174      0.00000
    199       0.7353      0.00000
    200       0.9027      0.00000
    201       0.9415      0.00000
    202       1.1965      0.00000
    203       1.2301      0.00000
    204       1.8955      0.00000
    205       2.2226      0.00000
    206       2.2672      0.00000
    207       2.6517      0.00000
    208       2.7371      0.00000
    209       2.8662      0.00000
    210       2.8756      0.00000
    211       3.0692      0.00000
    212       3.6051      0.00000
    213       3.6225      0.00000
    214       3.8048      0.00000
    215       3.9713      0.00000
    216       4.1294      0.00000
    217       4.4792      0.00000
    218       4.8107      0.00000
    219       5.0517      0.00000
    220       5.1607      0.00000
    221       5.1715      0.00000
    222       5.1952      0.00000
    223       5.3135      0.00000
    224       5.3924      0.00000
    225       5.5460      0.00000
    226       5.6152      0.00000
    227       5.6966      0.00000
    228       5.7745      0.00000
    229       5.7763      0.00000
    230       6.2006      0.00000
    231       6.3430      0.00000
    232       6.4233      0.00000
    233       6.6210      0.00000
    234       6.6474      0.00000
    235       6.7168      0.00000
    236       6.7218      0.00000
    237       6.8364      0.00000
    238       6.9111      0.00000
    239       6.9262      0.00000
    240       7.0313      0.00000
    241       7.0634      0.00000
    242       7.1798      0.00000
    243       7.3930      0.00000
    244       7.4451      0.00000
    245       7.4616      0.00000
    246       7.5725      0.00000
    247       7.6477      0.00000
    248       7.7530      0.00000
    249       7.7779      0.00000
    250       7.8746      0.00000
    251       7.9385      0.00000
    252       7.9488      0.00000

 k-point     3 :       0.2500   -0.0000    0.0000
  band No.  band energies     occupation 
      1      -7.8952      2.00000
      2      -6.7299      2.00000
      3      -6.5465      2.00000
      4      -6.0562      2.00000
      5      -6.0538      2.00000
      6      -5.8024      2.00000
      7      -5.7690      2.00000
      8      -5.7307      2.00000
      9      -5.6744      2.00000
     10      -5.6698      2.00000
     11      -5.6283      2.00000
     12      -5.5429      2.00000
     13      -5.3896      2.00000
     14      -5.3837      2.00000
     15      -5.3397      2.00000
     16      -5.3338      2.00000
     17      -5.2192      2.00000
     18      -5.0862      2.00000
     19      -5.0736      2.00000
     20      -5.0562      2.00000
     21      -5.0353      2.00000
     22      -4.9715      2.00000
     23      -4.9710      2.00000
     24      -4.9511      2.00000
     25      -4.9470      2.00000
     26      -4.9195      2.00000
     27      -4.9062      2.00000
     28      -4.8864      2.00000
     29      -4.8805      2.00000
     30      -4.8782      2.00000
     31      -4.7513      2.00000
     32      -4.7111      2.00000
     33      -4.7089      2.00000
     34      -4.6641      2.00000
     35      -4.6566      2.00000
     36      -4.5970      2.00000
     37      -4.5829      2.00000
     38      -4.5205      2.00000
     39      -4.5067      2.00000
     40      -4.4769      2.00000
     41      -4.4032      2.00000
     42      -4.3856      2.00000
     43      -4.3401      2.00000
     44      -4.2889      2.00000
     45      -4.2678      2.00000
     46      -4.2659      2.00000
     47      -4.2338      2.00000
     48      -4.1232      2.00000
     49      -4.1015      2.00000
     50      -4.0597      2.00000
     51      -4.0520      2.00000
     52      -4.0166      2.00000
     53      -4.0068      2.00000
     54      -3.9982      2.00000
     55      -3.9106      2.00000
     56      -3.8644      2.00000
     57      -3.8509      2.00000
     58      -3.7863      2.00000
     59      -3.7654      2.00000
     60      -3.7537      2.00000
     61      -3.7299      2.00000
     62      -3.7093      2.00000
     63      -3.6873      2.00000
     64      -3.6595      2.00000
     65      -3.6492      2.00000
     66      -3.6132      2.00000
     67      -3.5910      2.00000
     68      -3.5868      2.00000
[...]
  0.000   0.000   0.000   2.000   0.000   0.000   0.000   0.000   0.000   0.000   0.000   0.000   0.000   0.000   0.000   0.000
  0.000   0.000   0.000   0.000   2.000   0.000   0.000   0.000   0.000   0.000   0.000   0.000   0.000   0.000   0.000   0.000
  0.000   0.000   0.000   0.000   0.000   0.000   0.000   0.000   0.000   0.000   0.000   0.000   0.000   0.000   0.000   0.000
  0.000   0.000   0.000   0.000   0.000   0.000   0.000   0.000   0.000   0.000   0.000   0.000   0.000   0.000   0.000   0.000
  0.000   0.000   0.000   0.000   0.000   0.000   0.000   0.000   0.000   0.000   0.000   0.000   0.000   0.000   0.000   0.000
  0.000   0.000   0.000   0.000   0.000   0.000   0.000   0.000   0.000   0.000   0.000   0.000   0.000   0.000   0.000   0.000
  0.000   0.000   0.000   0.000   0.000   0.000   0.000   0.000   0.000   0.000   0.000   0.000   0.000   0.000   0.000   0.000
  0.000   0.000   0.000   0.000   0.000   0.000   0.000   0.000   0.000   0.000   1.000   0.000   0.000   0.000   0.000   0.000
  0.000   0.000   0.000   0.000   0.000   0.000   0.000   0.000   0.000   0.000   0.000   0.000   0.000   0.000   0.000   0.000
  0.000   0.000   0.000   0.000   0.000   0.000   0.000   0.000   0.000   0.000   0.000   0.000   0.000   0.000   0.000   0.000
  0.000   0.000   0.000   0.000   0.000   0.000   0.000   0.000   0.000   0.000   0.000   0.000   0.000   0.000   0.000   0.000
  0.000   0.000   0.000   0.000   0.000   0.000   0.000   0.000   0.000   0.000   0.000   0.000   0.000   0.000   0.000   0.000
  0.000   0.000   0.000   0.000   0.000   0.000   0.000   0.000   0.000   0.000   0.000   0.000   0.000   0.000   0.000   0.000
  0.000   0.000   0.000   0.000   0.000   0.000   0.000   0.000   0.000   0.000   0.000   0.000   0.000   0.000   0.000   0.000
  0.000   0.000   0.000   0.000   0.000   0.000   0.000   0.000   0.000   0.000   0.000   0.000   0.000   0.000   0.000   0.000


------------------------ aborting loop because EDIFF is reached ----------------------------------------





 total charge

# of ion       s       p       d       tot
------------------------------------------
    1        0.548   0.238   8.766   9.552
    2        0.543   0.241   8.766   9.550
    3        0.543   0.241   8.766   9.550
    4        0.543   0.241   8.766   9.550
    5        0.544   0.240   8.762   9.547
    6        0.543   0.241   8.766   9.550
    7        0.543   0.241   8.766   9.550
    8        0.543   0.241   8.766   9.550
    9        0.543   0.239   8.769   9.550
   10        0.528   0.306   8.765   9.600
   11        0.521   0.306   8.782   9.609
   12        0.528   0.306   8.765   9.600
   13        0.521   0.306   8.782   9.609
   14        0.521   0.306   8.782   9.609
   15        0.516   0.307   8.776   9.599
   16        0.528   0.306   8.765   9.600
   17        0.516   0.307   8.776   9.599
   18        0.516   0.307   8.776   9.599
   19        0.516   0.296   8.773   9.586
   20        0.565   0.339   8.729   9.633
   21        0.565   0.339   8.729   9.633
   22        0.506   0.305   8.780   9.590
   23        0.565   0.339   8.729   9.633
   24        0.506   0.305   8.780   9.590
   25        0.516   0.296   8.773   9.586
   26        0.516   0.296   8.773   9.586
   27        0.506   0.305   8.780   9.590
   28        0.541   0.229   8.754   9.523
   29        0.579   0.249   8.729   9.557
   30        0.579   0.249   8.729   9.557
   31        0.579   0.249   8.729   9.557
   32        0.579   0.249   8.729   9.557
   33        0.579   0.249   8.729   9.557
   34        0.579   0.249   8.729   9.557
   35        0.536   0.228   8.758   9.522
   36        0.376   0.304   4.032   4.712
--------------------------------------------------
tot         19.277   9.992 310.628 339.897
 
    CHARGE:  cpu time    0.7421: real time    0.7438
    FORLOC:  cpu time    0.0093: real time    0.0093
    FORNL :  cpu time    2.8740: real time    2.8742
    STRESS:  cpu time    7.7902: real time    7.7978
    FORCOR:  cpu time    0.0589: real time    0.0591
    FORHAR:  cpu time    0.0192: real time    0.0194
    OFIELD:  cpu time    0.0005: real time    0.0005

  FORCE on cell =-STRESS in cart. coord.  units (eV):
  Direction    XX          YY          ZZ          XY          YZ          ZX
  --------------------------------------------------------------------------------------
  Alpha Z  1000.45554  1000.45554  1000.45554
  Ewald  117288.57835117288.57873************    -0.00033    -0.00009    -0.00018
  Hartree125796.77302125796.77302************    -0.00000    -0.00003    -0.00005
  E(xc)   -1753.91026 -1753.91025 -1761.87008    -0.00001    -0.00000    -0.00000
  Local  ************************255454.13399     0.00172     0.00005     0.00011
  n-local   -92.51285   -41.87892   -41.27608    23.82255    -1.26451     1.22291
  augment  2371.61198  2371.61348  2393.10451    -0.00130     0.00002     0.00004
  Kinetic  5405.71986  5419.08339  5481.70545     7.64593    -0.23433     0.80388
  Fock        0.00000     0.00000     0.00000     0.00000     0.00000     0.00000
  -------------------------------------------------------------------------------------
  Total     -23.46990   -23.46989     3.35314    -0.00000     0.00000     0.00000
  in kB     -25.18340   -25.18340     3.59795    -0.00000     0.00000     0.00000
  external pressure =      -15.59 kB  Pullay stress =        0.00 kB


 VOLUME and BASIS-vectors are now :
 -----------------------------------------------------------------------------
  energy-cutoff  :      500.00
  volume of cell :     1493.16
      direct lattice vectors                 reciprocal lattice vectors
     8.813512802  0.000000000  0.000000000     0.113462137 -0.065507406  0.000000000
     4.406756909  7.632725690  0.000000000     0.000000000  0.131014796  0.000000000
     0.000000000  0.000000000 22.196203232     0.000000000  0.000000000  0.045052750

  length of vectors
     8.813512802  8.813512802 22.196203232     0.131014796  0.131014796  0.045052750


 FORCES acting on ions
    electron-ion (+dipol)            ewald-force                    non-local-force                 convergence-correction
 -----------------------------------------------------------------------------------------------
   -.197E-04 -.163E-04 0.245E+04   0.519E-04 0.433E-04 -.245E+04   -.211E-19 0.616E-18 -.887E+00   -.280E-03 -.175E-03 -.240E+00
   0.287E+00 -.176E+00 0.245E+04   -.493E+00 -.137E-01 -.245E+04   0.824E-01 0.120E+00 -.255E+00   0.107E+00 0.623E-01 -.299E+00
   -.287E+00 -.176E+00 0.245E+04   0.493E+00 -.137E-01 -.245E+04   -.824E-01 0.120E+00 -.255E+00   -.107E+00 0.643E-01 -.298E+00
   -.921E-02 0.337E+00 0.245E+04   -.259E+00 -.420E+00 -.245E+04   0.145E+00 0.116E-01 -.255E+00   0.108E+00 0.615E-01 -.299E+00
   0.734E-05 -.241E-04 0.245E+04   0.951E-04 0.174E-05 -.245E+04   0.107E-17 0.256E-17 -.215E-01   0.439E-02 0.267E-02 -.259E+00
   0.916E-02 0.337E+00 0.245E+04   0.258E+00 -.420E+00 -.245E+04   -.145E+00 0.116E-01 -.255E+00   -.109E+00 0.624E-01 -.298E+00
   -.296E+00 -.160E+00 0.245E+04   0.235E+00 0.434E+00 -.245E+04   0.623E-01 -.131E+00 -.255E+00   0.242E-02 -.125E+00 -.298E+00
   0.296E+00 -.160E+00 0.245E+04   -.235E+00 0.434E+00 -.245E+04   -.623E-01 -.131E+00 -.255E+00   -.504E-03 -.126E+00 -.298E+00
   0.198E-04 -.416E-04 0.246E+04   0.166E-03 -.200E-04 -.245E+04   0.183E-17 -.233E-17 -.491E+00   -.466E-02 -.241E-02 -.282E+00
   0.468E+01 0.270E+01 0.784E+03   -.422E+01 -.244E+01 -.783E+03   -.420E+00 -.242E+00 -.765E+00   -.175E-01 -.102E-01 0.219E+00
   0.142E-04 0.150E+01 0.787E+03   0.148E-03 -.157E+01 -.787E+03   0.197E-08 0.295E-01 -.893E-01   0.425E-02 -.171E-01 0.288E+00
   -.468E+01 0.270E+01 0.784E+03   0.422E+01 -.244E+01 -.783E+03   0.420E+00 -.242E+00 -.765E+00   0.155E-01 -.824E-02 0.220E+00
   0.130E+01 -.749E+00 0.787E+03   -.136E+01 0.786E+00 -.787E+03   0.256E-01 -.148E-01 -.893E-01   -.124E-01 0.125E-01 0.288E+00
   -.130E+01 -.749E+00 0.787E+03   0.136E+01 0.786E+00 -.787E+03   -.256E-01 -.148E-01 -.893E-01   0.207E-01 0.118E-01 0.289E+00
   0.319E-04 0.462E+01 0.788E+03   0.235E-03 -.479E+01 -.788E+03   0.176E-08 0.264E-01 -.505E+00   -.297E-02 0.784E-01 0.253E+00
   -.209E-04 -.541E+01 0.784E+03   0.162E-03 0.487E+01 -.783E+03   0.323E-07 0.485E+00 -.765E+00   0.397E-03 0.176E-01 0.220E+00
   0.400E+01 -.231E+01 0.788E+03   -.415E+01 0.240E+01 -.788E+03   0.228E-01 -.132E-01 -.505E+00   0.667E-01 -.414E-01 0.253E+00
   -.400E+01 -.231E+01 0.788E+03   0.415E+01 0.240E+01 -.788E+03   -.228E-01 -.132E-01 -.505E+00   -.666E-01 -.387E-01 0.253E+00
   -.424E-04 -.967E+00 -.904E+03   0.555E-04 0.861E+00 0.903E+03   0.477E-09 0.716E-02 0.434E+00   -.590E-02 0.100E+00 0.808E+00
   -.101E+02 -.585E+01 -.894E+03   0.109E+02 0.627E+01 0.894E+03   -.103E+01 -.596E+00 -.117E+01   0.294E+00 0.170E+00 0.126E+01
   0.101E+02 -.585E+01 -.894E+03   -.109E+02 0.627E+01 0.894E+03   0.103E+01 -.596E+00 -.117E+01   -.285E+00 0.172E+00 0.126E+01
   -.155E+02 0.895E+01 -.891E+03   0.150E+02 -.865E+01 0.889E+03   0.431E+00 -.249E+00 0.570E+00   0.930E-01 -.566E-01 0.834E+00
   -.925E-05 0.117E+02 -.894E+03   0.138E-03 -.125E+02 0.894E+03   0.794E-07 0.119E+01 -.117E+01   0.580E-02 -.333E+00 0.126E+01
   0.155E+02 0.895E+01 -.891E+03   -.150E+02 -.865E+01 0.889E+03   -.431E+00 -.249E+00 0.570E+00   -.101E+00 -.584E-01 0.833E+00
   0.838E+00 0.484E+00 -.904E+03   -.746E+00 -.431E+00 0.903E+03   -.620E-02 -.358E-02 0.434E+00   -.894E-01 -.517E-01 0.807E+00
   -.838E+00 0.484E+00 -.904E+03   0.746E+00 -.431E+00 0.903E+03   0.620E-02 -.358E-02 0.434E+00   0.844E-01 -.553E-01 0.808E+00
   0.840E-05 -.179E+02 -.891E+03   0.199E-03 0.173E+02 0.889E+03   0.331E-07 0.497E+00 0.570E+00   -.309E-02 0.109E+00 0.834E+00
   -.963E-05 -.104E-04 -.246E+04   0.270E-04 0.300E-04 0.246E+04   -.120E-17 -.845E-18 0.453E+00   -.269E-03 -.170E-03 0.522E+00
   -.867E+01 -.169E+02 -.248E+04   0.951E+01 0.182E+02 0.248E+04   -.115E+01 -.177E+01 -.260E+00   0.308E+00 0.440E+00 0.478E+00
   0.867E+01 -.169E+02 -.248E+04   -.951E+01 0.182E+02 0.248E+04   0.115E+01 -.177E+01 -.260E+00   -.307E+00 0.442E+00 0.478E+00
   -.190E+02 0.932E+00 -.248E+04   0.205E+02 -.870E+00 0.248E+04   -.211E+01 -.111E+00 -.260E+00   0.535E+00 0.461E-01 0.478E+00
   0.190E+02 0.932E+00 -.248E+04   -.205E+02 -.870E+00 0.248E+04   0.211E+01 -.111E+00 -.260E+00   -.536E+00 0.468E-01 0.476E+00
   -.103E+02 0.160E+02 -.248E+04   0.110E+02 -.173E+02 0.248E+04   -.958E+00 0.188E+01 -.260E+00   0.230E+00 -.487E+00 0.478E+00
   0.103E+02 0.160E+02 -.248E+04   -.110E+02 -.173E+02 0.248E+04   0.958E+00 0.188E+01 -.260E+00   -.228E+00 -.488E+00 0.476E+00
   0.326E-04 -.336E-04 -.247E+04   0.144E-03 -.455E-04 0.246E+04   -.775E-17 -.485E-17 0.673E+00   -.472E-02 -.243E-02 0.541E+00
   -.252E-04 0.417E-07 -.130E+04   0.625E-04 0.565E-05 0.129E+04   -.210E-17 -.323E-18 0.272E+01   0.104E-02 0.617E-03 0.371E+00
 -----------------------------------------------------------------------------------------------
   -.817E-03 -.776E-03 -.703E+01   -.329E-13 0.263E-12 0.682E-12   0.656E-15 0.217E-15 -.520E+01   -.129E-02 -.184E-03 0.127E+02
 
 
 POSITION                                       TOTAL-FORCE (eV/Angst)
 -----------------------------------------------------------------------------------
      0.00000      0.00000      5.28038        -0.000000     -0.000000     -0.171527
      2.93784      0.00000      5.28038        -0.016264     -0.007183     -0.077042
      5.87568      0.00000      5.28038         0.016264     -0.007183     -0.077042
      1.46892      2.54424      5.28038        -0.014353     -0.010493     -0.077042
      4.40676      2.54424      5.28038        -0.000000      0.000000     -0.101063
      7.34459      2.54424      5.28038         0.014353     -0.010493     -0.077042
      2.93784      5.08848      5.28038         0.001911      0.017677     -0.077042
      5.87568      5.08848      5.28038        -0.001911      0.017677     -0.077042
      8.81351      5.08848      5.28038        -0.000000     -0.000000     -0.095506
      1.46892      0.84808      7.67911         0.027047      0.015616      0.155826
      4.40676      0.84808      7.67911        -0.000000     -0.063625      0.001343
      7.34459      0.84808      7.67911        -0.027047      0.015616      0.155826
      2.93784      3.39232      7.67911        -0.055100      0.031812      0.001343
      5.87568      3.39232      7.67911         0.055100      0.031812      0.001343
      8.81351      3.39232      7.67911        -0.000000     -0.064218      0.107793
      4.40676      5.93656      7.67911        -0.000000     -0.031232      0.155826
      7.34459      5.93656      7.67911        -0.055614      0.032109      0.107793
     10.28243      5.93656      7.67911         0.055614      0.032109      0.107793
      8.81351      1.70181     10.09390         0.000000      0.002663     -0.002430
      2.93906      1.69686     10.04479        -0.013095     -0.007560     -0.001767
      5.87446      1.69686     10.04479         0.013095     -0.007560     -0.001767
     10.26694      4.24935     10.06849         0.006873     -0.003968     -0.009465
      4.40676      4.23900     10.04479         0.000000      0.015121     -0.001767
      7.36009      4.24935     10.06849        -0.006873     -0.003968     -0.009465
     11.74646      6.78182     10.09390        -0.002306     -0.001331     -0.002430
      5.88057      6.78182     10.09390         0.002306     -0.001331     -0.002430
      8.81351      6.76675     10.06849         0.000000      0.007936     -0.009465
      0.00000      0.00000     12.49934        -0.000000     -0.000000     -0.006147
      2.98260      0.07565     12.53968        -0.001446      0.005363      0.009853
      5.83091      0.07565     12.53968         0.001446      0.005363      0.009853
      1.55682      2.54518     12.53968         0.003921     -0.003934      0.009853
      7.25669      2.54518     12.53968        -0.003921     -0.003934      0.009853
      2.98097      5.01189     12.53968         0.005367     -0.001429      0.009853
      5.83254      5.01189     12.53968        -0.005367     -0.001429      0.009853
      8.81351      5.08848     12.49853        -0.000000     -0.000000      0.014793
      4.40676      2.54424     12.23451        -0.000000     -0.000000      0.008683
 -----------------------------------------------------------------------------------
    total drift:                               -0.002111     -0.000960      0.488868


--------------------------------------------------------------------------------------------------------



  FREE ENERGIE OF THE ION-ELECTRON SYSTEM (eV)
  ---------------------------------------------------
  free  energy   TOTEN  =      -115.36368648 eV

  energy  without entropy=     -115.36368648  energy(sigma->0) =     -115.36368648
 


--------------------------------------------------------------------------------------------------------


    POTLOK:  cpu time    0.0631: real time    0.0631


--------------------------------------------------------------------------------------------------------


 stress matrix after NEB project (eV)
    -23.46990     -0.00000      0.00000
     -0.00000    -23.46989      0.00000
     -0.00000      0.00000      3.35314
  FORCES: max atom, RMS     0.015223    0.007978
  FORCE total and by dimension    0.047870    0.015121
  Stress total and by dimension   33.360388   23.469895
     LOOP+:  cpu time  109.6995: real time  110.0749
 -----------------------------------------------------------------------------
|                                                                             |
|           W    W    AA    RRRRR   N    N  II  N    N   GGGG   !!!           |
|           W    W   A  A   R    R  NN   N  II  NN   N  G    G  !!!           |
|           W    W  A    A  R    R  N N  N  II  N N  N  G       !!!           |
|           W WW W  AAAAAA  RRRRR   N  N N  II  N  N N  G  GGG   !            |
|           WW  WW  A    A  R   R   N   NN  II  N   NN  G    G                |
|           W    W  A    A  R    R  N    N  II  N    N   GGGG   !!!           |
|                                                                             |
|     Tetrahedron method does not include variations of the Fermi             |
|     occupations, so forces and stress will be inaccurate. We suggest        |
|     using a different smearing scheme ISMEAR = 1 or 2 for metals in         |
|     relaxations.                                                            |
|                                                                             |
 -----------------------------------------------------------------------------

    4ORBIT:  cpu time    0.0000: real time    0.0000



 total charge

# of ion       s       p       d       tot
------------------------------------------
    1        0.548   0.238   8.766   9.552
    2        0.543   0.241   8.766   9.550
    3        0.543   0.241   8.766   9.550
    4        0.543   0.241   8.766   9.550
    5        0.544   0.240   8.762   9.547
    6        0.543   0.241   8.766   9.550
    7        0.543   0.241   8.766   9.550
    8        0.543   0.241   8.766   9.550
    9        0.543   0.239   8.769   9.550
   10        0.528   0.306   8.765   9.600
   11        0.521   0.306   8.782   9.609
   12        0.528   0.306   8.765   9.600
   13        0.521   0.306   8.782   9.609
   14        0.521   0.306   8.782   9.609
   15        0.516   0.307   8.776   9.599
   16        0.528   0.306   8.765   9.600
   17        0.516   0.307   8.776   9.599
   18        0.516   0.307   8.776   9.599
   19        0.516   0.296   8.773   9.586
   20        0.565   0.339   8.729   9.633
   21        0.565   0.339   8.729   9.633
   22        0.506   0.305   8.780   9.590
   23        0.565   0.339   8.729   9.633
   24        0.506   0.305   8.780   9.590
   25        0.516   0.296   8.773   9.586
   26        0.516   0.296   8.773   9.586
   27        0.506   0.305   8.780   9.590
   28        0.541   0.229   8.754   9.523
   29        0.579   0.249   8.729   9.557
   30        0.579   0.249   8.729   9.557
   31        0.579   0.249   8.729   9.557
   32        0.579   0.249   8.729   9.557
   33        0.579   0.249   8.729   9.557
   34        0.579   0.249   8.729   9.557
   35        0.536   0.228   8.758   9.522
   36        0.376   0.304   4.032   4.712
--------------------------------------------------
tot         19.277   9.992 310.628 339.897
 
 BZINTS: Fermi energy:    0.698677;  391.000000 electrons
         Band energy:-0.117923E+04;  BLOECHL correction:   -0.032975

 total amount of memory used by VASP MPI-rank0   121698. kBytes
=======================================================================

   base      :      30000. kBytes
   nonlr-proj:      14110. kBytes
   fftplans  :       4330. kBytes
   grid      :      17098. kBytes
   one-center:        559. kBytes
   wavefun   :      55601. kBytes
 
  
  
 General timing and accounting informations for this job:
 ========================================================
  
                  Total CPU time used (sec):      117.446
                            User time (sec):      113.800
                          System time (sec):        3.646
                         Elapsed time (sec):      118.253
  
                   Maximum memory used (kb):      379788.
                   Average memory used (kb):          N/A
  
                          Minor page faults:        67255
                          Major page faults:            0
                 Voluntary context switches:         5236
