PROCAR new format
# of k-points:   10         # of bands:  252         # of ions:   36

 k-point     1 :    0.00000000 0.00000000 0.00000000     weight = 0.01562500

band     1 # energy   -8.09727081 # occ.  2.00000000
 
ion      s      p      d    tot
    1  0.007  0.001  0.000  0.007
    2  0.007  0.001  0.000  0.007
    3  0.007  0.001  0.000  0.007
    4  0.007  0.001  0.000  0.007
    5  0.007  0.001  0.000  0.007
    6  0.007  0.001  0.000  0.007
    7  0.007  0.001  0.000  0.007
    8  0.007  0.001  0.000  0.007
    9  0.007  0.001  0.000  0.007
   10  0.027  0.000  0.000  0.027
   11  0.028  0.000  0.000  0.028
   12  0.027  0.000  0.000  0.027
   13  0.028  0.000  0.000  0.028
   14  0.028  0.000  0.000  0.028
   15  0.027  0.000  0.000  0.027
   16  0.027  0.000  0.000  0.027
   17  0.027  0.000  0.000  0.027
   18  0.027  0.000  0.000  0.027
   19  0.023  0.000  0.000  0.023
   20  0.026  0.000  0.000  0.026
   21  0.026  0.000  0.000  0.026
   22  0.024  0.000  0.000  0.025
   23  0.026  0.000  0.000  0.026
   24  0.024  0.000  0.000  0.024
   25  0.023  0.000  0.000  0.023
   26  0.023  0.000  0.000  0.023
   27  0.024  0.000  0.000  0.025
   28  0.005  0.000  0.000  0.005
   29  0.005  0.000  0.000  0.005
   30  0.005  0.000  0.000  0.005
   31  0.005  0.000  0.000  0.005
   32  0.005  0.000  0.000  0.005
   33  0.005  0.000  0.000  0.005
   34  0.005  0.000  0.000  0.005
   35  0.005  0.000  0.000  0.005
   36  0.005  0.001  0.000  0.006
tot    0.565  0.012  0.003  0.580
 
band     2 # energy   -6.92761415 # occ.  2.00000000
 
ion      s      p      d    tot
    1  0.017  0.000  0.001  0.019
    2  0.016  0.000  0.001  0.018
    3  0.016  0.000  0.001  0.018
    4  0.016  0.000  0.001  0.018
    5  0.016  0.000  0.001  0.018
    6  0.016  0.000  0.001  0.018
    7  0.016  0.000  0.001  0.018
    8  0.016  0.000  0.001  0.018
    9  0.016  0.000  0.001  0.018
   10  0.010  0.001  0.002  0.014
   11  0.009  0.002  0.002  0.013
   12  0.010  0.001  0.002  0.014
   13  0.009  0.002  0.002  0.013
   14  0.009  0.002  0.002  0.013
   15  0.010  0.002  0.002  0.013
   16  0.010  0.001  0.002  0.014
   17  0.010  0.002  0.002  0.013
   18  0.010  0.002  0.002  0.013
   19  0.014  0.001  0.003  0.019
   20  0.014  0.001  0.004  0.019
   21  0.014  0.001  0.004  0.019
   22  0.015  0.001  0.003  0.019
   23  0.014  0.001  0.004  0.019
   24  0.015  0.001  0.003  0.019
   25  0.014  0.001  0.003  0.019
   26  0.014  0.001  0.003  0.019
   27  0.015  0.001  0.003  0.019
   28  0.015  0.000  0.001  0.016
   29  0.015  0.001  0.001  0.016
   30  0.015  0.001  0.001  0.016
   31  0.015  0.001  0.001  0.016
   32  0.015  0.001  0.001  0.016
   33  0.015  0.001  0.001  0.016
   34  0.015  0.001  0.001  0.016
   35  0.015  0.001  0.001  0.016
   36  0.012  0.001  0.000  0.013
tot    0.497  0.031  0.069  0.597
 
band     3 # energy   -5.99700143 # occ.  2.00000000
 
ion      s      p      d    tot
    1  0.010  0.000  0.021  0.031
    2  0.017  0.000  0.016  0.034
    3  0.017  0.000  0.016  0.034
    4  0.017  0.000  0.016  0.034
    5  0.012  0.000  0.015  0.027
    6  0.017  0.000  0.016  0.034
    7  0.017  0.000  0.016  0.034
    8  0.017  0.000  0.016  0.034
    9  0.034  0.000  0.012  0.045
   10  0.011  0.001  0.017  0.029
   11  0.014  0.002  0.014  0.030
   12  0.011  0.001  0.017  0.029
   13  0.014  0.002  0.014  0.030
   14  0.014  0.002  0.014  0.029
   15  0.000  0.001  0.020  0.021
   16  0.011  0.001  0.017  0.029
   17  0.000  0.001  0.020  0.021
   18  0.000  0.001  0.020  0.021
   19  0.000  0.001  0.005  0.006
   20  0.008  0.001  0.004  0.013
   21  0.008  0.001  0.004  0.013
   22  0.002  0.001  0.001  0.004
   23  0.008  0.001  0.004  0.013
   24  0.002  0.001  0.001  0.004
   25  0.000  0.001  0.005  0.006
   26  0.000  0.001  0.005  0.006
   27  0.002  0.001  0.001  0.004
   28  0.008  0.000  0.001  0.010
   29  0.006  0.000  0.004  0.010
   30  0.006  0.000  0.004  0.010
   31  0.006  0.000  0.004  0.010
   32  0.006  0.000  0.004  0.010
   33  0.006  0.000  0.004  0.010
   34  0.006  0.000  0.004  0.010
   35  0.011  0.000  0.002  0.013
   36  0.000  0.001  0.003  0.004
tot    0.317  0.021  0.359  0.697
 
band     4 # energy   -5.96599847 # occ.  2.00000000
 
ion      s      p      d    tot
    1  0.000  0.000  0.008  0.009
    2  0.003  0.001  0.003  0.006
    3  0.001  0.000  0.003  0.004
    4  0.003  0.001  0.003  0.007
    5  0.000  0.001  0.007  0.008
    6  0.007  0.001  0.004  0.012
    7  0.001  0.000  0.003  0.005
    8  0.007  0.001  0.004  0.012
    9  0.000  0.000  0.001  0.001
   10  0.035  0.002  0.005  0.042
   11  0.013  0.003  0.023  0.039
   12  0.009  0.001  0.029  0.038
   13  0.014  0.003  0.022  0.039
   14  0.054  0.001  0.011  0.066
   15  0.001  0.003  0.006  0.010
   16  0.008  0.001  0.029  0.038
   17  0.001  0.003  0.006  0.010
   18  0.002  0.000  0.013  0.015
   19  0.002  0.003  0.005  0.010
   20  0.061  0.001  0.010  0.072
   21  0.015  0.002  0.027  0.045
   22  0.005  0.001  0.021  0.026
   23  0.014  0.002  0.028  0.044
   24  0.018  0.002  0.005  0.024
   25  0.008  0.000  0.013  0.021
   26  0.002  0.003  0.006  0.011
   27  0.004  0.001  0.022  0.026
   28  0.000  0.000  0.001  0.001
   29  0.006  0.001  0.004  0.011
   30  0.002  0.000  0.003  0.005
   31  0.006  0.001  0.004  0.011
   32  0.001  0.000  0.002  0.004
   33  0.001  0.000  0.003  0.005
   34  0.001  0.000  0.002  0.004
   35  0.000  0.000  0.004  0.005
   36  0.000  0.002  0.007  0.009
tot    0.305  0.043  0.346  0.694
 
band     5 # energy   -5.96598236 # occ.  2.00000000
 
ion      s      p      d    tot
    1  0.000  0.000  0.008  0.009
    2  0.004  0.001  0.004  0.009
    3  0.006  0.001  0.003  0.011
    4  0.004  0.001  0.004  0.009
    5  0.000  0.001  0.007  0.008
    6  0.000  0.000  0.003  0.003
    7  0.006  0.001  0.003  0.011
    8  0.000  0.000  0.003  0.003
    9  0.000  0.000  0.001  0.001
   10  0.000  0.000  0.037  0.037
   11  0.041  0.001  0.015  0.057
   12  0.026  0.002  0.013  0.040
   13  0.040  0.002  0.015  0.057
   14  0.000  0.003  0.026  0.030
   15  0.002  0.001  0.011  0.013
   16  0.026  0.002  0.013  0.041
   17  0.002  0.001  0.011  0.013
   18  0.000  0.004  0.004  0.008
   19  0.006  0.001  0.010  0.018
   20  0.000  0.002  0.033  0.035
   21  0.045  0.002  0.016  0.062
   22  0.013  0.001  0.010  0.025
   23  0.046  0.002  0.016  0.063
   24  0.000  0.000  0.027  0.027
   25  0.000  0.004  0.003  0.007
   26  0.006  0.001  0.010  0.017
   27  0.014  0.001  0.010  0.025
   28  0.000  0.000  0.001  0.001
   29  0.000  0.000  0.002  0.002
   30  0.004  0.001  0.003  0.008
   31  0.000  0.000  0.002  0.002
   32  0.004  0.001  0.003  0.009
   33  0.004  0.001  0.003  0.008
   34  0.005  0.001  0.004  0.009
   35  0.000  0.000  0.004  0.005
   36  0.000  0.002  0.007  0.009
tot    0.305  0.043  0.346  0.694
 
band     6 # energy   -5.95809043 # occ.  2.00000000
 
ion      s      p      d    tot
    1  0.022  0.001  0.001  0.024
    2  0.004  0.000  0.009  0.013
    3  0.004  0.000  0.009  0.013
    4  0.004  0.000  0.009  0.013
    5  0.005  0.000  0.007  0.012
    6  0.004  0.000  0.009  0.013
    7  0.004  0.000  0.009  0.013
    8  0.004  0.000  0.009  0.013
    9  0.001  0.001  0.008  0.011
   10  0.003  0.000  0.033  0.036
   11  0.000  0.001  0.020  0.021
   12  0.003  0.000  0.033  0.036
   13  0.000  0.001  0.020  0.021
   14  0.000  0.001  0.020  0.021
   15  0.035  0.002  0.005  0.043
   16  0.003  0.000  0.033  0.036
   17  0.035  0.002  0.005  0.043
   18  0.036  0.002  0.005  0.043
   19  0.003  0.001  0.017  0.021
   20  0.018  0.000  0.021  0.040
   21  0.019  0.000  0.021  0.040
   22  0.012  0.002  0.008  0.023
   23  0.019  0.000  0.021  0.040
   24  0.012  0.002  0.008  0.022
   25  0.003  0.001  0.017  0.021
   26  0.003  0.001  0.017  0.021
   27  0.012  0.002  0.008  0.023
   28  0.000  0.000  0.000  0.000
   29  0.000  0.000  0.003  0.004
   30  0.000  0.000  0.003  0.004
   31  0.000  0.000  0.003  0.004
   32  0.000  0.000  0.003  0.004
   33  0.000  0.000  0.003  0.004
   34  0.000  0.000  0.003  0.004
   35  0.008  0.001  0.000  0.009
   36  0.004  0.002  0.004  0.009
tot    0.282  0.031  0.404  0.716
 
band     7 # energy   -5.92352568 # occ.  2.00000000
 
ion      s      p      d    tot
    1  0.005  0.001  0.002  0.008
    2  0.000  0.001  0.006  0.007
    3  0.000  0.001  0.006  0.007
    4  0.000  0.001  0.006  0.007
    5  0.020  0.002  0.000  0.022
    6  0.000  0.001  0.006  0.007
    7  0.000  0.001  0.006  0.007
    8  0.000  0.001  0.006  0.007
    9  0.000  0.000  0.003  0.003
   10  0.024  0.003  0.002  0.029
   11  0.019  0.001  0.023  0.043
   12  0.024  0.003  0.002  0.028
   13  0.019  0.001  0.023  0.043
   14  0.019  0.001  0.022  0.042
   15  0.002  0.001  0.025  0.027
   16  0.024  0.003  0.002  0.028
   17  0.002  0.001  0.025  0.027
   18  0.002  0.001  0.025  0.027
   19  0.018  0.002  0.010  0.029
   20  0.009  0.003  0.014  0.026
   21  0.010  0.003  0.014  0.026
   22  0.009  0.000  0.025  0.034
   23  0.010  0.003  0.014  0.026
   24  0.009  0.000  0.025  0.034
   25  0.017  0.002  0.010  0.029
   26  0.018  0.002  0.010  0.029
   27  0.009  0.000  0.025  0.034
   28  0.017  0.001  0.000  0.018
   29  0.001  0.000  0.005  0.006
   30  0.001  0.000  0.005  0.006
   31  0.001  0.000  0.005  0.006
   32  0.001  0.000  0.005  0.006
   33  0.001  0.000  0.005  0.006
   34  0.001  0.000  0.005  0.006
   35  0.001  0.001  0.005  0.007
   36  0.000  0.000  0.000  0.000
tot    0.292  0.037  0.370  0.698
 
band     8 # energy   -5.90751250 # occ.  2.00000000
 
ion      s      p      d    tot
    1  0.000  0.001  0.004  0.005
    2  0.005  0.001  0.004  0.010
    3  0.008  0.001  0.004  0.013
    4  0.005  0.001  0.004  0.010
    5  0.000  0.000  0.004  0.004
    6  0.001  0.000  0.003  0.004
    7  0.008  0.001  0.004  0.013
    8  0.000  0.000  0.003  0.004
    9  0.000  0.001  0.011  0.013
   10  0.028  0.000  0.017  0.044
   11  0.002  0.002  0.019  0.023
   12  0.006  0.004  0.007  0.017
   13  0.001  0.002  0.020  0.023
   14  0.007  0.001  0.008  0.017
   15  0.018  0.001  0.034  0.052
   16  0.008  0.003  0.008  0.019
   17  0.014  0.001  0.036  0.051
   18  0.063  0.002  0.005  0.070
   19  0.011  0.001  0.026  0.038
   20  0.001  0.001  0.012  0.014
   21  0.000  0.002  0.012  0.013
   22  0.007  0.003  0.014  0.025
   23  0.000  0.002  0.012  0.014
   24  0.033  0.001  0.012  0.046
   25  0.041  0.002  0.003  0.046
   26  0.009  0.001  0.028  0.038
   27  0.009  0.003  0.014  0.026
   28  0.000  0.000  0.007  0.007
   29  0.000  0.000  0.002  0.002
   30  0.003  0.001  0.002  0.005
   31  0.000  0.000  0.002  0.002
   32  0.004  0.001  0.003  0.007
   33  0.002  0.000  0.002  0.005
   34  0.004  0.001  0.003  0.007
   35  0.000  0.001  0.004  0.004
   36  0.000  0.000  0.001  0.001
tot    0.298  0.041  0.353  0.692
 
band     9 # energy   -5.90750402 # occ.  2.00000000
 
ion      s      p      d    tot
    1  0.000  0.001  0.004  0.005
    2  0.004  0.001  0.003  0.009
    3  0.001  0.001  0.004  0.005
    4  0.004  0.001  0.003  0.008
    5  0.000  0.000  0.004  0.004
    6  0.008  0.001  0.004  0.014
    7  0.001  0.000  0.004  0.005
    8  0.009  0.001  0.004  0.014
    9  0.000  0.001  0.011  0.013
   10  0.000  0.005  0.004  0.009
   11  0.005  0.001  0.013  0.019
   12  0.022  0.001  0.014  0.037
   13  0.005  0.001  0.012  0.018
   14  0.000  0.002  0.023  0.025
   15  0.045  0.001  0.016  0.063
   16  0.020  0.001  0.013  0.035
   17  0.049  0.001  0.014  0.064
   18  0.000  0.001  0.045  0.046
   19  0.029  0.002  0.012  0.043
   20  0.000  0.002  0.011  0.013
   21  0.001  0.001  0.012  0.014
   22  0.026  0.001  0.013  0.040
   23  0.001  0.001  0.012  0.014
   24  0.000  0.004  0.015  0.019
   25  0.000  0.000  0.035  0.036
   26  0.032  0.002  0.010  0.044
   27  0.024  0.002  0.013  0.038
   28  0.000  0.000  0.007  0.007
   29  0.004  0.001  0.002  0.007
   30  0.002  0.000  0.002  0.004
   31  0.004  0.001  0.002  0.007
   32  0.000  0.000  0.002  0.002
   33  0.002  0.000  0.002  0.005
   34  0.001  0.000  0.002  0.002
   35  0.000  0.001  0.004  0.004
   36  0.000  0.000  0.001  0.001
tot    0.298  0.041  0.353  0.692
 
band    10 # energy   -5.90045815 # occ.  2.00000000
 
ion      s      p      d    tot
    1  0.000  0.000  0.000  0.001
    2  0.000  0.000  0.001  0.002
    3  0.000  0.000  0.001  0.002
    4  0.000  0.000  0.001  0.002
    5  0.003  0.000  0.000  0.003
    6  0.000  0.000  0.001  0.002
    7  0.000  0.000  0.001  0.002
    8  0.000  0.000  0.001  0.002
    9  0.003  0.000  0.000  0.003
   10  0.000  0.000  0.010  0.011
   11  0.007  0.001  0.003  0.011
   12  0.000  0.000  0.010  0.011
   13  0.007  0.001  0.003  0.011
   14  0.007  0.001  0.003  0.011
   15  0.003  0.000  0.010  0.014
   16  0.000  0.000  0.010  0.011
   17  0.003  0.000  0.010  0.014
   18  0.003  0.000  0.010  0.014
   19  0.011  0.001  0.018  0.030
   20  0.000  0.000  0.032  0.033
   21  0.000  0.000  0.032  0.033
   22  0.011  0.001  0.021  0.033
   23  0.000  0.000  0.032  0.033
   24  0.011  0.001  0.021  0.033
   25  0.011  0.001  0.018  0.030
   26  0.011  0.001  0.018  0.030
   27  0.011  0.001  0.021  0.033
   28  0.013  0.000  0.020  0.033
   29  0.021  0.000  0.017  0.038
   30  0.021  0.000  0.017  0.038
   31  0.021  0.000  0.017  0.038
   32  0.021  0.000  0.017  0.038
   33  0.021  0.000  0.017  0.038
   34  0.021  0.000  0.017  0.038
   35  0.018  0.000  0.016  0.035
   36  0.017  0.000  0.010  0.027
tot    0.275  0.014  0.440  0.730
 
band    11 # energy   -5.48398425 # occ.  2.00000000
 
ion      s      p      d    tot
    1  0.015  0.002  0.002  0.020
    2  0.000  0.001  0.008  0.009
    3  0.000  0.001  0.008  0.009
    4  0.000  0.001  0.008  0.009
    5  0.000  0.000  0.002  0.002
    6  0.000  0.001  0.008  0.009
    7  0.000  0.001  0.008  0.009
    8  0.000  0.001  0.008  0.009
    9  0.015  0.001  0.000  0.017
   10  0.010  0.002  0.012  0.023
   11  0.003  0.000  0.042  0.045
   12  0.010  0.002  0.012  0.023
   13  0.003  0.000  0.042  0.045
   14  0.003  0.000  0.042  0.045
   15  0.002  0.001  0.025  0.028
   16  0.010  0.002  0.012  0.023
   17  0.002  0.001  0.025  0.028
   18  0.002  0.001  0.025  0.028
   19  0.005  0.001  0.011  0.016
   20  0.001  0.000  0.050  0.051
   21  0.001  0.000  0.050  0.051
   22  0.012  0.001  0.020  0.033
   23  0.001  0.000  0.050  0.051
   24  0.012  0.001  0.020  0.033
   25  0.005  0.001  0.011  0.017
   26  0.005  0.001  0.011  0.016
   27  0.012  0.001  0.020  0.033
   28  0.014  0.001  0.000  0.015
   29  0.000  0.000  0.006  0.007
   30  0.000  0.000  0.006  0.007
   31  0.000  0.000  0.006  0.007
   32  0.000  0.000  0.006  0.007
   33  0.000  0.000  0.006  0.007
   34  0.000  0.000  0.006  0.007
   35  0.008  0.001  0.003  0.012
   36  0.000  0.000  0.001  0.002
tot    0.151  0.028  0.573  0.753
 
band    12 # energy   -5.47844002 # occ.  2.00000000
 
ion      s      p      d    tot
    1  0.000  0.001  0.004  0.004
    2  0.001  0.001  0.005  0.006
    3  0.009  0.001  0.004  0.015
    4  0.001  0.001  0.005  0.006
    5  0.000  0.001  0.010  0.012
    6  0.005  0.001  0.004  0.009
    7  0.009  0.001  0.004  0.015
    8  0.005  0.001  0.004  0.009
    9  0.000  0.000  0.009  0.009
   10  0.000  0.001  0.048  0.048
   11  0.015  0.001  0.021  0.037
   12  0.006  0.002  0.019  0.026
   13  0.015  0.001  0.021  0.037
   14  0.000  0.000  0.052  0.052
   15  0.002  0.000  0.020  0.022
   16  0.006  0.002  0.019  0.026
   17  0.002  0.000  0.020  0.022
   18  0.000  0.001  0.012  0.013
   19  0.005  0.000  0.019  0.024
   20  0.000  0.000  0.075  0.075
   21  0.017  0.001  0.024  0.042
   22  0.004  0.001  0.019  0.024
   23  0.017  0.001  0.024  0.042
   24  0.000  0.001  0.037  0.038
   25  0.000  0.001  0.010  0.011
   26  0.005  0.000  0.019  0.024
   27  0.004  0.001  0.019  0.024
   28  0.000  0.000  0.008  0.008
   29  0.003  0.001  0.005  0.008
   30  0.009  0.001  0.005  0.015
   31  0.003  0.001  0.005  0.008
   32  0.002  0.001  0.004  0.006
   33  0.009  0.001  0.005  0.015
   34  0.002  0.001  0.004  0.006
   35  0.000  0.000  0.003  0.004
   36  0.000  0.003  0.006  0.009
tot    0.153  0.031  0.566  0.750
 
band    13 # energy   -5.47842454 # occ.  2.00000000
 
ion      s      p      d    tot
    1  0.000  0.001  0.004  0.004
    2  0.009  0.001  0.004  0.014
    3  0.001  0.000  0.004  0.005
    4  0.009  0.001  0.004  0.014
    5  0.000  0.001  0.010  0.012
    6  0.005  0.001  0.005  0.011
    7  0.001  0.000  0.004  0.005
    8  0.005  0.001  0.005  0.011
    9  0.000  0.000  0.009  0.009
   10  0.008  0.002  0.009  0.019
   11  0.005  0.000  0.042  0.047
   12  0.002  0.001  0.038  0.041
   13  0.005  0.000  0.042  0.047
   14  0.020  0.001  0.010  0.032
   15  0.001  0.001  0.014  0.016
   16  0.002  0.001  0.038  0.041
   17  0.001  0.001  0.014  0.016
   18  0.002  0.000  0.022  0.025
   19  0.002  0.001  0.013  0.015
   20  0.023  0.001  0.007  0.031
   21  0.006  0.000  0.058  0.064
   22  0.001  0.001  0.031  0.033
   23  0.006  0.000  0.058  0.064
   24  0.005  0.001  0.013  0.019
   25  0.006  0.000  0.021  0.028
   26  0.002  0.001  0.013  0.015
   27  0.001  0.001  0.031  0.033
   28  0.000  0.000  0.008  0.008
   29  0.006  0.001  0.004  0.012
   30  0.000  0.000  0.004  0.005
   31  0.006  0.001  0.004  0.012
   32  0.007  0.001  0.005  0.013
   33  0.000  0.000  0.004  0.005
   34  0.007  0.001  0.005  0.013
   35  0.000  0.000  0.003  0.004
   36  0.000  0.003  0.006  0.009
tot    0.153  0.031  0.566  0.750
 
band    14 # energy   -5.42771155 # occ.  2.00000000
 
ion      s      p      d    tot
    1  0.000  0.001  0.015  0.016
    2  0.010  0.001  0.004  0.015
    3  0.001  0.000  0.005  0.007
    4  0.010  0.001  0.004  0.015
    5  0.000  0.000  0.006  0.006
    6  0.004  0.001  0.005  0.010
    7  0.001  0.000  0.005  0.007
    8  0.004  0.001  0.005  0.010
    9  0.000  0.001  0.006  0.007
   10  0.000  0.001  0.032  0.033
   11  0.000  0.001  0.020  0.021
   12  0.008  0.000  0.022  0.030
   13  0.000  0.001  0.020  0.021
   14  0.000  0.001  0.017  0.018
   15  0.010  0.002  0.020  0.032
   16  0.008  0.000  0.022  0.030
   17  0.010  0.002  0.020  0.032
   18  0.000  0.000  0.062  0.062
   19  0.015  0.001  0.019  0.035
   20  0.000  0.002  0.020  0.021
   21  0.000  0.001  0.023  0.023
   22  0.017  0.001  0.021  0.038
   23  0.000  0.001  0.023  0.023
   24  0.000  0.001  0.030  0.031
   25  0.000  0.000  0.067  0.067
   26  0.015  0.001  0.019  0.035
   27  0.017  0.001  0.021  0.038
   28  0.000  0.001  0.005  0.006
   29  0.005  0.001  0.004  0.010
   30  0.000  0.000  0.005  0.005
   31  0.005  0.001  0.004  0.010
   32  0.005  0.001  0.003  0.008
   33  0.000  0.000  0.005  0.005
   34  0.005  0.001  0.003  0.008
   35  0.000  0.001  0.009  0.010
   36  0.000  0.000  0.002  0.002
tot    0.149  0.029  0.572  0.749
 
band    15 # energy   -5.42767495 # occ.  2.00000000
 
ion      s      p      d    tot
    1  0.000  0.001  0.015  0.015
    2  0.000  0.000  0.005  0.006
    3  0.009  0.001  0.005  0.015
    4  0.000  0.000  0.005  0.006
    5  0.000  0.000  0.006  0.006
    6  0.006  0.001  0.005  0.011
    7  0.009  0.001  0.005  0.015
    8  0.006  0.001  0.005  0.011
    9  0.000  0.001  0.006  0.007
   10  0.010  0.000  0.018  0.029
   11  0.000  0.001  0.018  0.019
   12  0.003  0.001  0.029  0.032
   13  0.000  0.001  0.018  0.019
   14  0.000  0.001  0.020  0.022
   15  0.003  0.001  0.048  0.052
   16  0.003  0.001  0.029  0.032
   17  0.003  0.001  0.048  0.052
   18  0.013  0.002  0.006  0.022
   19  0.005  0.001  0.051  0.056
   20  0.000  0.000  0.024  0.024
   21  0.000  0.001  0.021  0.022
   22  0.006  0.001  0.027  0.033
   23  0.000  0.001  0.021  0.022
   24  0.023  0.001  0.017  0.040
   25  0.020  0.001  0.004  0.024
   26  0.005  0.001  0.051  0.056
   27  0.006  0.001  0.027  0.033
   28  0.000  0.001  0.005  0.006
   29  0.001  0.000  0.004  0.006
   30  0.007  0.001  0.003  0.011
   31  0.001  0.000  0.004  0.006
   32  0.002  0.001  0.005  0.008
   33  0.007  0.001  0.003  0.011
   34  0.002  0.001  0.005  0.008
   35  0.000  0.001  0.009  0.010
   36  0.000  0.000  0.002  0.002
tot    0.149  0.029  0.572  0.749
 
band    16 # energy   -5.42232281 # occ.  2.00000000
 
ion      s      p      d    tot
    1  0.007  0.000  0.001  0.008
    2  0.000  0.001  0.009  0.009
    3  0.000  0.001  0.009  0.009
    4  0.000  0.001  0.009  0.009
    5  0.018  0.002  0.000  0.020
    6  0.000  0.001  0.009  0.009
    7  0.000  0.001  0.009  0.009
    8  0.000  0.001  0.009  0.009
    9  0.003  0.001  0.002  0.006
   10  0.000  0.000  0.044  0.044
   11  0.005  0.002  0.012  0.019
   12  0.000  0.000  0.044  0.044
   13  0.005  0.002  0.012  0.019
   14  0.005  0.002  0.012  0.019
   15  0.007  0.001  0.024  0.032
   16  0.000  0.000  0.044  0.044
   17  0.007  0.001  0.024  0.032
   18  0.007  0.001  0.024  0.032
   19  0.010  0.000  0.043  0.053
   20  0.011  0.002  0.008  0.021
   21  0.011  0.002  0.008  0.021
   22  0.001  0.000  0.035  0.036
   23  0.011  0.002  0.008  0.021
   24  0.001  0.000  0.035  0.036
   25  0.010  0.000  0.043  0.053
   26  0.010  0.000  0.043  0.053
   27  0.001  0.000  0.035  0.036
   28  0.001  0.001  0.006  0.008
   29  0.000  0.000  0.005  0.006
   30  0.000  0.000  0.005  0.006
   31  0.000  0.000  0.005  0.006
   32  0.000  0.000  0.005  0.006
   33  0.000  0.000  0.005  0.006
   34  0.000  0.000  0.005  0.006
   35  0.003  0.000  0.000  0.003
   36  0.013  0.003  0.001  0.016
tot    0.146  0.029  0.589  0.764
 
band    17 # energy   -5.10502127 # occ.  2.00000000
 
ion      s      p      d    tot
    1  0.000  0.000  0.025  0.025
    2  0.002  0.001  0.010  0.012
    3  0.004  0.000  0.014  0.018
    4  0.002  0.001  0.010  0.012
    5  0.000  0.001  0.023  0.024
    6  0.011  0.001  0.010  0.022
    7  0.004  0.000  0.014  0.018
    8  0.011  0.001  0.010  0.022
    9  0.000  0.001  0.004  0.005
   10  0.000  0.000  0.021  0.022
   11  0.000  0.000  0.051  0.051
   12  0.000  0.000  0.013  0.014
   13  0.000  0.000  0.051  0.051
   14  0.000  0.001  0.047  0.048
   15  0.000  0.000  0.018  0.018
   16  0.000  0.000  0.013  0.014
   17  0.000  0.000  0.018  0.018
   18  0.000  0.000  0.029  0.029
   19  0.000  0.000  0.009  0.009
   20  0.001  0.000  0.070  0.071
   21  0.000  0.000  0.042  0.043
   22  0.000  0.000  0.025  0.026
   23  0.000  0.000  0.042  0.043
   24  0.001  0.000  0.021  0.022
   25  0.000  0.000  0.012  0.013
   26  0.000  0.000  0.009  0.009
   27  0.000  0.000  0.025  0.026
   28  0.000  0.001  0.007  0.008
   29  0.010  0.001  0.016  0.026
   30  0.001  0.000  0.010  0.012
   31  0.010  0.001  0.016  0.026
   32  0.005  0.000  0.007  0.012
   33  0.001  0.000  0.010  0.012
   34  0.005  0.000  0.007  0.013
   35  0.000  0.000  0.023  0.023
   36  0.000  0.002  0.007  0.010
tot    0.068  0.017  0.741  0.826
 
band    18 # energy   -5.10499367 # occ.  2.00000000
 
ion      s      p      d    tot
    1  0.000  0.000  0.025  0.025
    2  0.009  0.000  0.013  0.023
    3  0.007  0.001  0.008  0.017
    4  0.009  0.000  0.013  0.023
    5  0.000  0.001  0.023  0.024
    6  0.000  0.000  0.013  0.013
    7  0.007  0.001  0.008  0.017
    8  0.000  0.000  0.013  0.013
    9  0.000  0.001  0.004  0.005
   10  0.000  0.000  0.011  0.011
   11  0.000  0.000  0.048  0.049
   12  0.000  0.000  0.019  0.019
   13  0.000  0.000  0.048  0.049
   14  0.000  0.000  0.052  0.052
   15  0.000  0.000  0.025  0.025
   16  0.000  0.000  0.019  0.019
   17  0.000  0.000  0.025  0.025
   18  0.000  0.000  0.015  0.015
   19  0.000  0.000  0.011  0.012
   20  0.000  0.000  0.033  0.033
   21  0.001  0.000  0.060  0.062
   22  0.000  0.000  0.023  0.024
   23  0.001  0.000  0.060  0.062
   24  0.000  0.000  0.027  0.027
   25  0.000  0.000  0.007  0.007
   26  0.000  0.000  0.011  0.012
   27  0.000  0.000  0.023  0.024
   28  0.000  0.001  0.007  0.008
   29  0.000  0.000  0.007  0.007
   30  0.009  0.001  0.012  0.022
   31  0.000  0.000  0.007  0.007
   32  0.006  0.001  0.015  0.021
   33  0.009  0.001  0.012  0.022
   34  0.006  0.001  0.015  0.021
   35  0.000  0.000  0.023  0.023
   36  0.000  0.002  0.007  0.010
tot    0.068  0.017  0.741  0.826
 
band    19 # energy   -5.09497199 # occ.  2.00000000
 
ion      s      p      d    tot
    1  0.013  0.000  0.006  0.019
    2  0.000  0.001  0.012  0.012
    3  0.000  0.001  0.012  0.012
    4  0.000  0.001  0.012  0.012
    5  0.000  0.000  0.012  0.012
    6  0.000  0.001  0.012  0.012
    7  0.000  0.001  0.012  0.012
    8  0.000  0.001  0.012  0.012
    9  0.009  0.001  0.000  0.010
   10  0.000  0.000  0.025  0.025
   11  0.000  0.000  0.041  0.041
   12  0.000  0.000  0.025  0.025
   13  0.000  0.000  0.041  0.041
   14  0.000  0.000  0.041  0.041
   15  0.000  0.000  0.027  0.027
   16  0.000  0.000  0.025  0.025
   17  0.000  0.000  0.027  0.027
   18  0.000  0.000  0.027  0.027
   19  0.000  0.000  0.020  0.020
   20  0.001  0.000  0.038  0.040
   21  0.001  0.000  0.038  0.039
   22  0.000  0.000  0.031  0.031
   23  0.001  0.000  0.038  0.039
   24  0.000  0.000  0.031  0.031
   25  0.000  0.000  0.020  0.020
   26  0.000  0.000  0.020  0.020
   27  0.000  0.000  0.031  0.031
   28  0.008  0.000  0.000  0.009
   29  0.000  0.001  0.018  0.019
   30  0.000  0.001  0.018  0.019
   31  0.000  0.001  0.018  0.019
   32  0.000  0.001  0.018  0.019
   33  0.000  0.001  0.018  0.019
   34  0.000  0.001  0.018  0.019
   35  0.020  0.001  0.004  0.025
   36  0.002  0.000  0.007  0.009
tot    0.058  0.014  0.754  0.827
 
band    20 # energy   -5.08127808 # occ.  2.00000000
 
ion      s      p      d    tot
    1  0.002  0.000  0.005  0.007
    2  0.000  0.001  0.022  0.023
    3  0.000  0.001  0.022  0.023
    4  0.000  0.001  0.022  0.023
    5  0.028  0.001  0.001  0.031
    6  0.000  0.001  0.022  0.023
    7  0.000  0.001  0.022  0.023
    8  0.000  0.001  0.022  0.023
    9  0.017  0.000  0.011  0.028
   10  0.000  0.000  0.035  0.035
   11  0.000  0.001  0.029  0.030
   12  0.000  0.000  0.035  0.036
   13  0.000  0.001  0.029  0.030
   14  0.000  0.001  0.029  0.030
   15  0.000  0.000  0.030  0.031
   16  0.000  0.000  0.035  0.036
   17  0.000  0.000  0.030  0.031
   18  0.000  0.000  0.031  0.031
   19  0.001  0.000  0.023  0.024
   20  0.000  0.000  0.023  0.024
   21  0.000  0.000  0.023  0.024
   22  0.001  0.000  0.015  0.016
   23  0.000  0.000  0.023  0.024
   24  0.001  0.000  0.015  0.016
   25  0.001  0.000  0.023  0.024
   26  0.001  0.000  0.023  0.024
   27  0.001  0.000  0.015  0.016
   28  0.013  0.000  0.008  0.021
   29  0.000  0.000  0.017  0.018
   30  0.000  0.000  0.018  0.018
   31  0.000  0.000  0.017  0.018
   32  0.000  0.000  0.017  0.018
   33  0.000  0.000  0.018  0.018
   34  0.000  0.000  0.017  0.018
   35  0.001  0.000  0.004  0.005
   36  0.005  0.000  0.001  0.007
tot    0.072  0.017  0.732  0.820
 
band    21 # energy   -5.05873205 # occ.  2.00000000
 
ion      s      p      d    tot
    1  0.000  0.002  0.012  0.013
    2  0.014  0.001  0.020  0.035
    3  0.011  0.001  0.013  0.025
    4  0.014  0.001  0.020  0.035
    5  0.000  0.001  0.023  0.023
    6  0.000  0.001  0.018  0.018
    7  0.010  0.001  0.013  0.024
    8  0.000  0.001  0.017  0.018
    9  0.000  0.000  0.046  0.046
   10  0.000  0.001  0.047  0.048
   11  0.000  0.000  0.016  0.016
   12  0.000  0.000  0.038  0.038
   13  0.000  0.000  0.016  0.016
   14  0.000  0.000  0.018  0.019
   15  0.000  0.001  0.034  0.035
   16  0.000  0.000  0.038  0.038
   17  0.000  0.001  0.034  0.035
   18  0.000  0.001  0.030  0.031
   19  0.000  0.000  0.019  0.020
   20  0.000  0.000  0.014  0.014
   21  0.000  0.000  0.013  0.013
   22  0.001  0.000  0.013  0.014
   23  0.000  0.000  0.013  0.013
   24  0.003  0.000  0.025  0.028
   25  0.000  0.000  0.028  0.029
   26  0.000  0.000  0.020  0.020
   27  0.001  0.000  0.013  0.014
   28  0.000  0.000  0.021  0.022
   29  0.000  0.000  0.010  0.010
   30  0.007  0.001  0.006  0.014
   31  0.000  0.000  0.010  0.011
   32  0.006  0.001  0.014  0.021
   33  0.008  0.001  0.006  0.014
   34  0.007  0.001  0.014  0.021
   35  0.000  0.001  0.005  0.006
   36  0.000  0.000  0.010  0.010
tot    0.084  0.018  0.708  0.810
 
band    22 # energy   -5.05873066 # occ.  2.00000000
 
ion      s      p      d    tot
    1  0.000  0.002  0.012  0.013
    2  0.002  0.001  0.014  0.017
    3  0.006  0.001  0.020  0.027
    4  0.003  0.001  0.014  0.017
    5  0.000  0.001  0.023  0.023
    6  0.016  0.001  0.016  0.033
    7  0.006  0.001  0.021  0.027
    8  0.016  0.001  0.016  0.034
    9  0.000  0.000  0.046  0.046
   10  0.000  0.000  0.035  0.035
   11  0.000  0.000  0.018  0.018
   12  0.000  0.001  0.044  0.045
   13  0.000  0.000  0.018  0.018
   14  0.000  0.000  0.016  0.016
   15  0.000  0.001  0.032  0.032
   16  0.000  0.001  0.044  0.045