PROCAR new format
# of k-points:   10         # of bands:  252         # of ions:   37

 k-point     1 :    0.00000000 0.00000000 0.00000000     weight = 0.01562500

band     1 # energy  -17.89594590 # occ.  2.00000000
 
ion      s      p      d    tot
    1  0.000  0.000  0.000  0.000
    2  0.000  0.000  0.000  0.000
    3  0.000  0.000  0.000  0.000
    4  0.000  0.000  0.000  0.000
    5  0.000  0.000  0.000  0.000
    6  0.000  0.000  0.000  0.000
    7  0.000  0.000  0.000  0.000
    8  0.000  0.000  0.000  0.000
    9  0.000  0.000  0.000  0.000
   10  0.000  0.000  0.000  0.000
   11  0.000  0.000  0.000  0.000
   12  0.000  0.000  0.000  0.000
   13  0.000  0.000  0.000  0.000
   14  0.000  0.000  0.000  0.000
   15  0.000  0.000  0.000  0.000
   16  0.000  0.000  0.000  0.000
   17  0.000  0.000  0.000  0.000
   18  0.000  0.000  0.000  0.000
   19  0.000  0.000  0.000  0.000
   20  0.000  0.000  0.000  0.000
   21  0.000  0.000  0.000  0.000
   22  0.000  0.000  0.000  0.000
   23  0.000  0.000  0.000  0.000
   24  0.000  0.000  0.000  0.000
   25  0.000  0.000  0.000  0.000
   26  0.000  0.000  0.000  0.000
   27  0.000  0.000  0.000  0.000
   28  0.000  0.000  0.000  0.000
   29  0.000  0.000  0.000  0.000
   30  0.000  0.000  0.000  0.000
   31  0.000  0.000  0.000  0.000
   32  0.000  0.000  0.000  0.000
   33  0.000  0.000  0.000  0.000
   34  0.000  0.000  0.000  0.000
   35  0.000  0.000  0.000  0.000
   36  0.053  0.056  0.129  0.238
   37  0.765  0.015  0.000  0.781
tot    0.818  0.072  0.130  1.020
 
band     2 # energy   -8.15875034 # occ.  2.00000000
 
ion      s      p      d    tot
    1  0.006  0.001  0.000  0.006
    2  0.006  0.000  0.000  0.006
    3  0.006  0.000  0.000  0.006
    4  0.006  0.000  0.000  0.006
    5  0.006  0.000  0.000  0.006
    6  0.006  0.000  0.000  0.006
    7  0.006  0.000  0.000  0.006
    8  0.006  0.000  0.000  0.006
    9  0.006  0.000  0.000  0.006
   10  0.024  0.000  0.000  0.025
   11  0.026  0.000  0.000  0.026
   12  0.024  0.000  0.000  0.025
   13  0.026  0.000  0.000  0.026
   14  0.026  0.000  0.000  0.026
   15  0.024  0.000  0.000  0.024
   16  0.024  0.000  0.000  0.025
   17  0.024  0.000  0.000  0.024
   18  0.024  0.000  0.000  0.024
   19  0.022  0.000  0.000  0.023
   20  0.032  0.000  0.000  0.033
   21  0.032  0.000  0.000  0.033
   22  0.024  0.000  0.000  0.025
   23  0.032  0.000  0.000  0.033
   24  0.024  0.000  0.000  0.025
   25  0.022  0.000  0.000  0.023
   26  0.022  0.000  0.000  0.023
   27  0.024  0.000  0.000  0.025
   28  0.005  0.000  0.000  0.005
   29  0.006  0.001  0.000  0.006
   30  0.006  0.001  0.000  0.006
   31  0.006  0.001  0.000  0.006
   32  0.006  0.001  0.000  0.006
   33  0.006  0.001  0.000  0.006
   34  0.006  0.001  0.000  0.006
   35  0.005  0.000  0.000  0.005
   36  0.014  0.002  0.000  0.017
   37  0.001  0.001  0.000  0.002
tot    0.567  0.014  0.005  0.586
 
band     3 # energy   -7.01862389 # occ.  2.00000000
 
ion      s      p      d    tot
    1  0.016  0.000  0.001  0.017
    2  0.016  0.001  0.001  0.018
    3  0.016  0.001  0.001  0.018
    4  0.016  0.001  0.001  0.018
    5  0.016  0.000  0.001  0.017
    6  0.016  0.001  0.001  0.018
    7  0.016  0.001  0.001  0.018
    8  0.016  0.001  0.001  0.018
    9  0.017  0.001  0.001  0.018
   10  0.012  0.001  0.003  0.016
   11  0.011  0.001  0.003  0.015
   12  0.012  0.001  0.003  0.016
   13  0.011  0.001  0.003  0.015
   14  0.011  0.001  0.003  0.015
   15  0.014  0.001  0.002  0.017
   16  0.012  0.001  0.003  0.016
   17  0.014  0.001  0.002  0.017
   18  0.014  0.001  0.002  0.017
   19  0.008  0.001  0.003  0.012
   20  0.017  0.002  0.003  0.022
   21  0.017  0.002  0.003  0.022
   22  0.008  0.001  0.003  0.013
   23  0.017  0.002  0.003  0.022
   24  0.008  0.001  0.003  0.013
   25  0.008  0.001  0.003  0.012
   26  0.008  0.001  0.003  0.012
   27  0.008  0.001  0.003  0.013
   28  0.011  0.000  0.001  0.012
   29  0.015  0.001  0.001  0.017
   30  0.015  0.001  0.001  0.017
   31  0.015  0.001  0.001  0.017
   32  0.015  0.001  0.001  0.017
   33  0.015  0.001  0.001  0.017
   34  0.015  0.001  0.001  0.017
   35  0.011  0.000  0.001  0.012
   36  0.034  0.002  0.001  0.037
   37  0.002  0.001  0.000  0.003
tot    0.505  0.037  0.068  0.610
 
band     4 # energy   -6.13113638 # occ.  2.00000000
 
ion      s      p      d    tot
    1  0.005  0.001  0.001  0.007
    2  0.000  0.000  0.002  0.003
    3  0.000  0.000  0.002  0.003
    4  0.000  0.000  0.002  0.003
    5  0.000  0.000  0.000  0.001
    6  0.000  0.000  0.002  0.003
    7  0.000  0.000  0.002  0.003
    8  0.000  0.000  0.002  0.003
    9  0.005  0.001  0.001  0.007
   10  0.005  0.000  0.018  0.023
   11  0.003  0.002  0.008  0.012
   12  0.005  0.000  0.018  0.023
   13  0.003  0.002  0.008  0.012
   14  0.003  0.002  0.008  0.012
   15  0.017  0.001  0.003  0.022
   16  0.005  0.000  0.018  0.023
   17  0.017  0.001  0.003  0.022
   18  0.017  0.001  0.003  0.022
   19  0.001  0.001  0.022  0.024
   20  0.027  0.002  0.044  0.074
   21  0.027  0.002  0.044  0.074
   22  0.021  0.002  0.002  0.025
   23  0.027  0.002  0.044  0.074
   24  0.021  0.002  0.002  0.025
   25  0.001  0.001  0.022  0.024
   26  0.001  0.001  0.022  0.024
   27  0.021  0.002  0.002  0.025
   28  0.006  0.000  0.000  0.007
   29  0.003  0.000  0.006  0.009
   30  0.003  0.000  0.006  0.009
   31  0.003  0.000  0.006  0.009
   32  0.003  0.000  0.006  0.009
   33  0.003  0.000  0.006  0.009
   34  0.003  0.000  0.006  0.009
   35  0.017  0.001  0.000  0.018
   36  0.023  0.007  0.027  0.057
   37  0.003  0.020  0.000  0.023
tot    0.300  0.059  0.371  0.730
 
band     5 # energy   -6.08479754 # occ.  2.00000000
 
ion      s      p      d    tot
    1  0.005  0.000  0.001  0.006
    2  0.004  0.000  0.002  0.005
    3  0.004  0.000  0.002  0.005
    4  0.004  0.000  0.002  0.005
    5  0.006  0.000  0.002  0.008
    6  0.004  0.000  0.002  0.005
    7  0.004  0.000  0.002  0.005
    8  0.004  0.000  0.002  0.005
    9  0.001  0.000  0.003  0.004
   10  0.000  0.001  0.003  0.004
   11  0.001  0.001  0.001  0.002
   12  0.000  0.001  0.003  0.004
   13  0.001  0.001  0.001  0.002
   14  0.001  0.001  0.001  0.002
   15  0.002  0.001  0.001  0.004
   16  0.000  0.001  0.003  0.004
   17  0.002  0.001  0.001  0.004
   18  0.002  0.001  0.001  0.004
   19  0.013  0.001  0.013  0.027
   20  0.002  0.001  0.039  0.042
   21  0.002  0.001  0.039  0.042
   22  0.010  0.001  0.013  0.024
   23  0.002  0.001  0.039  0.042
   24  0.010  0.001  0.013  0.024
   25  0.014  0.001  0.013  0.027
   26  0.013  0.001  0.013  0.027
   27  0.010  0.001  0.013  0.024
   28  0.008  0.000  0.015  0.023
   29  0.022  0.001  0.020  0.042
   30  0.022  0.001  0.020  0.042
   31  0.022  0.001  0.020  0.042
   32  0.022  0.001  0.020  0.042
   33  0.022  0.001  0.020  0.042
   34  0.022  0.001  0.020  0.042
   35  0.011  0.000  0.013  0.024
   36  0.041  0.000  0.039  0.080
   37  0.000  0.001  0.000  0.001
tot    0.305  0.020  0.411  0.735
 
band     6 # energy   -6.05946650 # occ.  2.00000000
 
ion      s      p      d    tot
    1  0.000  0.000  0.007  0.007
    2  0.002  0.001  0.002  0.005
    3  0.000  0.000  0.002  0.003
    4  0.003  0.001  0.002  0.005
    5  0.000  0.001  0.004  0.005
    6  0.005  0.001  0.003  0.008
    7  0.000  0.000  0.002  0.003
    8  0.005  0.001  0.003  0.008
    9  0.000  0.000  0.001  0.001
   10  0.035  0.003  0.006  0.044
   11  0.010  0.003  0.019  0.032
   12  0.009  0.001  0.021  0.031
   13  0.010  0.003  0.019  0.032
   14  0.040  0.001  0.011  0.051
   15  0.000  0.002  0.006  0.008
   16  0.009  0.001  0.022  0.031
   17  0.000  0.002  0.006  0.008
   18  0.000  0.000  0.009  0.009
   19  0.003  0.003  0.005  0.012
   20  0.076  0.001  0.016  0.093
   21  0.020  0.002  0.036  0.057
   22  0.003  0.001  0.020  0.024
   23  0.018  0.002  0.036  0.057
   24  0.013  0.002  0.005  0.020
   25  0.013  0.000  0.013  0.026
   26  0.003  0.003  0.006  0.012
   27  0.003  0.001  0.020  0.024
   28  0.000  0.000  0.001  0.002
   29  0.007  0.002  0.006  0.014
   30  0.002  0.001  0.003  0.006
   31  0.007  0.002  0.006  0.014
   32  0.002  0.000  0.004  0.006
   33  0.002  0.001  0.003  0.006
   34  0.001  0.000  0.004  0.006
   35  0.000  0.000  0.003  0.004
   36  0.000  0.004  0.022  0.026
   37  0.000  0.002  0.000  0.002
tot    0.301  0.046  0.354  0.701
 
band     7 # energy   -6.05945375 # occ.  2.00000000
 
ion      s      p      d    tot
    1  0.000  0.000  0.007  0.007
    2  0.002  0.001  0.003  0.006
    3  0.005  0.001  0.002  0.008
    4  0.002  0.001  0.003  0.006
    5  0.000  0.001  0.004  0.005
    6  0.000  0.000  0.002  0.003
    7  0.005  0.001  0.002  0.008
    8  0.000  0.000  0.002  0.003
    9  0.000  0.000  0.001  0.001
   10  0.000  0.000  0.027  0.027
   11  0.030  0.001  0.013  0.045
   12  0.026  0.002  0.012  0.040
   13  0.029  0.002  0.013  0.044
   14  0.000  0.004  0.022  0.026
   15  0.000  0.001  0.008  0.009
   16  0.027  0.002  0.011  0.040
   17  0.000  0.001  0.008  0.009
   18  0.000  0.002  0.005  0.008
   19  0.010  0.001  0.011  0.021
   20  0.000  0.002  0.043  0.045
   21  0.057  0.001  0.023  0.081
   22  0.010  0.001  0.010  0.021
   23  0.058  0.001  0.022  0.081
   24  0.000  0.001  0.025  0.026
   25  0.000  0.004  0.003  0.007
   26  0.009  0.001  0.010  0.021
   27  0.010  0.001  0.010  0.021
   28  0.000  0.000  0.001  0.002
   29  0.000  0.000  0.003  0.003
   30  0.005  0.001  0.006  0.011
   31  0.000  0.000  0.003  0.003
   32  0.005  0.001  0.005  0.011
   33  0.005  0.001  0.006  0.012
   34  0.005  0.001  0.005  0.012
   35  0.000  0.000  0.003  0.004
   36  0.000  0.004  0.022  0.026
   37  0.000  0.002  0.000  0.002
tot    0.301  0.046  0.354  0.701
 
band     8 # energy   -5.97983636 # occ.  2.00000000
 
ion      s      p      d    tot
    1  0.022  0.000  0.020  0.042
    2  0.019  0.000  0.019  0.038
    3  0.019  0.000  0.019  0.038
    4  0.019  0.000  0.019  0.038
    5  0.013  0.000  0.021  0.033
    6  0.019  0.000  0.019  0.038
    7  0.019  0.000  0.019  0.038
    8  0.019  0.000  0.019  0.038
    9  0.024  0.000  0.016  0.040
   10  0.005  0.000  0.028  0.033
   11  0.016  0.001  0.022  0.039
   12  0.005  0.000  0.028  0.033
   13  0.016  0.001  0.022  0.039
   14  0.016  0.001  0.022  0.039
   15  0.005  0.000  0.026  0.031
   16  0.005  0.000  0.028  0.033
   17  0.005  0.000  0.026  0.031
   18  0.005  0.000  0.026  0.031
   19  0.003  0.000  0.004  0.007
   20  0.000  0.001  0.011  0.012
   21  0.000  0.001  0.011  0.012
   22  0.000  0.000  0.006  0.006
   23  0.000  0.001  0.011  0.012
   24  0.000  0.000  0.006  0.006
   25  0.003  0.000  0.004  0.007
   26  0.003  0.000  0.004  0.007
   27  0.000  0.000  0.006  0.006
   28  0.001  0.000  0.000  0.002
   29  0.000  0.000  0.000  0.001
   30  0.000  0.000  0.000  0.001
   31  0.000  0.000  0.000  0.001
   32  0.000  0.000  0.000  0.001
   33  0.000  0.000  0.000  0.001
   34  0.000  0.000  0.000  0.001
   35  0.000  0.000  0.000  0.000
   36  0.000  0.000  0.001  0.001
   37  0.000  0.000  0.000  0.000
tot    0.260  0.009  0.465  0.734
 
band     9 # energy   -5.93201480 # occ.  2.00000000
 
ion      s      p      d    tot
    1  0.006  0.001  0.002  0.009
    2  0.000  0.001  0.006  0.007
    3  0.000  0.001  0.006  0.007
    4  0.000  0.001  0.006  0.007
    5  0.019  0.002  0.000  0.021
    6  0.000  0.001  0.006  0.007
    7  0.000  0.001  0.006  0.007
    8  0.000  0.001  0.006  0.007
    9  0.000  0.000  0.003  0.003
   10  0.025  0.003  0.001  0.029
   11  0.018  0.001  0.023  0.043
   12  0.025  0.003  0.001  0.029
   13  0.018  0.001  0.023  0.043
   14  0.018  0.001  0.023  0.042
   15  0.001  0.001  0.023  0.024
   16  0.025  0.003  0.001  0.029
   17  0.001  0.001  0.023  0.024
   18  0.001  0.001  0.023  0.024
   19  0.020  0.002  0.007  0.029
   20  0.007  0.003  0.020  0.029
   21  0.007  0.003  0.020  0.029
   22  0.009  0.000  0.026  0.035
   23  0.007  0.003  0.020  0.029
   24  0.009  0.000  0.026  0.035
   25  0.020  0.002  0.007  0.029
   26  0.020  0.002  0.007  0.029
   27  0.009  0.000  0.026  0.035
   28  0.016  0.001  0.000  0.017
   29  0.001  0.000  0.004  0.005
   30  0.001  0.000  0.004  0.005
   31  0.001  0.000  0.004  0.005
   32  0.001  0.000  0.004  0.005
   33  0.001  0.000  0.004  0.005
   34  0.001  0.000  0.004  0.005
   35  0.001  0.001  0.005  0.007
   36  0.000  0.000  0.000  0.000
   37  0.000  0.000  0.000  0.000
tot    0.290  0.037  0.372  0.698
 
band    10 # energy   -5.91526260 # occ.  2.00000000
 
ion      s      p      d    tot
    1  0.000  0.001  0.003  0.003
    2  0.003  0.001  0.004  0.008
    3  0.008  0.001  0.004  0.013
    4  0.004  0.001  0.004  0.008
    5  0.000  0.000  0.005  0.005
    6  0.001  0.000  0.003  0.005
    7  0.008  0.001  0.004  0.013
    8  0.001  0.000  0.003  0.004
    9  0.000  0.001  0.011  0.012
   10  0.020  0.000  0.016  0.036
   11  0.003  0.001  0.023  0.027
   12  0.005  0.004  0.006  0.014
   13  0.003  0.001  0.024  0.028
   14  0.013  0.001  0.006  0.020
   15  0.017  0.001  0.031  0.049
   16  0.005  0.003  0.006  0.015
   17  0.015  0.001  0.031  0.048
   18  0.063  0.001  0.007  0.071
   19  0.009  0.001  0.027  0.037
   20  0.000  0.001  0.018  0.018
   21  0.000  0.002  0.013  0.015
   22  0.009  0.003  0.017  0.029
   23  0.000  0.002  0.013  0.015
   24  0.039  0.001  0.011  0.050
   25  0.036  0.002  0.003  0.041
   26  0.008  0.001  0.028  0.037
   27  0.010  0.003  0.017  0.030
   28  0.000  0.000  0.006  0.006
   29  0.001  0.000  0.002  0.002
   30  0.002  0.000  0.002  0.004
   31  0.001  0.000  0.002  0.002
   32  0.005  0.001  0.003  0.008
   33  0.002  0.000  0.002  0.004
   34  0.005  0.001  0.003  0.008
   35  0.000  0.001  0.004  0.005
   36  0.000  0.000  0.002  0.002
   37  0.000  0.001  0.000  0.001
tot    0.295  0.041  0.358  0.694
 
band    11 # energy   -5.91524465 # occ.  2.00000000
 
ion      s      p      d    tot
    1  0.000  0.001  0.003  0.003
    2  0.005  0.001  0.003  0.009
    3  0.000  0.000  0.003  0.004
    4  0.005  0.001  0.003  0.009
    5  0.000  0.000  0.005  0.005
    6  0.007  0.001  0.004  0.013
    7  0.000  0.000  0.003  0.004
    8  0.007  0.001  0.004  0.013
    9  0.000  0.001  0.011  0.012
   10  0.000  0.005  0.002  0.007
   11  0.009  0.001  0.012  0.023
   12  0.015  0.001  0.013  0.029
   13  0.010  0.001  0.012  0.023
   14  0.000  0.001  0.029  0.030
   15  0.047  0.001  0.015  0.063
   16  0.015  0.001  0.013  0.029
   17  0.048  0.001  0.014  0.064
   18  0.000  0.001  0.039  0.040
   19  0.027  0.002  0.011  0.040
   20  0.000  0.003  0.011  0.014
   21  0.000  0.001  0.016  0.017
   22  0.029  0.001  0.013  0.044
   23  0.000  0.001  0.016  0.017
   24  0.000  0.004  0.019  0.023
   25  0.000  0.000  0.035  0.035
   26  0.027  0.002  0.011  0.040
   27  0.028  0.002  0.013  0.043
   28  0.000  0.000  0.006  0.006
   29  0.004  0.001  0.002  0.007
   30  0.003  0.000  0.002  0.005
   31  0.004  0.001  0.002  0.007
   32  0.000  0.000  0.001  0.002
   33  0.003  0.000  0.002  0.006
   34  0.000  0.000  0.001  0.002
   35  0.000  0.001  0.004  0.005
   36  0.000  0.000  0.002  0.002
   37  0.000  0.001  0.000  0.001
tot    0.295  0.041  0.358  0.694
 
band    12 # energy   -5.58387923 # occ.  2.00000000
 
ion      s      p      d    tot
    1  0.001  0.000  0.000  0.001
    2  0.000  0.001  0.006  0.007
    3  0.000  0.001  0.006  0.007
    4  0.000  0.001  0.006  0.007
    5  0.012  0.001  0.000  0.013
    6  0.000  0.001  0.006  0.007
    7  0.000  0.001  0.006  0.007
    8  0.000  0.001  0.006  0.007
    9  0.007  0.001  0.002  0.010
   10  0.000  0.000  0.032  0.033
   11  0.010  0.002  0.000  0.012
   12  0.000  0.000  0.032  0.032
   13  0.010  0.002  0.000  0.012
   14  0.009  0.002  0.000  0.012
   15  0.017  0.002  0.023  0.042
   16  0.000  0.000  0.032  0.032
   17  0.017  0.002  0.023  0.042
   18  0.017  0.002  0.023  0.042
   19  0.012  0.001  0.008  0.022
   20  0.001  0.003  0.035  0.040
   21  0.001  0.003  0.035  0.040
   22  0.001  0.001  0.033  0.035
   23  0.001  0.003  0.035  0.040
   24  0.001  0.001  0.032  0.034
   25  0.012  0.001  0.008  0.022
   26  0.012  0.001  0.008  0.022
   27  0.001  0.001  0.033  0.035
   28  0.010  0.001  0.000  0.012
   29  0.000  0.001  0.009  0.010
   30  0.000  0.001  0.009  0.010
   31  0.000  0.001  0.009  0.010
   32  0.000  0.001  0.009  0.010
   33  0.000  0.001  0.009  0.010
   34  0.000  0.001  0.009  0.010
   35  0.002  0.000  0.000  0.002
   36  0.036  0.003  0.007  0.046
   37  0.003  0.016  0.000  0.019
tot    0.199  0.060  0.490  0.749
 
band    13 # energy   -5.56430848 # occ.  2.00000000
 
ion      s      p      d    tot
    1  0.000  0.001  0.004  0.005
    2  0.001  0.001  0.005  0.007
    3  0.009  0.001  0.004  0.015
    4  0.001  0.001  0.005  0.007
    5  0.000  0.001  0.009  0.010
    6  0.004  0.001  0.003  0.008
    7  0.009  0.001  0.004  0.015
    8  0.004  0.001  0.003  0.008
    9  0.000  0.000  0.007  0.007
   10  0.000  0.001  0.051  0.052
   11  0.020  0.001  0.019  0.040
   12  0.009  0.001  0.018  0.028
   13  0.020  0.001  0.019  0.040
   14  0.000  0.000  0.043  0.043
   15  0.001  0.000  0.018  0.020
   16  0.009  0.001  0.018  0.028
   17  0.001  0.000  0.018  0.020
   18  0.000  0.001  0.012  0.013
   19  0.001  0.000  0.015  0.017
   20  0.000  0.000  0.097  0.097
   21  0.011  0.001  0.029  0.041
   22  0.004  0.001  0.018  0.023
   23  0.011  0.001  0.029  0.042
   24  0.000  0.000  0.026  0.027
   25  0.000  0.000  0.009  0.009
   26  0.001  0.000  0.015  0.017
   27  0.004  0.001  0.018  0.023
   28  0.000  0.000  0.006  0.006
   29  0.005  0.001  0.006  0.012
   30  0.007  0.001  0.007  0.016
   31  0.005  0.001  0.006  0.012
   32  0.000  0.000  0.003  0.004
   33  0.007  0.001  0.007  0.016
   34  0.000  0.000  0.003  0.004
   35  0.000  0.000  0.001  0.002
   36  0.000  0.003  0.020  0.023
   37  0.000  0.002  0.000  0.002
tot    0.147  0.032  0.579  0.757
 
band    14 # energy   -5.56425977 # occ.  2.00000000
 
ion      s      p      d    tot
    1  0.000  0.001  0.004  0.005
    2  0.008  0.001  0.003  0.013
    3  0.000  0.000  0.004  0.005
    4  0.008  0.001  0.003  0.013
    5  0.000  0.001  0.009  0.010
    6  0.006  0.001  0.005  0.012
    7  0.000  0.000  0.004  0.005
    8  0.006  0.001  0.005  0.012
    9  0.000  0.000  0.007  0.007
   10  0.012  0.001  0.007  0.020
   11  0.007  0.000  0.035  0.042
   12  0.003  0.001  0.040  0.044
   13  0.007  0.000  0.035  0.042
   14  0.027  0.001  0.011  0.039
   15  0.000  0.001  0.014  0.015
   16  0.003  0.001  0.040  0.044
   17  0.000  0.001  0.014  0.015
   18  0.002  0.000  0.020  0.022
   19  0.000  0.000  0.011  0.012
   20  0.015  0.002  0.007  0.023
   21  0.004  0.000  0.074  0.079
   22  0.001  0.001  0.024  0.025
   23  0.004  0.000  0.074  0.078
   24  0.005  0.002  0.016  0.022
   25  0.002  0.000  0.017  0.019
   26  0.000  0.000  0.011  0.012
   27  0.001  0.001  0.024  0.025
   28  0.000  0.000  0.006  0.006
   29  0.003  0.001  0.005  0.009
   30  0.001  0.000  0.004  0.005
   31  0.003  0.001  0.005  0.009
   32  0.008  0.001  0.008  0.017
   33  0.001  0.000  0.004  0.005
   34  0.008  0.001  0.008  0.017
   35  0.000  0.000  0.001  0.002
   36  0.000  0.003  0.020  0.023
   37  0.000  0.002  0.000  0.002
tot    0.147  0.032  0.579  0.757
 
band    15 # energy   -5.52730207 # occ.  2.00000000
 
ion      s      p      d    tot
    1  0.012  0.002  0.003  0.017
    2  0.000  0.001  0.007  0.008
    3  0.000  0.001  0.007  0.008
    4  0.000  0.001  0.007  0.008
    5  0.001  0.000  0.002  0.002
    6  0.000  0.001  0.007  0.008
    7  0.000  0.001  0.007  0.008
    8  0.000  0.001  0.007  0.008
    9  0.017  0.002  0.000  0.019
   10  0.012  0.001  0.019  0.032
   11  0.001  0.000  0.048  0.050
   12  0.012  0.001  0.019  0.032
   13  0.001  0.000  0.048  0.050
   14  0.001  0.000  0.048  0.050
   15  0.007  0.002  0.013  0.022
   16  0.012  0.001  0.019  0.032
   17  0.007  0.002  0.013  0.022
   18  0.007  0.002  0.013  0.022
   19  0.001  0.001  0.014  0.015
   20  0.001  0.001  0.055  0.056
   21  0.001  0.001  0.055  0.056
   22  0.010  0.001  0.018  0.029
   23  0.001  0.001  0.055  0.056
   24  0.010  0.001  0.018  0.029
   25  0.001  0.001  0.013  0.015
   26  0.001  0.001  0.014  0.015
   27  0.010  0.001  0.018  0.029
   28  0.012  0.001  0.000  0.013
   29  0.000  0.000  0.006  0.006
   30  0.000  0.000  0.006  0.006
   31  0.000  0.000  0.006  0.006
   32  0.000  0.000  0.006  0.006
   33  0.000  0.000  0.006  0.006
   34  0.000  0.000  0.006  0.006
   35  0.002  0.001  0.005  0.008
   36  0.000  0.000  0.006  0.006
   37  0.000  0.003  0.000  0.003
tot    0.140  0.027  0.598  0.766
 
band    16 # energy   -5.43892518 # occ.  2.00000000
 
ion      s      p      d    tot
    1  0.000  0.001  0.013  0.014
    2  0.008  0.001  0.004  0.013
    3  0.001  0.000  0.005  0.006
    4  0.008  0.001  0.004  0.013
    5  0.000  0.000  0.006  0.006
    6  0.005  0.001  0.005  0.010
    7  0.001  0.000  0.005  0.006
    8  0.005  0.001  0.005  0.010
    9  0.000  0.001  0.005  0.006
   10  0.000  0.001  0.033  0.033
   11  0.000  0.001  0.020  0.021
   12  0.010  0.000  0.020  0.030
   13  0.000  0.001  0.020  0.021
   14  0.000  0.001  0.015  0.016
   15  0.009  0.002  0.019  0.030
   16  0.010  0.000  0.021  0.031
   17  0.009  0.002  0.019  0.030
   18  0.000  0.000  0.059  0.059
   19  0.014  0.001  0.020  0.035
   20  0.000  0.002  0.025  0.027
   21  0.000  0.001  0.027  0.028
   22  0.016  0.001  0.020  0.037
   23  0.000  0.001  0.027  0.028
   24  0.000  0.001  0.028  0.028
   25  0.000  0.000  0.067  0.067
   26  0.014  0.001  0.020  0.035
   27  0.016  0.001  0.020  0.037
   28  0.000  0.001  0.005  0.006
   29  0.005  0.001  0.004  0.010
   30  0.000  0.001  0.007  0.007
   31  0.005  0.001  0.004  0.010
   32  0.006  0.001  0.003  0.010
   33  0.000  0.001  0.007  0.007
   34  0.006  0.001  0.003  0.010
   35  0.000  0.001  0.008  0.009
   36  0.000  0.000  0.004  0.004
   37  0.000  0.000  0.000  0.000
tot    0.147  0.029  0.575  0.751
 
band    17 # energy   -5.43890232 # occ.  2.00000000
 
ion      s      p      d    tot
    1  0.000  0.001  0.013  0.014
    2  0.001  0.001  0.005  0.006
    3  0.008  0.001  0.004  0.014
    4  0.001  0.001  0.005  0.006
    5  0.000  0.000  0.006  0.006
    6  0.004  0.001  0.004  0.009
    7  0.008  0.001  0.004  0.014
    8  0.004  0.001  0.004  0.009
    9  0.000  0.001  0.005  0.006
   10  0.013  0.000  0.016  0.030
   11  0.000  0.001  0.017  0.018
   12  0.003  0.000  0.029  0.032
   13  0.000  0.001  0.017  0.018
   14  0.000  0.001  0.022  0.022
   15  0.003  0.001  0.046  0.050
   16  0.003  0.000  0.029  0.032
   17  0.003  0.001  0.046  0.050
   18  0.013  0.002  0.006  0.021
   19  0.005  0.001  0.051  0.056
   20  0.000  0.000  0.028  0.029
   21  0.000  0.002  0.026  0.027
   22  0.005  0.001  0.025  0.031
   23  0.000  0.002  0.026  0.027
   24  0.021  0.001  0.017  0.039
   25  0.019  0.001  0.004  0.025
   26  0.005  0.001  0.051  0.056
   27  0.005  0.001  0.025  0.031
   28  0.000  0.001  0.005  0.006
   29  0.002  0.001  0.005  0.008
   30  0.007  0.001  0.002  0.011
   31  0.002  0.001  0.005  0.008
   32  0.001  0.001  0.006  0.008
   33  0.007  0.001  0.002  0.011
   34  0.001  0.001  0.006  0.008
   35  0.000  0.001  0.008  0.009
   36  0.000  0.000  0.004  0.004
   37  0.000  0.000  0.000  0.000
tot    0.147  0.029  0.575  0.751
 
band    18 # energy   -5.19645340 # occ.  2.00000000
 
ion      s      p      d    tot
    1  0.000  0.000  0.015  0.015
    2  0.004  0.001  0.006  0.010
    3  0.001  0.000  0.008  0.009
    4  0.004  0.001  0.006  0.010
    5  0.000  0.001  0.012  0.013
    6  0.008  0.001  0.006  0.015
    7  0.001  0.000  0.008  0.009
    8  0.008  0.001  0.006  0.015
    9  0.000  0.001  0.004  0.005
   10  0.000  0.001  0.024  0.025
   11  0.001  0.000  0.044  0.045
   12  0.000  0.000  0.009  0.010
   13  0.001  0.000  0.044  0.045
   14  0.002  0.000  0.041  0.043
   15  0.000  0.000  0.007  0.008
   16  0.000  0.000  0.009  0.010
   17  0.000  0.000  0.007  0.008
   18  0.000  0.000  0.010  0.010
   19  0.000  0.000  0.006  0.006
   20  0.002  0.000  0.120  0.122
   21  0.000  0.001  0.071  0.072
   22  0.000  0.000  0.020  0.021
   23  0.000  0.001  0.071  0.072
   24  0.002  0.000  0.013  0.015
   25  0.000  0.000  0.015  0.015
   26  0.000  0.000  0.006  0.006
   27  0.000  0.000  0.020  0.021
   28  0.000  0.000  0.001  0.002
   29  0.009  0.001  0.025  0.035
   30  0.003  0.000  0.014  0.017
   31  0.009  0.001  0.025  0.035
   32  0.002  0.001  0.011  0.013
   33  0.003  0.000  0.014  0.017
   34  0.002  0.001  0.011  0.013
   35  0.000  0.000  0.015  0.015
   36  0.000  0.003  0.030  0.034
   37  0.000  0.000  0.000  0.000
tot    0.062  0.019  0.755  0.836
 
band    19 # energy   -5.19641792 # occ.  2.00000000
 
ion      s      p      d    tot
    1  0.000  0.000  0.015  0.015
    2  0.005  0.000  0.007  0.012
    3  0.008  0.001  0.005  0.014
    4  0.005  0.000  0.007  0.012
    5  0.000  0.001  0.012  0.013
    6  0.000  0.000  0.007  0.008
    7  0.008  0.001  0.005  0.014
    8  0.000  0.000  0.007  0.008
    9  0.000  0.001  0.004  0.005
   10  0.000  0.000  0.005  0.005
   11  0.002  0.000  0.042  0.044
   12  0.000  0.001  0.019  0.020
   13  0.002  0.000  0.042  0.044
   14  0.000  0.000  0.045  0.046
   15  0.000  0.000  0.009  0.009
   16  0.000  0.001  0.019  0.020
   17  0.000  0.000  0.009  0.009
   18  0.000  0.000  0.006  0.007
   19  0.000  0.000  0.012  0.012
   20  0.000  0.001  0.055  0.056
   21  0.001  0.001  0.104  0.106
   22  0.001  0.000  0.015  0.017
   23  0.001  0.001  0.104  0.106
   24  0.000  0.000  0.023  0.023
   25  0.000  0.000  0.003  0.003
   26  0.000  0.000  0.012  0.012
   27  0.001  0.000  0.015  0.017
   28  0.000  0.000  0.001  0.002
   29  0.000  0.000  0.008  0.008
   30  0.006  0.001  0.019  0.026
   31  0.000  0.000  0.008  0.008
   32  0.008  0.001  0.022  0.031
   33  0.006  0.001  0.019  0.026
   34  0.008  0.001  0.022  0.031
   35  0.000  0.000  0.015  0.015
   36  0.000  0.003  0.030  0.034
   37  0.000  0.000  0.000  0.000
tot    0.062  0.019  0.755  0.836
 
band    20 # energy   -5.19548443 # occ.  2.00000000
 
ion      s      p      d    tot
    1  0.002  0.000  0.001  0.004
    2  0.000  0.000  0.005  0.005
    3  0.000  0.000  0.005  0.005
    4  0.000  0.000  0.005  0.005
    5  0.006  0.001  0.004  0.011
    6  0.000  0.000  0.005  0.005
    7  0.000  0.000  0.005  0.005
    8  0.000  0.000  0.005  0.005
    9  0.012  0.001  0.000  0.013
   10  0.000  0.000  0.008  0.008
   11  0.000  0.001  0.043  0.043
   12  0.000  0.000  0.008  0.008
   13  0.000  0.001  0.043  0.043
   14  0.000  0.001  0.042  0.043
   15  0.000  0.000  0.021  0.021
   16  0.000  0.000  0.008  0.008
   17  0.000  0.000  0.021  0.021
   18  0.000  0.000  0.021  0.021
   19  0.000  0.000  0.012  0.012
   20  0.003  0.000  0.051  0.053
   21  0.003  0.000  0.051  0.054
   22  0.001  0.001  0.034  0.035
   23  0.003  0.000  0.051  0.054
   24  0.001  0.001  0.033  0.035
   25  0.000  0.000  0.012  0.013
   26  0.000  0.000  0.012  0.012
   27  0.001  0.001  0.034  0.035
   28  0.000  0.000  0.004  0.005
   29  0.000  0.001  0.024  0.025
   30  0.000  0.001  0.024  0.025
   31  0.000  0.001  0.024  0.025
   32  0.000  0.001  0.023  0.025
   33  0.000  0.001  0.024  0.025
   34  0.000  0.001  0.023  0.025
   35  0.031  0.001  0.002  0.034
   36  0.001  0.000  0.038  0.039
   37  0.001  0.016  0.000  0.017
tot    0.067  0.035  0.722  0.824
 
band    21 # energy   -5.16921768 # occ.  2.00000000
 
ion      s      p      d    tot
    1  0.010  0.000  0.003  0.014
    2  0.000  0.000  0.016  0.016
    3  0.000  0.000  0.016  0.016
    4  0.000  0.000  0.016  0.016
    5  0.000  0.000  0.002  0.002
    6  0.000  0.000  0.016  0.016
    7  0.000  0.000  0.016  0.016
    8  0.000  0.000  0.016  0.016
    9  0.011  0.000  0.008  0.019
   10  0.001  0.001  0.012  0.014
   11  0.000  0.000  0.019  0.020
   12  0.001  0.001  0.012  0.014
   13  0.000  0.000  0.019  0.020
   14  0.000  0.000  0.019  0.020
   15  0.000  0.000  0.036  0.037
   16  0.001  0.001  0.012  0.014
   17  0.000  0.000  0.036  0.037
   18  0.000  0.000  0.037  0.037
   19  0.000  0.000  0.035  0.036
   20  0.001  0.001  0.046  0.048
   21  0.001  0.001  0.046  0.048
   22  0.000  0.000  0.027  0.028
   23  0.001  0.001  0.046  0.048
   24  0.000  0.000  0.027  0.028
   25  0.000  0.000  0.035  0.036
   26  0.000  0.000  0.035  0.036
   27  0.000  0.000  0.027  0.028
   28  0.009  0.000  0.013  0.022
   29  0.000  0.000  0.015  0.015
   30  0.000  0.000  0.015  0.016
   31  0.000  0.000  0.015  0.015
   32  0.000  0.000  0.015  0.016
   33  0.000  0.000  0.015  0.016
   34  0.000  0.000  0.015  0.016
   35  0.000  0.000  0.001  0.001
   36  0.022  0.001  0.003  0.025