 vasp.6.2.0 18Jan21 (build Jun 12 2021 23:27:24) complex                        
  
 executed on             LinuxIFC date 2022.05.26  20:22:58
 running on   28 total cores
 distrk:  each k-point on   28 cores,    1 groups
 distr:  one band on NCORE=   1 cores,   28 groups


--------------------------------------------------------------------------------------------------------


 INCAR:
   ISMEAR = -5
   SIGMA = 0.1
   ISPIN = 1
   EDIFF = 1.d-5
   EDIFFG = -0.01
   NSW = 0
   NELM = 150
   ENCUT = 500
   ISIF = 2
   IBRION = 2
   LREAL = Auto
   ALGO = Fast
   ICHARG = 11
   LORBIT = 10
   LCHARG = .F.
   LWAVE = .F.

 POTCAR:    PAW_PBE Ag 02Apr2005                  
 POTCAR:    PAW_PBE W 08Apr2002                   
 -----------------------------------------------------------------------------
|                                                                             |
|           W    W    AA    RRRRR   N    N  II  N    N   GGGG   !!!           |
|           W    W   A  A   R    R  NN   N  II  NN   N  G    G  !!!           |
|           W    W  A    A  R    R  N N  N  II  N N  N  G       !!!           |
|           W WW W  AAAAAA  RRRRR   N  N N  II  N  N N  G  GGG   !            |
|           WW  WW  A    A  R   R   N   NN  II  N   NN  G    G                |
|           W    W  A    A  R    R  N    N  II  N    N   GGGG   !!!           |
|                                                                             |
|     For optimal performance we recommend to set                             |
|       NCORE = 2 up to number-of-cores-per-socket                            |
|     NCORE specifies how many cores store one orbital (NPAR=cpu/NCORE).      |
|     This setting can greatly improve the performance of VASP for DFT.       |
|     The default, NCORE=1 might be grossly inefficient on modern             |
|     multi-core architectures or massively parallel machines. Do your        |
|     own testing! More info at https://www.vasp.at/wiki/index.php/NCORE      |
|     Unfortunately you need to use the default for GW and RPA                |
|     calculations (for HF NCORE is supported but not extensively tested      |
|     yet).                                                                   |
|                                                                             |
 -----------------------------------------------------------------------------

 POTCAR:    PAW_PBE Ag 02Apr2005                  
   VRHFIN =Ag : s1 d10                                                                              
   LEXCH  = PE                                                                                      
   EATOM  =  1037.2675 eV,   76.2370 Ry                                                             
                                                                                                    
   TITEL  = PAW_PBE Ag 02Apr2005                                                                    
   LULTRA =        F    use ultrasoft PP ?                                                          
   IUNSCR =        1    unscreen: 0-lin 1-nonlin 2-no                                               
   RPACOR =    2.000    partial core radius                                                         
   POMASS =  107.868; ZVAL   =   11.000    mass and valenz                                          
   RCORE  =    2.500    outmost cutoff radius                                                       
   RWIGS  =    2.840; RWIGS  =    1.503    wigner-seitz radius (au A)                               
   ENMAX  =  249.844; ENMIN  =  187.383 eV                                                          
   ICORE  =        3    local potential                                                             
   LCOR   =        T    correct aug charges                                                         
   LPAW   =        T    paw PP                                                                      
   EAUG   =  412.496                                                                                
   DEXC   =    0.000                                                                                
   RMAX   =    2.560    core radius for proj-oper                                                   
   RAUG   =    1.300    factor for augmentation sphere                                              
   RDEP   =    2.576    radius for radial grids                                                     
   RDEPT  =    2.072    core radius for aug-charge                                                  
                                                                                                    
   Atomic configuration                                                                             
   12 entries                                                                                       
     n  l   j            E        occ.                                                              
     1  0  0.50    -25324.9161   2.0000                                                             
     2  0  0.50     -3728.5341   2.0000                                                             
     2  1  1.50     -3344.0404   6.0000                                                             
     3  0  0.50      -683.5581   2.0000                                                             
     3  1  1.50      -557.3225   6.0000                                                             
     3  2  2.50      -358.3853  10.0000                                                             
     4  0  0.50       -95.0341   2.0000                                                             
     4  1  1.50       -58.5511   6.0000                                                             
     4  2  2.50        -7.4440  10.0000                                                             
     5  0  0.50        -4.4045   1.0000                                                             
     5  1  0.50        -1.3606   0.0000                                                             
     4  3  2.50        -1.3606   0.0000                                                             
   Description                                                                                      
     l       E           TYP  RCUT    TYP  RCUT                                                     
     2     -7.4439781     23  2.400                                                                 
     2     -8.8045607     23  2.400                                                                 
     0     -4.4044681     23  2.400                                                                 
     0      1.9520038     23  2.400                                                                 
     1     -1.3605826     23  2.500                                                                 
     1     27.2116520     23  2.500                                                                 
     3     -4.0817478     23  2.400                                                                 
  local pseudopotential read in
  partial core-charges read in
  partial kinetic energy density read in
  atomic valenz-charges read in
  non local Contribution for L=           2  read in
    real space projection operators read in
  non local Contribution for L=           2  read in
    real space projection operators read in
  non local Contribution for L=           0  read in
    real space projection operators read in
  non local Contribution for L=           0  read in
    real space projection operators read in
  non local Contribution for L=           1  read in
    real space projection operators read in
  non local Contribution for L=           1  read in
    real space projection operators read in
    PAW grid and wavefunctions read in
 
   number of l-projection  operators is LMAX  =           6
   number of lm-projection operators is LMMAX =          18
 
 POTCAR:    PAW_PBE W 08Apr2002                   
   VRHFIN =W : 6s5d                                                                                 
   LEXCH  = PE                                                                                      
   EATOM  =   204.6103 eV,   15.0384 Ry                                                             
                                                                                                    
   TITEL  = PAW_PBE W 08Apr2002                                                                     
   LULTRA =        F    use ultrasoft PP ?                                                          
   IUNSCR =        1    unscreen: 0-lin 1-nonlin 2-no                                               
   RPACOR =    2.330    partial core radius                                                         
   POMASS =  183.850; ZVAL   =    6.000    mass and valenz                                          
   RCORE  =    2.750    outmost cutoff radius                                                       
   RWIGS  =    2.750; RWIGS  =    1.455    wigner-seitz radius (au A)                               
   ENMAX  =  223.057; ENMIN  =  167.293 eV                                                          
   RCLOC  =    2.147    cutoff for local pot                                                        
   LCOR   =        T    correct aug charges                                                         
   LPAW   =        T    paw PP                                                                      
   EAUG   =  373.438                                                                                
   DEXC   =    0.000                                                                                
   RMAX   =    2.801    core radius for proj-oper                                                   
   RAUG   =    1.300    factor for augmentation sphere                                              
   RDEP   =    2.886    radius for radial grids                                                     
   RDEPT  =    2.230    core radius for aug-charge                                                  
                                                                                                    
   Atomic configuration                                                                             
   16 entries                                                                                       
     n  l   j            E        occ.                                                              
     1  0  0.50    -69465.5836   2.0000                                                             
     2  0  0.50    -11986.2642   2.0000                                                             
     2  1  1.50    -10479.8616   6.0000                                                             
     3  0  0.50     -2759.0758   2.0000                                                             
     3  1  1.50     -2313.1857   6.0000                                                             
     3  2  2.50     -1801.1185  10.0000                                                             
     4  0  0.50      -567.6791   2.0000                                                             
     4  1  1.50      -421.4694   6.0000                                                             
     4  2  2.50      -236.3473  10.0000                                                             
     4  3  3.50       -31.2666  14.0000                                                             
     5  0  0.50       -77.1085   2.0000                                                             
     5  1  1.50       -41.3856   6.0000                                                             
     5  2  2.50        -3.3185   5.0000                                                             
     6  0  0.50        -5.1438   1.0000                                                             
     6  1  0.50        -3.8096   0.0000                                                             
     5  3  2.50        -1.3606   0.0000                                                             
   Description                                                                                      
     l       E           TYP  RCUT    TYP  RCUT                                                     
     2     -3.3185288     23  2.500                                                                 
     2     -1.5965414     23  2.500                                                                 
     0     -5.1438054     23  2.500                                                                 
     0      4.9117504     23  2.500                                                                 
     1      2.7211652     23  2.750                                                                 
     1     27.2116520     23  2.750                                                                 
  local pseudopotential read in
  partial core-charges read in
  partial kinetic energy density read in
  atomic valenz-charges read in
  non local Contribution for L=           2  read in
    real space projection operators read in
  non local Contribution for L=           2  read in
    real space projection operators read in
  non local Contribution for L=           0  read in
    real space projection operators read in
  non local Contribution for L=           0  read in
    real space projection operators read in
  non local Contribution for L=           1  read in
    real space projection operators read in
  non local Contribution for L=           1  read in
    real space projection operators read in
    PAW grid and wavefunctions read in
 
   number of l-projection  operators is LMAX  =           6
   number of lm-projection operators is LMMAX =          18
 
 Optimization of the real space projectors (new method)

 maximal supplied QI-value         = 15.12
 optimisation between [QCUT,QGAM] = [ 11.34, 22.83] = [ 36.00,145.93] Ry 
 Optimized for a Real-space Cutoff    1.43 Angstroem

   l    n(q)    QCUT    max X(q) W(low)/X(q) W(high)/X(q)  e(spline) 
   2      9    11.338    53.897    0.16E-03    0.20E-03    0.28E-06
   2      9    11.338    52.416    0.16E-03    0.20E-03    0.29E-06
   0     10    11.338   122.045    0.31E-04    0.76E-04    0.15E-06
   0     10    11.338    73.629    0.30E-04    0.72E-04    0.15E-06
   1      9    11.338    15.255    0.20E-03    0.19E-04    0.17E-06
   1      9    11.338     9.562    0.16E-03    0.15E-04    0.14E-06
 Optimization of the real space projectors (new method)

 maximal supplied QI-value         = 13.61
 optimisation between [QCUT,QGAM] = [ 11.43, 22.86] = [ 36.58,146.31] Ry 
 Optimized for a Real-space Cutoff    1.56 Angstroem

   l    n(q)    QCUT    max X(q) W(low)/X(q) W(high)/X(q)  e(spline) 
   2     10    11.429   130.855    0.22E-03    0.64E-03    0.11E-05
   2     10    11.429   114.007    0.22E-03    0.64E-03    0.11E-05
   0     11    11.429    84.709    0.39E-04    0.67E-04    0.23E-06
   0     11    11.429    49.163    0.35E-04    0.62E-04    0.21E-06
   1     10    11.429    15.765    0.84E-04    0.15E-03    0.24E-06
   1     10    11.429    10.638    0.58E-04    0.12E-03    0.19E-06
  PAW_PBE Ag 02Apr2005                  :
 energy of atom  1       EATOM=-1037.2675
 kinetic energy error for atom=    0.0052 (will be added to EATOM!!)
  PAW_PBE W 08Apr2002                   :
 energy of atom  2       EATOM= -204.6103
 kinetic energy error for atom=    0.0017 (will be added to EATOM!!)
 
 
 POSCAR: Ag-W
  positions in direct lattice
  velocities in cartesian coordinates
 exchange correlation table for  LEXCH =        8
   RHO(1)=    0.500       N(1)  =     2000
   RHO(2)=  100.500       N(2)  =     4000

 VTST: version 3.2, (02/03/18)

 CHAIN: initializing optimizer
 
 OPT: Using VASP Conjugate-Gradient optimizer
 CHAIN: Read ICHAIN            0
 
 POSCAR: Ag-W
  positions in direct lattice
  velocities in cartesian coordinates
 


--------------------------------------------------------------------------------------------------------


 ion  position               nearest neighbor table
   1  0.000  0.000  0.238-   2 2.93   8 2.93   7 2.93   6 2.93   4 2.93  12 2.93  16 2.93  10 2.93
                             3 2.93
   2  0.333  0.000  0.238-   1 2.93   8 2.93   9 2.93   3 2.93   4 2.93   5 2.93  10 2.93  17 2.93
                            11 2.93
   3  0.667  0.000  0.238-   9 2.93   2 2.93   5 2.93  11 2.93   7 2.93  18 2.93   1 2.93   6 2.93
                            12 2.93
   4  0.000  0.333  0.238-   5 2.93   6 2.93   2 2.93   1 2.93   7 2.93  13 2.93  15 2.93   9 2.93
                            10 2.93
   5  0.333  0.333  0.238-   4 2.93   3 2.93   7 2.93   2 2.93   8 2.93  14 2.93  13 2.93  11 2.93
                             6 2.93
   6  0.667  0.333  0.238-   4 2.93   9 2.93   1 2.93  15 2.93   8 2.93  12 2.93   3 2.93   5 2.93
                            14 2.93
   7  0.000  0.667  0.238-   8 2.93   1 2.93   5 2.93   3 2.93   4 2.93  16 2.93  18 2.93  13 2.93
                             9 2.93
   8  0.333  0.667  0.238-   7 2.93   1 2.93   2 2.93   9 2.93   5 2.93  16 2.93   6 2.93  17 2.93
                            14 2.93
   9  0.667  0.667  0.238-   3 2.93   2 2.93   8 2.93   6 2.93  17 2.93   4 2.93  15 2.93   7 2.93
                            18 2.93
  10  0.111  0.111  0.346-  20 2.89  12 2.93  16 2.93  15 2.93  17 2.93  13 2.93  11 2.93   2 2.93
                             1 2.93   4 2.93  19 2.93  26 2.93
  11  0.444  0.111  0.346-  21 2.90  20 2.90  14 2.93  17 2.93  18 2.93   3 2.93  12 2.93  13 2.93
                            10 2.93   5 2.93   2 2.93  27 2.93
  12  0.778  0.111  0.346-  21 2.89  10 2.93  16 2.93  18 2.93  15 2.93  11 2.93   1 2.93  14 2.93
                             6 2.93   3 2.93  25 2.93  19 2.93
  13  0.111  0.444  0.346-  20 2.90  23 2.90  15 2.93  14 2.93  18 2.93  10 2.93  11 2.93  16 2.93
                             4 2.93   5 2.93   7 2.93  22 2.93
  14  0.444  0.444  0.346-  23 2.90  21 2.90  13 2.93  11 2.93  16 2.93   5 2.93  12 2.93  17 2.93
                             8 2.93  15 2.93   6 2.93  24 2.93
  15  0.778  0.444  0.346-  24 2.93  22 2.93  13 2.93  10 2.93  12 2.93  17 2.93  18 2.93   4 2.93
                             6 2.93   9 2.93  14 2.93  19 2.93
  16  0.111  0.778  0.346-  23 2.89  18 2.93  12 2.93  10 2.93  14 2.93  17 2.93  13 2.93   7 2.93
                             8 2.93   1 2.93  26 2.93  25 2.93
  17  0.444  0.778  0.346-  27 2.93  24 2.93  11 2.93  10 2.93   9 2.93  18 2.93  15 2.93  16 2.93
                             2 2.93  14 2.93   8 2.93  26 2.93
  18  0.778  0.778  0.346-  22 2.93  27 2.93  16 2.93  12 2.93  13 2.93  11 2.93  17 2.93  15 2.93
                             7 2.93   3 2.93   9 2.93  25 2.93
  19  0.889  0.223  0.454-  28 2.92  20 2.93  21 2.93  24 2.93  22 2.93  15 2.93  10 2.93  12 2.93
                            26 2.94  25 2.94  32 2.98  31 2.98
  20  0.222  0.222  0.452-  36 2.76  10 2.89  13 2.90  11 2.90  19 2.93  26 2.93  27 2.94  22 2.94
                            21 2.94  23 2.94  31 2.96  29 2.96
  21  0.556  0.222  0.452-  36 2.76  12 2.89  11 2.90  14 2.90  25 2.93  19 2.93  27 2.94  24 2.94
                            20 2.94  23 2.94  30 2.96  32 2.96
  22  0.888  0.556  0.454-  35 2.92  24 2.92  27 2.92  18 2.93  15 2.93  25 2.93  19 2.93  13 2.93
                            23 2.94  20 2.94  33 2.96  31 2.96
  23  0.222  0.556  0.452-  36 2.76  16 2.89  14 2.90  13 2.90  26 2.93  25 2.93  22 2.94  24 2.94
                            21 2.94  20 2.94  34 2.96  33 2.96
  24  0.556  0.556  0.454-  35 2.92  27 2.92  22 2.92  15 2.93  17 2.93  19 2.93  26 2.93  14 2.93
                            23 2.94  21 2.94  32 2.96  34 2.96
  25  0.889  0.889  0.454-  28 2.92  23 2.93  21 2.93  22 2.93  27 2.93  18 2.93  16 2.93  12 2.93
                            26 2.94  19 2.94  33 2.98  30 2.98
  26  0.223  0.889  0.454-  28 2.92  23 2.93  20 2.93  27 2.93  24 2.93  17 2.93  16 2.93  10 2.93
                            25 2.94  19 2.94  34 2.98  29 2.98
  27  0.556  0.888  0.454-  35 2.92  24 2.92  22 2.92  17 2.93  18 2.93  26 2.93  25 2.93  11 2.93
                            20 2.94  21 2.94  29 2.96  30 2.96
  28  0.000  0.000  0.562-  26 2.92  25 2.92  19 2.92  29 2.96  34 2.96  33 2.96  32 2.96  31 2.96
                            30 2.96
  29  0.333  0.007  0.563-  31 2.86  30 2.87  36 2.88  20 2.96  27 2.96  28 2.96  35 2.96  26 2.98
                            34 3.06
  30  0.659  0.007  0.563-  32 2.86  29 2.87  36 2.88  21 2.96  27 2.96  28 2.96  35 2.96  25 2.98
                            33 3.06
  31  0.007  0.333  0.563-  29 2.86  33 2.87  36 2.88  20 2.96  22 2.96  28 2.96  35 2.96  19 2.98
                            32 3.06
  32  0.659  0.333  0.563-  30 2.86  34 2.87  36 2.88  21 2.96  24 2.96  28 2.96  35 2.96  19 2.98
                            31 3.06
  33  0.007  0.659  0.563-  34 2.86  31 2.87  36 2.88  23 2.96  22 2.96  28 2.96  35 2.96  25 2.98
                            30 3.06
  34  0.333  0.659  0.563-  33 2.86  32 2.87  36 2.88  23 2.96  24 2.96  28 2.96  35 2.96  26 2.98
                            29 3.06
  35  0.667  0.667  0.561-  24 2.92  27 2.92  22 2.92  30 2.96  32 2.96  29 2.96  34 2.96  31 2.96
                            33 2.96
  36  0.333  0.333  0.550-  21 2.76  20 2.76  23 2.76  31 2.88  30 2.88  33 2.88  29 2.88  34 2.88
                            32 2.88
 
  LATTYP: Found a hexagonal cell.
 ALAT       =     8.7913665772
 C/A-ratio  =     2.5227160501
  
  Lattice vectors:
  
 A1 = (  -4.3956832886,  -7.6135467898,   0.0000000000)
 A2 = (   8.7913665771,   0.0000000000,   0.0000000000)
 A3 = (   0.0000000000,   0.0000000000,  22.1781215668)


Analysis of symmetry for initial positions (statically):
=====================================================================
 Subroutine PRICEL returns:
 Original cell was already a primitive cell.
 

 Routine SETGRP: Setting up the symmetry group for a 
 hexagonal supercell.


 Subroutine GETGRP returns: Found  6 space group operations
 (whereof  6 operations were pure point group operations)
 out of a pool of 24 trial point group operations.


The static configuration has the point symmetry C_3v.


Analysis of symmetry for dynamics (positions and initial velocities):
=====================================================================
 Subroutine PRICEL returns:
 Original cell was already a primitive cell.
 

 Routine SETGRP: Setting up the symmetry group for a 
 hexagonal supercell.


 Subroutine GETGRP returns: Found  6 space group operations
 (whereof  6 operations were pure point group operations)
 out of a pool of 24 trial point group operations.


The dynamic configuration has the point symmetry C_3v.


Analysis of constrained symmetry for selective dynamics:
=====================================================================
 Subroutine PRICEL returns:
 Original cell was already a primitive cell.
 

 Routine SETGRP: Setting up the symmetry group for a 
 hexagonal supercell.


 Subroutine GETGRP returns: Found  6 space group operations
 (whereof  6 operations were pure point group operations)
 out of a pool of 24 trial point group operations.


The constrained configuration has the point symmetry C_3v.


 Subroutine INISYM returns: Found  6 space group operations
 (whereof  6 operations are pure point group operations),
 and found     1 'primitive' translations


----------------------------------------------------------------------------------------

                                     Primitive cell                                     

  volume of cell :    1484.4589

  direct lattice vectors                    reciprocal lattice vectors
     8.791366577  0.000000000  0.000000000     0.113747958 -0.065672414  0.000000000
     4.395683289  7.613546790  0.000000000     0.000000000  0.131344829  0.000000000
     0.000000000  0.000000000 22.178121567     0.000000000  0.000000000  0.045089481

  length of vectors
     8.791366577  8.791366577 22.178121567     0.131344829  0.131344829  0.045089481

  position of ions in fractional coordinates (direct lattice)
     0.000000000  0.000000000  0.238171124
     0.333333313  0.000000000  0.238171124
     0.666666627  0.000000000  0.238171124
     0.000000000  0.333333343  0.238171124
     0.333333313  0.333333343  0.238171124
     0.666666687  0.333333343  0.238171124
     0.000000000  0.666666687  0.238171124
     0.333333313  0.666666687  0.238171124
     0.666666627  0.666666687  0.238171124
     0.111111104  0.111111112  0.346057051
     0.444444448  0.111111112  0.346057051
     0.777777791  0.111111112  0.346057051
     0.111111097  0.444444448  0.346057051
     0.444444418  0.444444448  0.346057051
     0.777777791  0.444444448  0.346057051
     0.111111104  0.777777791  0.346057051
     0.444444448  0.777777791  0.346057051
     0.777777791  0.777777791  0.346057051
     0.888682547  0.222634923  0.454143254
     0.221886126  0.221886141  0.452012258
     0.556227689  0.221886141  0.452012258
     0.888029345  0.555985358  0.453817679
     0.221886141  0.556227749  0.452012258
     0.555985358  0.555985358  0.453817679
     0.888682547  0.888682547  0.454143254
     0.222634893  0.888682547  0.454143254
     0.555985298  0.888029345  0.453817679
     0.000000000  0.000000000  0.561517915
     0.333212521  0.007383933  0.563050267
     0.659403486  0.007383933  0.563050267
     0.007383933  0.333212551  0.563050267
     0.659403546  0.333212551  0.563050267
     0.007383933  0.659403546  0.563050267
     0.333212521  0.659403546  0.563050267
     0.666666627  0.666666687  0.561272751
     0.333333313  0.333333343  0.550205177

  ion indices of the primitive-cell ions
   primitive index   ion index
                 1           1
                 2           2
                 3           3
                 4           4
                 5           5
                 6           6
                 7           7
                 8           8
                 9           9
                10          10
                11          11
                12          12
                13          13
                14          14
                15          15
                16          16
                17          17
                18          18
                19          19
                20          20
                21          21
                22          22
                23          23
                24          24
                25          25
                26          26
                27          27
                28          28
                29          29
                30          30
                31          31
                32          32
                33          33
                34          34
                35          35
                36          36

----------------------------------------------------------------------------------------

 
 
 KPOINTS: Automatic mesh                          

Automatic generation of k-mesh.
 Grid dimensions read from file:
 generate k-points for:    8    8    1

 Generating k-lattice:

  Cartesian coordinates                     Fractional coordinates (reciprocal lattice)
     0.014218495 -0.008209052  0.000000000     0.125000000  0.000000000  0.000000000
     0.000000000  0.016418104  0.000000000     0.000000000  0.125000000  0.000000000
     0.000000000  0.000000000  0.045089481     0.000000000  0.000000000  1.000000000

  Length of vectors
     0.016418104  0.016418104  0.045089481

  Shift w.r.t. Gamma in fractional coordinates (k-lattice)
     0.000000000  0.000000000  0.000000000

 TETIRR: Found     36 inequivalent tetrahedra from      384
 
 Subroutine IBZKPT returns following result:
 ===========================================
 
 Found     10 irreducible k-points:
 
 Following reciprocal coordinates:
            Coordinates               Weight
  0.000000  0.000000  0.000000      1.000000
  0.125000 -0.000000  0.000000      6.000000
  0.250000 -0.000000  0.000000      6.000000
  0.375000 -0.000000  0.000000      6.000000
  0.500000 -0.000000  0.000000      3.000000
  0.250000  0.125000  0.000000      6.000000
  0.375000  0.125000  0.000000     12.000000
  0.500000  0.125000  0.000000     12.000000
  0.500000  0.250000  0.000000      6.000000
 -0.375000  0.250000  0.000000      6.000000
 
 Following cartesian coordinates:
            Coordinates               Weight
  0.000000  0.000000  0.000000      1.000000
  0.014218 -0.008209  0.000000      6.000000
  0.028437 -0.016418  0.000000      6.000000
  0.042655 -0.024627  0.000000      6.000000
  0.056874 -0.032836  0.000000      3.000000
  0.028437 -0.000000  0.000000      6.000000
  0.042655 -0.008209  0.000000     12.000000
  0.056874 -0.016418  0.000000     12.000000
  0.056874 -0.000000  0.000000      6.000000
 -0.042655  0.057463  0.000000      6.000000
 


--------------------------------------------------------------------------------------------------------




 Dimension of arrays:
   k-points           NKPTS =     10   k-points in BZ     NKDIM =     10   number of bands    NBANDS=    252
   number of dos      NEDOS =    301   number of ions     NIONS =     36
   non local maximal  LDIM  =      6   non local SUM 2l+1 LMDIM =     18
   total plane-waves  NPLWV = 290304
   max r-space proj   IRMAX =   3185   max aug-charges    IRDMAX=  11361
   dimension x,y,z NGX =    48 NGY =   48 NGZ =  126
   dimension x,y,z NGXF=    96 NGYF=   96 NGZF=  252
   support grid    NGXF=    96 NGYF=   96 NGZF=  252
   ions per type =              35   1
   NGX,Y,Z   is equivalent  to a cutoff of   9.08,  9.08,  9.44 a.u.
   NGXF,Y,Z  is equivalent  to a cutoff of  18.15, 18.15, 18.89 a.u.

 SYSTEM =  unknown system                          
 POSCAR =  Ag-W                                    

 Startparameter for this run:
   NWRITE =      2    write-flag & timer
   PREC   = normal    normal or accurate (medium, high low for compatibility)
   ISTART =      0    job   : 0-new  1-cont  2-samecut
   ICHARG =     11    charge: 1-file 2-atom 10-const
   ISPIN  =      1    spin polarized calculation?
   LNONCOLLINEAR =      F non collinear calculations
   LSORBIT =      F    spin-orbit coupling
   INIWAV =      1    electr: 0-lowe 1-rand  2-diag
   LASPH  =      F    aspherical Exc in radial PAW
   METAGGA=      F    non-selfconsistent MetaGGA calc.

 Electronic Relaxation 1
   ENCUT  =  500.0 eV  36.75 Ry    6.06 a.u.  16.03 16.03 40.44*2*pi/ulx,y,z
   ENINI  =  500.0     initial cutoff
   ENAUG  =  412.5 eV  augmentation charge cutoff
   NELM   =    150;   NELMIN=  2; NELMDL= -5     # of ELM steps 
   EDIFF  = 0.1E-04   stopping-criterion for ELM
   LREAL  =      T    real-space projection
   NLSPLINE    = F    spline interpolate recip. space projectors
   LCOMPAT=      F    compatible to vasp.4.4
   GGA_COMPAT  = T    GGA compatible to vasp.4.4-vasp.4.6
   LMAXPAW     = -100 max onsite density
   LMAXMIX     =    2 max onsite mixed and CHGCAR
   VOSKOWN=      0    Vosko Wilk Nusair interpolation
   ROPT   =   -0.00050  -0.00050
 Ionic relaxation
   EDIFFG = -.1E-01   stopping-criterion for IOM
   NSW    =      0    number of steps for IOM
   NBLOCK =      1;   KBLOCK =      1    inner block; outer block 
   IBRION =     -1    ionic relax: 0-MD 1-quasi-New 2-CG
   NFREE  =      1    steps in history (QN), initial steepest desc. (CG)
   ISIF   =      2    stress and relaxation
   IWAVPR =     10    prediction:  0-non 1-charg 2-wave 3-comb
   ISYM   =      2    0-nonsym 1-usesym 2-fastsym
   LCORR  =      T    Harris-Foulkes like correction to forces

   POTIM  = 0.5000    time-step for ionic-motion
   TEIN   =    0.0    initial temperature
   TEBEG  =    0.0;   TEEND  =   0.0 temperature during run
   SMASS  =  -3.00    Nose mass-parameter (am)
   estimated Nose-frequenzy (Omega)   =  0.10E-29 period in steps = 0.13E+47 mass=  -0.177E-26a.u.
   SCALEE = 1.0000    scale energy and forces
   NPACO  =    256;   APACO  = 16.0  distance and # of slots for P.C.
   PSTRESS=    0.0 pullay stress

  Mass of Ions in am
   POMASS = 107.87183.85
  Ionic Valenz
   ZVAL   =  11.00  6.00
  Atomic Wigner-Seitz radii
   RWIGS  =  -1.00 -1.00
  virtual crystal weights 
   VCA    =   1.00  1.00
   NELECT =     391.0000    total number of electrons
   NUPDOWN=      -1.0000    fix difference up-down

 DOS related values:
   EMIN   =  10.00;   EMAX   =-10.00  energy-range for DOS
   EFERMI =   0.00
   ISMEAR =    -5;   SIGMA  =   0.10  broadening in eV -4-tet -1-fermi 0-gaus

 Electronic relaxation 2 (details)
   IALGO  =     68    algorithm
   LDIAG  =      T    sub-space diagonalisation (order eigenvalues)
   LSUBROT=      F    optimize rotation matrix (better conditioning)
   TURBO    =      0    0=normal 1=particle mesh
   IRESTART =      0    0=no restart 2=restart with 2 vectors
   NREBOOT  =      0    no. of reboots
   NMIN     =      0    reboot dimension
   EREF     =   0.00    reference energy to select bands
   IMIX   =      4    mixing-type and parameters
     AMIX     =   0.40;   BMIX     =  1.00
     AMIX_MAG =   1.60;   BMIX_MAG =  1.00
     AMIN     =   0.10
     WC   =   100.;   INIMIX=   1;  MIXPRE=   1;  MAXMIX= -45

 Intra band minimization:
   WEIMIN = 0.0000     energy-eigenvalue tresh-hold
   EBREAK =  0.99E-08  absolut break condition
   DEPER  =   0.30     relativ break condition  

   TIME   =   0.40     timestep for ELM

  volume/ion in A,a.u.               =      41.23       278.27
  Fermi-wavevector in a.u.,A,eV,Ry     =   1.049408  1.983094 14.983512  1.101257
  Thomas-Fermi vector in A             =   2.184369
 
 Write flags
   LWAVE        =      F    write WAVECAR
   LDOWNSAMPLE  =      F    k-point downsampling of WAVECAR
   LCHARG       =      F    write CHGCAR
   LVTOT        =      F    write LOCPOT, total local potential
   LVHAR        =      F    write LOCPOT, Hartree potential only
   LELF         =      F    write electronic localiz. function (ELF)
   LORBIT       =     10    0 simple, 1 ext, 2 COOP (PROOUT), +10 PAW based schemes


 Dipole corrections
   LMONO  =      F    monopole corrections only (constant potential shift)
   LDIPOL =      F    correct potential (dipole corrections)
   IDIPOL =      0    1-x, 2-y, 3-z, 4-all directions 
   EPSILON=  1.0000000 bulk dielectric constant

 Exchange correlation treatment:
   GGA     =    --    GGA type
   LEXCH   =     8    internal setting for exchange type
   VOSKOWN=      0    Vosko Wilk Nusair interpolation
   LHFCALC =     F    Hartree Fock is set to
   LHFONE  =     F    Hartree Fock one center treatment
   AEXX    =    0.0000 exact exchange contribution

 Linear response parameters
   LEPSILON=     F    determine dielectric tensor
   LRPA    =     F    only Hartree local field effects (RPA)
   LNABLA  =     F    use nabla operator in PAW spheres
   LVEL    =     F    velocity operator in full k-point grid
   LINTERFAST=   F  fast interpolation
   KINTER  =     0    interpolate to denser k-point grid
   CSHIFT  =0.1000    complex shift for real part using Kramers Kronig
   OMEGAMAX=  -1.0    maximum frequency
   DEG_THRESHOLD= 0.2000000E-02 threshold for treating states as degnerate
   RTIME   =   -0.100 relaxation time in fs
  (WPLASMAI=    0.000 imaginary part of plasma frequency in eV, 0.658/RTIME)
   DFIELD  = 0.0000000 0.0000000 0.0000000 field for delta impulse in time
 
 Orbital magnetization related:
   ORBITALMAG=     F  switch on orbital magnetization
   LCHIMAG   =     F  perturbation theory with respect to B field
   DQ        =  0.001000  dq finite difference perturbation B field
   LLRAUG    =     F  two centre corrections for induced B field



--------------------------------------------------------------------------------------------------------


 Static calculation
 charge density and potential remain constant during run
 non-spin polarized calculation
 RMM-DIIS sequential band-by-band and
  variant of blocked Davidson during initial phase
 perform sub-space diagonalisation
    before iterative eigenvector-optimisation
 no mixing
 using additional bands           56
 real space projection scheme for non local part
 use partial core corrections
 calculate Harris-corrections to forces 
   (improved forces if not selfconsistent)
 use gradient corrections 
 WARNING: stress and forces are not correct
  (second derivative of E(xc) not defined)
 use of overlap-Matrix (Vanderbilt PP)
 Fermi weights with tetrahedron method with Bloechl corrections


--------------------------------------------------------------------------------------------------------


  energy-cutoff  :      500.00
  volume of cell :     1484.46
      direct lattice vectors                 reciprocal lattice vectors
     8.791366577  0.000000000  0.000000000     0.113747958 -0.065672414  0.000000000
     4.395683289  7.613546790  0.000000000     0.000000000  0.131344829  0.000000000
     0.000000000  0.000000000 22.178121567     0.000000000  0.000000000  0.045089481

  length of vectors
     8.791366577  8.791366577 22.178121567     0.131344829  0.131344829  0.045089481


 
 k-points in units of 2pi/SCALE and weight: Automatic mesh                          
   0.00000000  0.00000000  0.00000000       0.016
   0.01421849 -0.00820905  0.00000000       0.094
   0.02843699 -0.01641810  0.00000000       0.094
   0.04265548 -0.02462716  0.00000000       0.094
   0.05687398 -0.03283621  0.00000000       0.047
   0.02843699 -0.00000000  0.00000000       0.094
   0.04265548 -0.00820905  0.00000000       0.188
   0.05687398 -0.01641810  0.00000000       0.188
   0.05687398 -0.00000000  0.00000000       0.094
  -0.04265548  0.05746336  0.00000000       0.094
 
 k-points in reciprocal lattice and weights: Automatic mesh                          
   0.00000000  0.00000000  0.00000000       0.016
   0.12500000 -0.00000000  0.00000000       0.094
   0.25000000 -0.00000000  0.00000000       0.094
   0.37500000 -0.00000000  0.00000000       0.094
   0.50000000 -0.00000000  0.00000000       0.047
   0.25000000  0.12500000  0.00000000       0.094
   0.37500000  0.12500000  0.00000000       0.188
   0.50000000  0.12500000  0.00000000       0.188
   0.50000000  0.25000000  0.00000000       0.094
  -0.37500000  0.25000000  0.00000000       0.094
 
 position of ions in fractional coordinates (direct lattice) 
   0.00000000  0.00000000  0.23817112
   0.33333331  0.00000000  0.23817112
   0.66666663  0.00000000  0.23817112
   0.00000000  0.33333334  0.23817112
   0.33333331  0.33333334  0.23817112
   0.66666669  0.33333334  0.23817112
   0.00000000  0.66666669  0.23817112
   0.33333331  0.66666669  0.23817112
   0.66666663  0.66666669  0.23817112
   0.11111110  0.11111111  0.34605705
   0.44444445  0.11111111  0.34605705
   0.77777779  0.11111111  0.34605705
   0.11111110  0.44444445  0.34605705
   0.44444442  0.44444445  0.34605705
   0.77777779  0.44444445  0.34605705
   0.11111110  0.77777779  0.34605705
   0.44444445  0.77777779  0.34605705
   0.77777779  0.77777779  0.34605705
   0.88868255  0.22263492  0.45414325
   0.22188613  0.22188614  0.45201226
   0.55622769  0.22188614  0.45201226
   0.88802934  0.55598536  0.45381768
   0.22188614  0.55622775  0.45201226
   0.55598536  0.55598536  0.45381768
   0.88868255  0.88868255  0.45414325
   0.22263489  0.88868255  0.45414325
   0.55598530  0.88802934  0.45381768
   0.00000000  0.00000000  0.56151791
   0.33321252  0.00738393  0.56305027
   0.65940349  0.00738393  0.56305027
   0.00738393  0.33321255  0.56305027
   0.65940355  0.33321255  0.56305027
   0.00738393  0.65940355  0.56305027
   0.33321252  0.65940355  0.56305027
   0.66666663  0.66666669  0.56127275
   0.33333331  0.33333334  0.55020518
 
 position of ions in cartesian coordinates  (Angst):
   0.00000000  0.00000000  5.28218814
   2.93045535  0.00000000  5.28218814
   5.86091070  0.00000000  5.28218814
   1.46522781  2.53784900  5.28218814
   4.39568315  2.53784900  5.28218814
   7.32613904  2.53784900  5.28218814
   2.93045562  5.07569801  5.28218814
   5.86091096  5.07569801  5.28218814
   8.79136632  5.07569801  5.28218814
   1.46522770  0.84594965  7.67489535
   4.39568332  0.84594965  7.67489535
   7.32613893  0.84594965  7.67489535
   2.93045542  3.38379860  7.67489535
   5.86091083  3.38379860  7.67489535
   8.79136671  3.38379860  7.67489535
   4.39568328  5.92164760  7.67489535
   7.32613890  5.92164760  7.67489535
  10.25659451  5.92164760  7.67489535
   8.79136665  1.69504140 10.07204429
   2.92602347  1.68934051 10.02478281
   5.86534271  1.68934051 10.02478281
  10.25092705  4.23302053 10.06482365
   4.39568342  4.23486599 10.02478281
   7.33180663  4.23302053 10.06482365
  11.71910106  6.76602615 10.07204429
   5.86363197  6.76602615 10.07204429
   8.79136631  6.76105297 10.06482365
   0.00000000  0.00000000 12.45341257
   2.96185085  0.05621792 12.48739728
   5.82951520  0.05621792 12.48739728
   1.52961170  2.53692935 12.48739728
   7.26175514  2.53692935 12.48739728
   2.96344401  5.02039975 12.48739728
   5.82792257  5.02039975 12.48739728
   8.79136632  5.07569801 12.44797530
   4.39568315  2.53784900 12.20251730
 


--------------------------------------------------------------------------------------------------------


 k-point   1 :   0.0000 0.0000 0.0000  plane waves:   37683
 k-point   2 :   0.1250-0.0000 0.0000  plane waves:   37658
 k-point   3 :   0.2500-0.0000 0.0000  plane waves:   37682
 k-point   4 :   0.3750-0.0000 0.0000  plane waves:   37686
 k-point   5 :   0.5000-0.0000 0.0000  plane waves:   37668
 k-point   6 :   0.2500 0.1250 0.0000  plane waves:   37666
 k-point   7 :   0.3750 0.1250 0.0000  plane waves:   37708
 k-point   8 :   0.5000 0.1250 0.0000  plane waves:   37726
 k-point   9 :   0.5000 0.2500 0.0000  plane waves:   37706
 k-point  10 :  -0.3750 0.2500 0.0000  plane waves:   37686

 maximum and minimum number of plane-waves per node :     37726    37658

 maximum number of plane-waves:     37726
 maximum index in each direction: 
   IXMAX=   16   IYMAX=   16   IZMAX=   40
   IXMIN=  -16   IYMIN=  -16   IZMIN=  -40


 serial   3D FFT for wavefunctions
 parallel 3D FFT for charge:
    minimum data exchange during FFTs selected (reduces bandwidth)


 total amount of memory used by VASP MPI-rank0   122579. kBytes
=======================================================================

   base      :      30000. kBytes
   nonlr-proj:      15273. kBytes
   fftplans  :       4330. kBytes
   grid      :      17098. kBytes
   one-center:        559. kBytes
   wavefun   :      55319. kBytes
 
     INWAV:  cpu time    0.0001: real time    0.0002
 initial charge density was supplied:
 number of electron     390.9999966 magnetization 
 keeping initial charge density in first step


--------------------------------------------------------------------------------------------------------


 Maximum index for non-local projection operator         3042
 Maximum index for augmentation-charges          707 (set IRDMAX)


--------------------------------------------------------------------------------------------------------


 First call to EWALD:  gamma=   0.155
 Maximum number of real-space cells 4x 4x 2
 Maximum number of reciprocal cells 2x 2x 5

    FEWALD:  cpu time    0.0013: real time    0.0013


--------------------------------------- Iteration      1(   1)  ---------------------------------------


    POTLOK:  cpu time    0.0619: real time    0.0625
    SETDIJ:  cpu time    0.0052: real time    0.0053
     EDDAV:  cpu time   11.0674: real time   11.1087
 BZINTS: Fermi energy:    9.115493;  391.000000 electrons
         Band energy: 0.117926E+04;  BLOECHL correction:   -0.018776
       DOS:  cpu time    0.0103: real time    0.0104
    --------------------------------------------
      LOOP:  cpu time   11.1449: real time   11.1869

 eigenvalue-minimisations  :  5040
 total energy-change (2. order) : 0.2355043E+04  (-0.1799313E+05)
 number of electron     390.9999966 magnetization 
 augmentation part      390.9999966 magnetization 

 Free energy of the ion-electron system (eV)
  ---------------------------------------------------
  alpha Z        PSCENC =       744.84518343
  Ewald energy   TEWEN  =     96439.40590376
  -Hartree energ DENC   =   -133672.07932182
  -exchange      EXHF   =         0.00000000
  -V(xc)+E(xc)   XCENC  =      -437.70503873
  PAW double counting   =     38712.21182269   -37119.68266977
  entropy T*S    EENTRO =         0.00000000
  eigenvalues    EBANDS =      1179.25793282
  atomic energy  EATOM  =     36508.78945582
  Solvation  Ediel_sol  =         0.00000000
  ---------------------------------------------------
  free energy    TOTEN  =      2355.04326820 eV

  energy without entropy =     2355.04326820  energy(sigma->0) =     2355.04326820


--------------------------------------------------------------------------------------------------------




--------------------------------------- Iteration      1(   2)  ---------------------------------------


     EDDAV:  cpu time    7.8696: real time    7.8765
 BZINTS: Fermi energy:    1.393031;  391.000000 electrons
         Band energy:-0.119874E+04;  BLOECHL correction:   -0.017204
       DOS:  cpu time    0.0106: real time    0.0106
    --------------------------------------------
      LOOP:  cpu time    7.8802: real time    7.8871

 eigenvalue-minimisations  :  5320
 total energy-change (2. order) :-0.2378000E+04  (-0.2254026E+04)
 number of electron     390.9999966 magnetization 
 augmentation part      390.9999966 magnetization 

 Free energy of the ion-electron system (eV)
  ---------------------------------------------------
  alpha Z        PSCENC =       744.84518343
  Ewald energy   TEWEN  =     96439.40590376
  -Hartree energ DENC   =   -133672.07932182
  -exchange      EXHF   =         0.00000000
  -V(xc)+E(xc)   XCENC  =      -437.70503873
  PAW double counting   =     38712.21182269   -37119.68266977
  entropy T*S    EENTRO =         0.00000000
  eigenvalues    EBANDS =     -1198.74222296
  atomic energy  EATOM  =     36508.78945582
  Solvation  Ediel_sol  =         0.00000000
  ---------------------------------------------------
  free energy    TOTEN  =       -22.95688758 eV

  energy without entropy =      -22.95688758  energy(sigma->0) =      -22.95688758


--------------------------------------------------------------------------------------------------------




--------------------------------------- Iteration      1(   3)  ---------------------------------------


     EDDAV:  cpu time   12.6516: real time   12.7461
 BZINTS: Fermi energy:    0.826409;  391.000000 electrons
         Band energy:-0.127233E+04;  BLOECHL correction:   -0.016530
       DOS:  cpu time    0.0103: real time    0.0103
    --------------------------------------------
      LOOP:  cpu time   12.6620: real time   12.7564

 eigenvalue-minimisations  :  5880
 total energy-change (2. order) :-0.7358884E+02  (-0.7139974E+02)
 number of electron     390.9999966 magnetization 
 augmentation part      390.9999966 magnetization 

 Free energy of the ion-electron system (eV)
  ---------------------------------------------------
  alpha Z        PSCENC =       744.84518343
  Ewald energy   TEWEN  =     96439.40590376
  -Hartree energ DENC   =   -133672.07932182
  -exchange      EXHF   =         0.00000000
  -V(xc)+E(xc)   XCENC  =      -437.70503873
  PAW double counting   =     38712.21182269   -37119.68266977
  entropy T*S    EENTRO =         0.00000000
  eigenvalues    EBANDS =     -1272.33105902
  atomic energy  EATOM  =     36508.78945582
  Solvation  Ediel_sol  =         0.00000000
  ---------------------------------------------------
  free energy    TOTEN  =       -96.54572364 eV

  energy without entropy =      -96.54572364  energy(sigma->0) =      -96.54572364


--------------------------------------------------------------------------------------------------------




--------------------------------------- Iteration      1(   4)  ---------------------------------------


     EDDAV:  cpu time   12.8414: real time   12.8605
 BZINTS: Fermi energy:    0.809396;  391.000000 electrons
         Band energy:-0.127332E+04;  BLOECHL correction:   -0.017309
       DOS:  cpu time    0.0107: real time    0.0107
    --------------------------------------------
      LOOP:  cpu time   12.8521: real time   12.8712

 eigenvalue-minimisations  :  5992
 total energy-change (2. order) :-0.9906972E+00  (-0.9875381E+00)
 number of electron     390.9999966 magnetization 
 augmentation part      390.9999966 magnetization 

 Free energy of the ion-electron system (eV)
  ---------------------------------------------------
  alpha Z        PSCENC =       744.84518343
  Ewald energy   TEWEN  =     96439.40590376
  -Hartree energ DENC   =   -133672.07932182
  -exchange      EXHF   =         0.00000000
  -V(xc)+E(xc)   XCENC  =      -437.70503873
  PAW double counting   =     38712.21182269   -37119.68266977
  entropy T*S    EENTRO =         0.00000000
  eigenvalues    EBANDS =     -1273.32175619
  atomic energy  EATOM  =     36508.78945582
  Solvation  Ediel_sol  =         0.00000000
  ---------------------------------------------------
  free energy    TOTEN  =       -97.53642081 eV

  energy without entropy =      -97.53642081  energy(sigma->0) =      -97.53642081


--------------------------------------------------------------------------------------------------------




--------------------------------------- Iteration      1(   5)  ---------------------------------------


     EDDAV:  cpu time   13.2020: real time   13.2855
 BZINTS: Fermi energy:    0.809143;  391.000000 electrons
         Band energy:-0.127334E+04;  BLOECHL correction:   -0.017312
       DOS:  cpu time    0.0122: real time    0.0122
    --------------------------------------------
      LOOP:  cpu time   13.2142: real time   13.2977

 eigenvalue-minimisations  :  6188
 total energy-change (2. order) :-0.1933853E-01  (-0.1933947E-01)
 number of electron     390.9999966 magnetization 
 augmentation part      390.9999966 magnetization 

 Free energy of the ion-electron system (eV)
  ---------------------------------------------------
  alpha Z        PSCENC =       744.84518343
  Ewald energy   TEWEN  =     96439.40590376
  -Hartree energ DENC   =   -133672.07932182
  -exchange      EXHF   =         0.00000000
  -V(xc)+E(xc)   XCENC  =      -437.70503873
  PAW double counting   =     38712.21182269   -37119.68266977
  entropy T*S    EENTRO =         0.00000000
  eigenvalues    EBANDS =     -1273.34109472
  atomic energy  EATOM  =     36508.78945582
  Solvation  Ediel_sol  =         0.00000000
  ---------------------------------------------------
  free energy    TOTEN  =       -97.55575934 eV

  energy without entropy =      -97.55575934  energy(sigma->0) =      -97.55575934


--------------------------------------------------------------------------------------------------------




--------------------------------------- Iteration      1(   6)  ---------------------------------------


    EDDIAG:  cpu time    2.1014: real time    2.1051
  RMM-DIIS:  cpu time    6.3214: real time    6.3275
    ORTHCH:  cpu time    0.3792: real time    0.3802
 BZINTS: Fermi energy:    0.809137;  391.000000 electrons
         Band energy:-0.127334E+04;  BLOECHL correction:   -0.017312
       DOS:  cpu time    0.0108: real time    0.0108
    --------------------------------------------
      LOOP:  cpu time    8.8128: real time    8.8236

 eigenvalue-minimisations  :  4906
 total energy-change (2. order) :-0.5718056E-03  (-0.5719617E-03)
 number of electron     390.9999966 magnetization 
 augmentation part      390.9999966 magnetization 

 Free energy of the ion-electron system (eV)
  ---------------------------------------------------
  alpha Z        PSCENC =       744.84518343
  Ewald energy   TEWEN  =     96439.40590376
  -Hartree energ DENC   =   -133672.07932182
  -exchange      EXHF   =         0.00000000
  -V(xc)+E(xc)   XCENC  =      -437.70503873
  PAW double counting   =     38712.21182269   -37119.68266977
  entropy T*S    EENTRO =         0.00000000
  eigenvalues    EBANDS =     -1273.34166653
  atomic energy  EATOM  =     36508.78945582
  Solvation  Ediel_sol  =         0.00000000
  ---------------------------------------------------
  free energy    TOTEN  =       -97.55633114 eV

  energy without entropy =      -97.55633114  energy(sigma->0) =      -97.55633114


--------------------------------------------------------------------------------------------------------




--------------------------------------- Iteration      1(   7)  ---------------------------------------


    EDDIAG:  cpu time    2.1169: real time    2.1427
  RMM-DIIS:  cpu time    9.0434: real time    9.0538
    ORTHCH:  cpu time    0.3715: real time    0.3716
 BZINTS: Fermi energy:    0.809134;  391.000000 electrons
         Band energy:-0.127334E+04;  BLOECHL correction:   -0.017312
       DOS:  cpu time    0.0124: real time    0.0124
    --------------------------------------------
      LOOP:  cpu time   11.5442: real time   11.5804

 eigenvalue-minimisations  :  6977
 total energy-change (2. order) :-0.1973383E-03  (-0.1973461E-03)
 number of electron     390.9999966 magnetization 
 augmentation part      390.9999966 magnetization 

 Free energy of the ion-electron system (eV)
  ---------------------------------------------------
  alpha Z        PSCENC =       744.84518343
  Ewald energy   TEWEN  =     96439.40590376
  -Hartree energ DENC   =   -133672.07932182
  -exchange      EXHF   =         0.00000000
  -V(xc)+E(xc)   XCENC  =      -437.70503873
  PAW double counting   =     38712.21182269   -37119.68266977
  entropy T*S    EENTRO =         0.00000000
  eigenvalues    EBANDS =     -1273.34186386
  atomic energy  EATOM  =     36508.78945582
  Solvation  Ediel_sol  =         0.00000000
  ---------------------------------------------------
  free energy    TOTEN  =       -97.55652848 eV

  energy without entropy =      -97.55652848  energy(sigma->0) =      -97.55652848


--------------------------------------------------------------------------------------------------------




--------------------------------------- Iteration      1(   8)  ---------------------------------------


    EDDIAG:  cpu time    2.1074: real time    2.1102
  RMM-DIIS:  cpu time    5.7727: real time    5.8223
    ORTHCH:  cpu time    0.4207: real time    0.4225
 BZINTS: Fermi energy:    0.809134;  391.000000 electrons
         Band energy:-0.127334E+04;  BLOECHL correction:   -0.017312
       DOS:  cpu time    0.0103: real time    0.0103
    --------------------------------------------
      LOOP:  cpu time    8.3111: real time    8.3652

 eigenvalue-minimisations  :  3989
 total energy-change (2. order) :-0.6476708E-05  (-0.6446880E-05)
 number of electron     390.9999966 magnetization 
 augmentation part      390.9999966 magnetization 

 Free energy of the ion-electron system (eV)
  ---------------------------------------------------
  alpha Z        PSCENC =       744.84518343
  Ewald energy   TEWEN  =     96439.40590376
  -Hartree energ DENC   =   -133672.07932182
  -exchange      EXHF   =         0.00000000
  -V(xc)+E(xc)   XCENC  =      -437.70503873
  PAW double counting   =     38712.21182269   -37119.68266977
  entropy T*S    EENTRO =         0.00000000
  eigenvalues    EBANDS =     -1273.34187034
  atomic energy  EATOM  =     36508.78945582
  Solvation  Ediel_sol  =         0.00000000
  ---------------------------------------------------
  free energy    TOTEN  =       -97.55653496 eV

  energy without entropy =      -97.55653496  energy(sigma->0) =      -97.55653496


--------------------------------------------------------------------------------------------------------




 average (electrostatic) potential at core
  the test charge radii are     1.1249  1.1823
  (the norm of the test charge is              1.0000)
       1 -78.0805       2 -78.0691       3 -78.0691       4 -78.0692       5 -78.0646
       6 -78.0689       7 -78.0691       8 -78.0689       9 -78.0798      10 -78.3112
      11 -78.2859      12 -78.3109      13 -78.2858      14 -78.2856      15 -78.2867
      16 -78.3109      17 -78.2867      18 -78.2866      19 -78.2797      20 -78.4294
      21 -78.4290      22 -78.2574      23 -78.4290      24 -78.2575      25 -78.2794
      26 -78.2798      27 -78.2575      28 -78.0747      29 -78.1338      30 -78.1336
      31 -78.1337      32 -78.1335      33 -78.1335      34 -78.1335      35 -78.0704
      36 -45.1667
 
 
 
 E-fermi :   0.8091     XC(G=0):  -5.9111     alpha+bet : -5.5680

 Fermi energy:         0.8091344360

 k-point     1 :       0.0000    0.0000    0.0000
  band No.  band energies     occupation 
      1      -6.3339      2.00000
      2      -5.4943      2.00000
      3      -5.2404      2.00000
      4      -5.0892      2.00000
      5      -5.0342      2.00000
      6      -5.0285      2.00000
      7      -5.0285      2.00000
      8      -5.0236      2.00000
      9      -5.0236      2.00000
     10      -5.0115      2.00000
     11      -4.9924      2.00000
     12      -4.9795      2.00000
     13      -4.9795      2.00000
     14      -4.9766      2.00000
     15      -4.9677      2.00000
     16      -4.9677      2.00000
     17      -4.8296      2.00000
     18      -4.8296      2.00000
     19      -4.8288      2.00000
     20      -4.8156      2.00000
     21      -4.7951      2.00000
     22      -4.7950      2.00000
     23      -4.6864      2.00000
     24      -4.6515      2.00000
     25      -4.6258      2.00000
     26      -4.6258      2.00000
     27      -4.6229      2.00000
     28      -4.6228      2.00000
     29      -4.5936      2.00000
     30      -4.5854      2.00000
     31      -4.5642      2.00000
     32      -4.5642      2.00000
     33      -4.5596      2.00000
     34      -4.5596      2.00000
     35      -4.5381      2.00000
     36      -4.4973      2.00000
     37      -4.4698      2.00000
     38      -4.4698      2.00000
     39      -4.4381      2.00000
     40      -4.4380      2.00000
     41      -4.2443      2.00000
     42      -4.2443      2.00000
     43      -4.2419      2.00000
     44      -4.2224      2.00000
     45      -4.2224      2.00000
     46      -4.2202      2.00000
     47      -4.2187      2.00000
     48      -4.2187      2.00000
     49      -4.2021      2.00000
     50      -4.2020      2.00000
     51      -4.0729      2.00000
     52      -4.0645      2.00000
     53      -4.0584      2.00000
     54      -4.0195      2.00000
     55      -3.8854      2.00000
     56      -3.8590      2.00000
     57      -3.8590      2.00000
     58      -3.8504      2.00000
     59      -3.8504      2.00000
     60      -3.8495      2.00000
     61      -3.8407      2.00000
     62      -3.8098      2.00000
     63      -3.8098      2.00000
     64      -3.7766      2.00000
     65      -3.7766      2.00000
     66      -3.6903      2.00000
     67      -3.6873      2.00000
     68      -3.6873      2.00000
     69      -3.6793      2.00000
     70      -3.6793      2.00000
     71      -3.6757      2.00000
     72      -3.6655      2.00000
     73      -3.6655      2.00000
     74      -3.6508      2.00000
     75      -3.6507      2.00000
     76      -3.6395      2.00000
     77      -3.6207      2.00000
     78      -3.6151      2.00000
     79      -3.6150      2.00000
     80      -3.5755      2.00000
     81      -3.5754      2.00000
     82      -3.5551      2.00000
     83      -3.5352      2.00000
     84      -3.5351      2.00000
     85      -3.4995      2.00000
     86      -3.4995      2.00000
     87      -3.4622      2.00000
     88      -3.4622      2.00000
     89      -3.4619      2.00000
     90      -3.4361      2.00000
     91      -3.4361      2.00000
     92      -3.4039      2.00000
     93      -3.4039      2.00000
     94      -3.3826      2.00000
     95      -3.3758      2.00000
     96      -3.3758      2.00000
     97      -3.3511      2.00000
     98      -3.3511      2.00000
     99      -3.1591      2.00000
    100      -3.1591      2.00000
    101      -3.1430      2.00000
    102      -3.1289      2.00000
    103      -3.1289      2.00000
    104      -3.1225      2.00000
    105      -3.1225      2.00000
    106      -3.0892      2.00000
    107      -3.0858      2.00000
    108      -3.0545      2.00000
    109      -3.0545      2.00000
    110      -3.0120      2.00000
    111      -3.0006      2.00000
    112      -2.9882      2.00000
    113      -2.9882      2.00000
    114      -2.9770      2.00000
    115      -2.8835      2.00000
    116      -2.8835      2.00000
    117      -2.8462      2.00000
    118      -2.8462      2.00000
    119      -2.8410      2.00000
    120      -2.8410      2.00000
    121      -2.7922      2.00000
    122      -2.7922      2.00000
    123      -2.7865      2.00000
    124      -2.7599      2.00000
    125      -2.7599      2.00000
    126      -2.7508      2.00000
    127      -2.7448      2.00000
    128      -2.7386      2.00000
    129      -2.7385      2.00000
    130      -2.7340      2.00000
    131      -2.7340      2.00000
    132      -2.7297      2.00000
    133      -2.6448      2.00000
    134      -2.6448      2.00000
    135      -2.5759      2.00000
    136      -2.5758      2.00000
    137      -2.5612      2.00000
    138      -2.5569      2.00000
    139      -2.5458      2.00000
    140      -2.5458      2.00000
    141      -2.5330      2.00000
    142      -2.5330      2.00000
    143      -2.5261      2.00000
    144      -2.5227      2.00000
    145      -2.4982      2.00000
    146      -2.4982      2.00000
    147      -2.4902      2.00000
    148      -2.4636      2.00000
    149      -2.4508      2.00000
    150      -2.4437      2.00000
    151      -2.4437      2.00000
    152      -2.4372      2.00000
    153      -2.4371      2.00000
    154      -2.4371      2.00000
    155      -2.4117      2.00000
    156      -2.4117      2.00000
    157      -2.3968      2.00000
    158      -2.3717      2.00000
    159      -2.3623      2.00000
    160      -2.3612      2.00000
    161      -2.3612      2.00000
    162      -2.3402      2.00000
    163      -2.3336      2.00000
    164      -2.3336      2.00000
    165      -2.3257      2.00000
    166      -2.3035      2.00000
    167      -2.3035      2.00000
    168      -2.2936      2.00000
    169      -2.2736      2.00000
    170      -2.2736      2.00000
    171      -2.2461      2.00000
    172      -2.2461      2.00000
    173      -2.1802      2.00000
    174      -2.1802      2.00000
    175      -2.1676      2.00000
    176      -2.1532      2.00000
    177      -2.1531      2.00000
    178      -2.1412      2.00000
    179      -2.1131      2.00000
    180      -2.0472      2.00000
    181      -2.0471      2.00000
    182      -2.0418      2.00000
    183      -2.0417      2.00000
    184      -2.0368      2.00000
    185      -1.3350      2.00000
    186      -1.3151      2.00000
    187      -1.3150      2.00000
    188      -1.2748      2.00000
    189      -1.2747      2.00000
    190      -1.2627      2.00000
    191      -0.1103      2.00000
    192       0.1088      2.00000
    193       0.1937      2.00000
    194       0.1938      2.00000
    195       0.3652      2.00000
    196       0.3652      2.00000
    197       0.4589      2.00000
    198       0.9109      0.00000
    199       0.9109      0.00000
    200       1.0685      0.00000
    201       1.0685      0.00000
    202       1.1305      0.00000
    203       1.3161      0.00000
    204       2.6645      0.00000
    205       2.7020      0.00000
    206       2.7021      0.00000
    207       2.8037      0.00000
    208       3.1110      0.00000
    209       3.1111      0.00000
    210       4.0534      0.00000
    211       4.1687      0.00000
    212       4.2751      0.00000
    213       4.2751      0.00000
    214       4.3450      0.00000
    215       4.3450      0.00000
    216       4.9702      0.00000
    217       5.0486      0.00000
    218       5.0486      0.00000
    219       5.0499      0.00000
    220       5.0682      0.00000
    221       5.0683      0.00000
    222       5.0911      0.00000
    223       5.1726      0.00000
    224       5.1973      0.00000
    225       5.1974      0.00000
    226       5.3076      0.00000
    227       5.4038      0.00000
    228       5.4039      0.00000
    229       5.4660      0.00000
    230       6.4934      0.00000
    231       6.6559      0.00000
    232       6.6797      0.00000
    233       6.6797      0.00000
    234       6.8116      0.00000
    235       6.8450      0.00000
    236       6.8451      0.00000
    237       6.8538      0.00000
    238       7.0115      0.00000
    239       7.0115      0.00000
    240       7.0203      0.00000
    241       7.0203      0.00000
    242       7.0475      0.00000
    243       7.1767      0.00000
    244       7.3305      0.00000
    245       7.3523      0.00000
    246       7.3528      0.00000
    247       7.4699      0.00000
    248       7.4713      0.00000
    249       7.5600      0.00000
    250       7.7367      0.00000
    251       7.7564      0.00000
    252       7.7571      0.00000

 k-point     2 :       0.1250   -0.0000    0.0000
  band No.  band energies     occupation 
      1      -6.2881      2.00000
      2      -5.4540      2.00000
      3      -5.2168      2.00000
      4      -5.0870      2.00000
      5      -5.0782      2.00000
      6      -5.0397      2.00000
      7      -5.0260      2.00000
      8      -5.0240      2.00000
      9      -5.0099      2.00000
     10      -5.0036      2.00000
     11      -4.9908      2.00000
     12      -4.9726      2.00000
     13      -4.9718      2.00000
     14      -4.9244      2.00000
     15      -4.9092      2.00000
     16      -4.9081      2.00000
     17      -4.8941      2.00000
     18      -4.8610      2.00000
     19      -4.8609      2.00000
     20      -4.7709      2.00000
     21      -4.7489      2.00000
     22      -4.7172      2.00000
     23      -4.7049      2.00000
     24      -4.6808      2.00000
     25      -4.6791      2.00000
     26      -4.6598      2.00000
     27      -4.6400      2.00000
     28      -4.5998      2.00000
     29      -4.5829      2.00000
     30      -4.5812      2.00000
     31      -4.5587      2.00000
     32      -4.5559      2.00000
     33      -4.5471      2.00000
     34      -4.5074      2.00000
     35      -4.4780      2.00000
     36      -4.4734      2.00000
     37      -4.4721      2.00000
     38      -4.4288      2.00000
     39      -4.3812      2.00000
     40      -4.3798      2.00000
     41      -4.3026      2.00000
     42      -4.3001      2.00000
     43      -4.2935      2.00000
     44      -4.2664      2.00000
     45      -4.2607      2.00000
     46      -4.2546      2.00000
     47      -4.2399      2.00000
     48      -4.1890      2.00000
     49      -4.1806      2.00000
     50      -4.1457      2.00000
     51      -4.0721      2.00000
     52      -4.0544      2.00000
     53      -4.0308      2.00000
     54      -4.0237      2.00000
     55      -3.9006      2.00000
     56      -3.8879      2.00000
     57      -3.8770      2.00000
     58      -3.8635      2.00000
     59      -3.8508      2.00000
     60      -3.8438      2.00000
     61      -3.8373      2.00000
     62      -3.8258      2.00000
     63      -3.8137      2.00000
     64      -3.7919      2.00000
     65      -3.7607      2.00000
     66      -3.7476      2.00000
     67      -3.7157      2.00000
     68      -3.7132      2.00000
     69      -3.7126      2.00000
     70      -3.7023      2.00000
     71      -3.6665      2.00000
     72      -3.6618      2.00000
     73      -3.6606      2.00000
     74      -3.6532      2.00000
     75      -3.6357      2.00000
     76      -3.6337      2.00000
     77      -3.6204      2.00000
     78      -3.6128      2.00000
     79      -3.6092      2.00000
     80      -3.5732      2.00000
     81      -3.5658      2.00000
     82      -3.5613      2.00000
     83      -3.5570      2.00000
     84      -3.5531      2.00000
     85      -3.5402      2.00000
     86      -3.5311      2.00000
     87      -3.5195      2.00000
     88      -3.5139      2.00000
     89      -3.4944      2.00000
     90      -3.4503      2.00000
     91      -3.4423      2.00000
     92      -3.4080      2.00000
     93      -3.4075      2.00000
     94      -3.3787      2.00000
     95      -3.3663      2.00000
     96      -3.2802      2.00000
     97      -3.2486      2.00000
     98      -3.2485      2.00000
     99      -3.2081      2.00000
    100      -3.1974      2.00000
    101      -3.1757      2.00000
    102      -3.1647      2.00000
    103      -3.1460      2.00000
    104      -3.1416      2.00000
    105      -3.1285      2.00000
    106      -3.1111      2.00000
    107      -3.1051      2.00000
    108      -3.0591      2.00000
    109      -3.0536      2.00000
    110      -3.0280      2.00000
    111      -3.0236      2.00000
    112      -2.9802      2.00000
    113      -2.9738      2.00000
    114      -2.9638      2.00000
    115      -2.9271      2.00000
    116      -2.9134      2.00000
    117      -2.9107      2.00000
    118      -2.8898      2.00000
    119      -2.8889      2.00000
    120      -2.8782      2.00000
    121      -2.8474      2.00000
    122      -2.8302      2.00000
    123      -2.8226      2.00000
    124      -2.8167      2.00000
    125      -2.8132      2.00000
    126      -2.7998      2.00000
    127      -2.7755      2.00000
    128      -2.7699      2.00000
    129      -2.7543      2.00000
    130      -2.7359      2.00000
    131      -2.7306      2.00000
    132      -2.7164      2.00000
    133      -2.7130      2.00000
    134      -2.6856      2.00000
    135      -2.6734      2.00000
    136      -2.6434      2.00000
    137      -2.6358      2.00000
    138      -2.6264      2.00000
    139      -2.5979      2.00000
    140      -2.5867      2.00000
    141      -2.5741      2.00000
    142      -2.5549      2.00000
    143      -2.5432      2.00000
    144      -2.5351      2.00000
    145      -2.5335      2.00000
    146      -2.5156      2.00000
    147      -2.4917      2.00000
    148      -2.4736      2.00000
    149      -2.4730      2.00000
    150      -2.4669      2.00000
    151      -2.4570      2.00000
    152      -2.4497      2.00000
    153      -2.4459      2.00000
    154      -2.4287      2.00000
    155      -2.4283      2.00000
    156      -2.4165      2.00000
    157      -2.4133      2.00000
    158      -2.3948      2.00000
    159      -2.3876      2.00000
    160      -2.3680      2.00000
    161      -2.3653      2.00000
    162      -2.3537      2.00000
    163      -2.3416      2.00000
    164      -2.3088      2.00000
    165      -2.3069      2.00000
    166      -2.2973      2.00000
    167      -2.2839      2.00000
    168      -2.2718      2.00000
    169      -2.2575      2.00000
    170      -2.2448      2.00000
    171      -2.2155      2.00000
    172      -2.2060      2.00000
    173      -2.2018      2.00000
    174      -2.1823      2.00000
    175      -2.1785      2.00000
    176      -2.1762      2.00000
    177      -2.1490      2.00000
    178      -2.1447      2.00000
    179      -2.1393      2.00000
    180      -2.1153      2.00000
    181      -2.1104      2.00000
    182      -1.8549      2.00000
    183      -1.6097      2.00000
    184      -1.6024      2.00000
    185      -1.5407      2.00000
    186      -1.5033      2.00000
    187      -1.3414      2.00000
    188      -0.9043      2.00000
    189      -0.8551      2.00000
    190      -0.5797      2.00000
    191      -0.2418      2.00000
    192      -0.0543      2.00000
    193       0.0671      2.00000
    194       0.0826      2.00000
    195       0.4798      2.00000
    196       0.4861      2.00000
    197       0.7604      2.13126
    198       0.9257      0.00000
    199       0.9637      0.00000
    200       1.1178      0.00000
    201       1.1695      0.00000
    202       1.3089      0.00000
    203       1.4085      0.00000
    204       2.2762      0.00000
    205       2.5682      0.00000
    206       2.6547      0.00000
    207       3.0838      0.00000
    208       3.2062      0.00000
    209       3.2686      0.00000
    210       3.2871      0.00000
    211       3.4454      0.00000
    212       4.1274      0.00000
    213       4.1486      0.00000
    214       4.3775      0.00000
    215       4.4004      0.00000
    216       4.4719      0.00000
    217       4.8079      0.00000
    218       4.8682      0.00000
    219       5.0133      0.00000
    220       5.1173      0.00000
    221       5.1352      0.00000
    222       5.1989      0.00000
    223       5.2956      0.00000
    224       5.3535      0.00000
    225       5.4614      0.00000
    226       5.4719      0.00000
    227       5.6098      0.00000
    228       5.7669      0.00000
    229       5.8232      0.00000
    230       6.2332      0.00000
    231       6.4485      0.00000
    232       6.4793      0.00000
    233       6.5340      0.00000
    234       6.5864      0.00000
    235       6.6766      0.00000
    236       6.7166      0.00000
    237       6.7189      0.00000
    238       6.8269      0.00000
    239       6.8565      0.00000
    240       6.8808      0.00000
    241       6.9550      0.00000
    242       7.0986      0.00000
    243       7.1654      0.00000
    244       7.3197      0.00000
    245       7.3382      0.00000
    246       7.3655      0.00000
    247       7.4125      0.00000
    248       7.4198      0.00000
    249       7.4843      0.00000
    250       7.7786      0.00000
    251       7.8127      0.00000
    252       7.8526      0.00000

 k-point     3 :       0.2500   -0.0000    0.0000
  band No.  band energies     occupation 
      1      -6.1534      2.00000
      2      -5.3449      2.00000
      3      -5.1821      2.00000
      4      -5.1539      2.00000
      5      -5.1044      2.00000
      6      -5.0720      2.00000
      7      -5.0160      2.00000
      8      -4.9951      2.00000
      9      -4.9874      2.00000
     10      -4.9730      2.00000
     11      -4.9612      2.00000
     12      -4.9279      2.00000
     13      -4.9143      2.00000
     14      -4.8941      2.00000
     15      -4.8821      2.00000
     16      -4.8775      2.00000
     17      -4.8275      2.00000
     18      -4.7948      2.00000
     19      -4.7881      2.00000
     20      -4.7736      2.00000
     21      -4.7735      2.00000
     22      -4.7590      2.00000
     23      -4.7075      2.00000
     24      -4.6743      2.00000
     25      -4.6532      2.00000
     26      -4.6279      2.00000
     27      -4.6258      2.00000
     28      -4.6230      2.00000
     29      -4.6085      2.00000
     30      -4.6080      2.00000
     31      -4.5044      2.00000
     32      -4.4954      2.00000
     33      -4.4815      2.00000
     34      -4.4783      2.00000
     35      -4.4575      2.00000
     36      -4.4471      2.00000
     37      -4.4386      2.00000
     38      -4.3597      2.00000
     39      -4.3415      2.00000
     40      -4.3322      2.00000
     41      -4.3230      2.00000
     42      -4.3063      2.00000
     43      -4.2970      2.00000
     44      -4.2924      2.00000
     45      -4.2823      2.00000
     46      -4.2722      2.00000
     47      -4.2655      2.00000
     48      -4.1787      2.00000
     49      -4.1675      2.00000
     50      -4.1266      2.00000
     51      -4.1079      2.00000
     52      -4.0865      2.00000
     53      -4.0373      2.00000
     54      -4.0296      2.00000
     55      -3.9561      2.00000
     56      -3.9334      2.00000
     57      -3.9277      2.00000
     58      -3.9151      2.00000
     59      -3.9065      2.00000
     60      -3.8885      2.00000
     61      -3.8734      2.00000
     62      -3.8639      2.00000
     63      -3.8424      2.00000
     64      -3.8089      2.00000
     65      -3.7867      2.00000
     66      -3.7755      2.00000
     67      -3.7526      2.00000
     68      -3.7489      2.00000
     69      -3.7403      2.00000
     70      -3.7389      2.00000
     71      -3.7135      2.00000
     72      -3.7057      2.00000
     73      -3.7049      2.00000
     74      -3.6686      2.00000
     75      -3.6493      2.00000
     76      -3.6335      2.00000
     77      -3.6227      2.00000
     78      -3.6185      2.00000
     79      -3.6156      2.00000
     80      -3.5990      2.00000
     81      -3.5829      2.00000
     82      -3.5748      2.00000
     83      -3.5610      2.00000
     84      -3.5474      2.00000
     85      -3.5469      2.00000
     86      -3.5286      2.00000
     87      -3.5249      2.00000
     88      -3.5065      2.00000
     89      -3.4676      2.00000
     90      -3.4471      2.00000
     91      -3.4224      2.00000
     92      -3.4015      2.00000
     93      -3.4006      2.00000
     94      -3.3973      2.00000
     95      -3.3552      2.00000
     96      -3.3267      2.00000
     97      -3.3109      2.00000
     98      -3.2999      2.00000
     99      -3.2273      2.00000
    100      -3.2237      2.00000
    101      -3.1863      2.00000
    102      -3.1848      2.00000
    103      -3.1733      2.00000
    104      -3.1607      2.00000
    105      -3.1386      2.00000
    106      -3.1282      2.00000
    107      -3.1254      2.00000
    108      -3.1153      2.00000
    109      -3.1107      2.00000
    110      -3.0927      2.00000
    111      -3.0597      2.00000
    112      -3.0529      2.00000
    113      -3.0456      2.00000
    114      -3.0454      2.00000
    115      -3.0169      2.00000
[...]
  0.000   0.000   0.000   2.000   0.000   0.000   0.000   0.000   0.000   0.000   0.000   0.000   0.000   0.000   0.000   0.000
  0.000   0.000   0.000   0.000   2.000   0.000   0.000   0.000   0.000   0.000   0.000   0.000   0.000   0.000   0.000   0.000
  0.000   0.000   0.000   0.000   0.000   0.000   0.000   0.000   0.000   0.000   0.000   0.000   0.000   0.000   0.000   0.000
  0.000   0.000   0.000   0.000   0.000   0.000   0.000   0.000   0.000   0.000   0.000   0.000   0.000   0.000   0.000   0.000
  0.000   0.000   0.000   0.000   0.000   0.000   0.000   0.000   0.000   0.000   0.000   0.000   0.000   0.000   0.000   0.000
  0.000   0.000   0.000   0.000   0.000   0.000   0.000   0.000   0.000   0.000   0.000   0.000   0.000   0.000   0.000   0.000
  0.000   0.000   0.000   0.000   0.000   0.000   0.000   0.000   0.000   0.000   0.000   0.000   0.000   0.000   0.000   0.000
  0.000   0.000   0.000   0.000   0.000   0.000   0.000   0.000   0.000   0.000   1.000   0.000   0.000   0.000   0.000   0.000
  0.000   0.000   0.000   0.000   0.000   0.000   0.000   0.000   0.000   0.000   0.000   0.000   0.000   0.000   0.000   0.000
  0.000   0.000   0.000   0.000   0.000   0.000   0.000   0.000   0.000   0.000   0.000   0.000   0.000   0.000   0.000   0.000
  0.000   0.000   0.000   0.000   0.000   0.000   0.000   0.000   0.000   0.000   0.000   0.000   0.000   0.000   0.000   0.000
  0.000   0.000   0.000   0.000   0.000   0.000   0.000   0.000   0.000   0.000   0.000   0.000   0.000   0.000   0.000   0.000
  0.000   0.000   0.000   0.000   0.000   0.000   0.000   0.000   0.000   0.000   0.000   0.000   0.000   0.000   0.000   0.000
  0.000   0.000   0.000   0.000   0.000   0.000   0.000   0.000   0.000   0.000   0.000   0.000   0.000   0.000   0.000   0.000
  0.000   0.000   0.000   0.000   0.000   0.000   0.000   0.000   0.000   0.000   0.000   0.000   0.000   0.000   0.000   0.000


------------------------ aborting loop because EDIFF is reached ----------------------------------------





 total charge

# of ion       s       p       d       tot
------------------------------------------
    1        0.421   0.201   9.177   9.800
    2        0.415   0.204   9.178   9.796
    3        0.415   0.204   9.178   9.796
    4        0.415   0.204   9.178   9.796
    5        0.420   0.201   9.175   9.796
    6        0.415   0.204   9.178   9.796
    7        0.415   0.204   9.178   9.796
    8        0.415   0.204   9.178   9.796
    9        0.418   0.201   9.178   9.797
   10        0.411   0.269   9.160   9.841
   11        0.406   0.267   9.170   9.843
   12        0.411   0.269   9.160   9.841
   13        0.406   0.267   9.170   9.843
   14        0.406   0.267   9.170   9.843
   15        0.405   0.267   9.165   9.837
   16        0.411   0.269   9.160   9.841
   17        0.405   0.267   9.165   9.837
   18        0.405   0.267   9.165   9.837
   19        0.399   0.264   9.166   9.829
   20        0.441   0.314   9.127   9.882
   21        0.441   0.314   9.127   9.882
   22        0.393   0.270   9.169   9.832
   23        0.441   0.314   9.127   9.882
   24        0.393   0.270   9.169   9.832
   25        0.399   0.264   9.166   9.829
   26        0.399   0.264   9.166   9.829
   27        0.393   0.270   9.169   9.832
   28        0.409   0.198   9.175   9.781
   29        0.439   0.222   9.149   9.810
   30        0.439   0.222   9.149   9.810
   31        0.439   0.222   9.149   9.810
   32        0.439   0.222   9.149   9.810
   33        0.439   0.222   9.149   9.810
   34        0.439   0.222   9.149   9.810
   35        0.401   0.199   9.178   9.778
   36        0.597   0.309   3.812   4.717
--------------------------------------------------
tot         15.151   8.815 324.532 348.498
 
    CHARGE:  cpu time    0.5610: real time    0.5655
    FORLOC:  cpu time    0.0201: real time    0.0201
    FORNL :  cpu time    2.7028: real time    2.7132
    STRESS:  cpu time    8.0273: real time    8.0465
    FORCOR:  cpu time    0.0563: real time    0.0564
    FORHAR:  cpu time    0.0197: real time    0.0199
    OFIELD:  cpu time    0.0004: real time    0.0004

  FORCE on cell =-STRESS in cart. coord.  units (eV):
  Direction    XX          YY          ZZ          XY          YZ          ZX
  --------------------------------------------------------------------------------------
  Alpha Z   744.84518   744.84518   744.84518
  Ewald  118889.78765118889.78755************    -0.00001    -0.00001    -0.00002
  Hartree128907.26443128907.26438************    -0.00001    -0.00000    -0.00001
  E(xc)   -2053.89191 -2053.89190 -2060.09995    -0.00001     0.00000     0.00000
  Local  ************************259013.89183     0.00021    -0.00002    -0.00003
  n-local  -338.69722  -319.02754  -333.79387    11.11921    -0.41914     0.44456
  augment  3223.48704  3223.48718  3237.48342    -0.00010     0.00004     0.00005
  Kinetic  4833.88255  4838.10148  4875.52516     4.19573     0.58542     0.01019
  Fock        0.00000     0.00000     0.00000     0.00000     0.00000     0.00000
  -------------------------------------------------------------------------------------
  Total     -10.49297   -10.49297     0.14817    -0.00000     0.00000     0.00000
  in kB     -11.32506   -11.32506     0.15992    -0.00000     0.00000     0.00000
  external pressure =       -7.50 kB  Pullay stress =        0.00 kB


 VOLUME and BASIS-vectors are now :
 -----------------------------------------------------------------------------
  energy-cutoff  :      500.00
  volume of cell :     1484.46
      direct lattice vectors                 reciprocal lattice vectors
     8.791366577  0.000000000  0.000000000     0.113747958 -0.065672414  0.000000000
     4.395683289  7.613546790  0.000000000     0.000000000  0.131344829  0.000000000
     0.000000000  0.000000000 22.178121567     0.000000000  0.000000000  0.045089481

  length of vectors
     8.791366577  8.791366577 22.178121567     0.131344829  0.131344829  0.045089481


 FORCES acting on ions
    electron-ion (+dipol)            ewald-force                    non-local-force                 convergence-correction
 -----------------------------------------------------------------------------------------------
   0.462E-04 -.281E-04 0.248E+04   -.953E-04 0.593E-04 -.247E+04   0.310E-17 -.809E-19 -.199E+01   -.203E-03 -.221E-03 0.702E-01
   -.179E+00 0.345E-01 0.248E+04   -.156E+00 -.211E+00 -.247E+04   0.158E+00 0.163E+00 -.155E+01   0.163E+00 0.107E-01 0.713E-01
   0.179E+00 0.345E-01 0.248E+04   0.156E+00 -.211E+00 -.247E+04   -.158E+00 0.163E+00 -.155E+01   -.163E+00 0.126E-01 0.722E-01
   -.594E-01 -.172E+00 0.248E+04   -.260E+00 -.293E-01 -.247E+04   0.221E+00 0.556E-01 -.155E+01   0.908E-01 0.136E+00 0.713E-01
   -.776E-05 -.200E-04 0.248E+04   0.980E-04 -.197E-05 -.247E+04   0.214E-17 0.217E-17 -.116E+01   0.626E-02 0.383E-02 0.221E+00
   0.594E-01 -.172E+00 0.248E+04   0.260E+00 -.294E-01 -.247E+04   -.221E+00 0.556E-01 -.155E+01   -.922E-01 0.136E+00 0.722E-01
   0.119E+00 0.137E+00 0.248E+04   -.105E+00 0.240E+00 -.247E+04   0.621E-01 -.219E+00 -.155E+01   -.702E-01 -.147E+00 0.722E-01
   -.119E+00 0.137E+00 0.248E+04   0.105E+00 0.240E+00 -.247E+04   -.621E-01 -.219E+00 -.155E+01   0.717E-01 -.148E+00 0.722E-01
   0.364E-04 -.131E-04 0.248E+04   0.792E-04 -.643E-04 -.247E+04   -.352E-17 -.106E-17 -.171E+01   -.658E-02 -.339E-02 0.255E-01
   0.342E+01 0.198E+01 0.797E+03   -.303E+01 -.175E+01 -.796E+03   -.466E+00 -.269E+00 -.898E+00   0.656E-01 0.379E-01 0.108E+00
   -.282E-04 0.192E+01 0.796E+03   0.402E-04 -.217E+01 -.796E+03   0.757E-12 0.115E+00 -.136E+00   0.687E-02 0.911E-01 0.103E+00
   -.342E+01 0.198E+01 0.797E+03   0.302E+01 -.175E+01 -.796E+03   0.466E+00 -.269E+00 -.898E+00   -.677E-01 0.387E-01 0.109E+00
   0.166E+01 -.958E+00 0.796E+03   -.188E+01 0.109E+01 -.796E+03   0.998E-01 -.576E-01 -.136E+00   0.822E-01 -.396E-01 0.103E+00
   -.166E+01 -.958E+00 0.796E+03   0.188E+01 0.109E+01 -.796E+03   -.998E-01 -.576E-01 -.136E+00   -.717E-01 -.411E-01 0.102E+00
   0.155E-04 0.785E+00 0.796E+03   -.108E-03 -.101E+01 -.795E+03   0.793E-12 0.121E+00 -.755E+00   -.173E-02 0.726E-01 0.791E-01
   -.817E-05 -.395E+01 0.797E+03   0.205E-04 0.349E+01 -.796E+03   0.353E-11 0.538E+00 -.898E+00   -.373E-03 -.781E-01 0.109E+00
   0.680E+00 -.392E+00 0.796E+03   -.871E+00 0.503E+00 -.795E+03   0.105E+00 -.604E-01 -.755E+00   0.620E-01 -.378E-01 0.791E-01
   -.680E+00 -.393E+00 0.796E+03   0.871E+00 0.503E+00 -.795E+03   -.105E+00 -.604E-01 -.755E+00   -.613E-01 -.355E-01 0.813E-01
   0.383E-04 -.381E+01 -.902E+03   -.126E-03 0.369E+01 0.901E+03   0.563E-12 0.857E-01 0.759E+00   -.649E-02 0.371E-01 0.346E+00
   -.170E+02 -.983E+01 -.900E+03   0.184E+02 0.106E+02 0.901E+03   -.139E+01 -.805E+00 -.139E+01   0.578E-01 0.337E-01 0.303E+00
   0.170E+02 -.983E+01 -.900E+03   -.184E+02 0.106E+02 0.901E+03   0.139E+01 -.805E+00 -.139E+01   -.564E-01 0.317E-01 0.303E+00
   -.125E+02 0.723E+01 -.896E+03   0.121E+02 -.698E+01 0.896E+03   0.347E+00 -.201E+00 0.366E+00   0.793E-01 -.366E-01 0.252E+00
   -.507E-04 0.197E+02 -.900E+03   0.380E-04 -.212E+02 0.901E+03   0.106E-10 0.161E+01 -.139E+01   -.658E-03 -.643E-01 0.303E+00
   0.125E+02 0.723E+01 -.896E+03   -.121E+02 -.698E+01 0.896E+03   -.347E+00 -.201E+00 0.366E+00   -.682E-01 -.394E-01 0.251E+00
   0.330E+01 0.191E+01 -.902E+03   -.320E+01 -.184E+01 0.901E+03   -.742E-01 -.428E-01 0.759E+00   -.411E-01 -.237E-01 0.346E+00
   -.330E+01 0.191E+01 -.902E+03   0.320E+01 -.184E+01 0.901E+03   0.742E-01 -.428E-01 0.759E+00   0.285E-01 -.242E-01 0.346E+00
   0.199E-04 -.145E+02 -.896E+03   0.109E-03 0.140E+02 0.896E+03   0.263E-11 0.401E+00 0.366E+00   0.732E-02 0.867E-01 0.251E+00
   0.531E-04 -.358E-04 -.249E+04   -.112E-03 0.761E-04 0.249E+04   0.572E-17 -.115E-16 0.175E+01   -.439E-03 0.372E-03 0.164E+00
   -.163E+02 -.293E+02 -.251E+04   0.175E+02 0.311E+02 0.251E+04   -.122E+01 -.185E+01 0.100E+01   0.771E-01 0.838E-01 0.199E+00
   0.163E+02 -.293E+02 -.251E+04   -.175E+02 0.311E+02 0.251E+04   0.122E+01 -.185E+01 0.100E+01   -.767E-01 0.846E-01 0.198E+00
   -.336E+02 0.537E+00 -.251E+04   0.357E+02 -.435E+00 0.251E+04   -.221E+01 -.129E+00 0.100E+01   0.112E+00 0.262E-01 0.199E+00
   0.336E+02 0.537E+00 -.251E+04   -.357E+02 -.435E+00 0.251E+04   0.221E+01 -.129E+00 0.100E+01   -.123E+00 0.255E-01 0.199E+00
   -.173E+02 0.288E+02 -.251E+04   0.182E+02 -.307E+02 0.251E+04   -.992E+00 0.198E+01 0.100E+01   0.293E-01 -.118E+00 0.198E+00
   0.173E+02 0.288E+02 -.251E+04   -.182E+02 -.307E+02 0.251E+04   0.992E+00 0.198E+01 0.100E+01   -.391E-01 -.119E+00 0.199E+00
   0.266E-04 -.143E-04 -.249E+04   0.103E-03 -.644E-04 0.249E+04   -.257E-17 0.269E-17 0.209E+01   -.476E-02 -.308E-02 0.251E+00
   -.265E-04 -.402E-05 -.131E+04   0.578E-04 0.738E-05 0.131E+04   -.878E-17 0.535E-17 0.292E+01   0.112E-02 0.102E-02 0.165E+00
 -----------------------------------------------------------------------------------------------
   0.293E-03 -.705E-03 0.154E+01   -.292E-13 0.147E-12 0.546E-11   0.544E-15 -.436E-15 -.755E+01   -.113E-01 -.896E-02 0.609E+01
 
 
 POSITION                                       TOTAL-FORCE (eV/Angst)
 -----------------------------------------------------------------------------------
      0.00000      0.00000      5.28219         0.000000     -0.000000     -0.058801
      2.93046      0.00000      5.28219        -0.012478     -0.001227      0.021730
      5.86091      0.00000      5.28219         0.012478     -0.001227      0.021730
      1.46523      2.53785      5.28219        -0.007301     -0.010192      0.021730
      4.39568      2.53785      5.28219        -0.000000     -0.000000     -0.007140
      7.32614      2.53785      5.28219         0.007301     -0.010192      0.021730
      2.93046      5.07570      5.28219         0.005176      0.011419      0.021730
      5.86091      5.07570      5.28219        -0.005176      0.011419      0.021730
      8.79137      5.07570      5.28219         0.000000     -0.000000      0.001860
      1.46523      0.84595      7.67490        -0.002111     -0.001219     -0.008733
      4.39568      0.84595      7.67490        -0.000000     -0.052351     -0.070089
      7.32614      0.84595      7.67490         0.002111     -0.001219     -0.008733
      2.93046      3.38380      7.67490        -0.045337      0.026176     -0.070089
      5.86091      3.38380      7.67490         0.045337      0.026176     -0.070089
      8.79137      3.38380      7.67490        -0.000000     -0.028012      0.019889
      4.39568      5.92165      7.67490         0.000000      0.002437     -0.008733
      7.32614      5.92165      7.67490        -0.024259      0.014006      0.019889
     10.25659      5.92165      7.67490         0.024259      0.014006      0.019889
      8.79137      1.69504     10.07204         0.000000      0.004691      0.002324
      2.92602      1.68934     10.02478        -0.004458     -0.002574      0.011418
      5.86534      1.68934     10.02478         0.004458     -0.002574      0.011418
     10.25093      4.23302     10.06482         0.001786     -0.001031     -0.008667
      4.39568      4.23487     10.02478         0.000000      0.005148      0.011418
      7.33181      4.23302     10.06482        -0.001786     -0.001031     -0.008667
     11.71910      6.76603     10.07204        -0.004062     -0.002345      0.002324
      5.86363      6.76603     10.07204         0.004062     -0.002345      0.002324
      8.79137      6.76105     10.06482         0.000000      0.002062     -0.008667
      0.00000      0.00000     12.45341         0.000000     -0.000000      0.014888
      2.96185      0.05622     12.48740        -0.004005     -0.006798      0.010909
      5.82952      0.05622     12.48740         0.004005     -0.006798      0.010909
      1.52961      2.53693     12.48740        -0.007890     -0.000069      0.010909
      7.26176      2.53693     12.48740         0.007890     -0.000069      0.010909
      2.96344      5.02040     12.48740        -0.003885      0.006867      0.010909
      5.82792      5.02040     12.48740         0.003885      0.006867      0.010909
      8.79137      5.07570     12.44798         0.000000     -0.000000      0.012405
      4.39568      2.53785     12.20252         0.000000     -0.000000      0.002531
 -----------------------------------------------------------------------------------
    total drift:                               -0.011001     -0.009663      0.076573


--------------------------------------------------------------------------------------------------------



  FREE ENERGIE OF THE ION-ELECTRON SYSTEM (eV)
  ---------------------------------------------------
  free  energy   TOTEN  =       -97.55653496 eV

  energy  without entropy=      -97.55653496  energy(sigma->0) =      -97.55653496
 


--------------------------------------------------------------------------------------------------------


    POTLOK:  cpu time    0.0794: real time    0.0794


--------------------------------------------------------------------------------------------------------


 stress matrix after NEB project (eV)
    -10.49297     -0.00000      0.00000
     -0.00000    -10.49297     -0.00000
      0.00000      0.00000      0.14817
  FORCES: max atom, RMS     0.014888    0.007924
  FORCE total and by dimension    0.047544    0.014888
  Stress total and by dimension   14.840034   10.492966
     LOOP+:  cpu time   97.9454: real time   98.3347
 -----------------------------------------------------------------------------
|                                                                             |
|           W    W    AA    RRRRR   N    N  II  N    N   GGGG   !!!           |
|           W    W   A  A   R    R  NN   N  II  NN   N  G    G  !!!           |
|           W    W  A    A  R    R  N N  N  II  N N  N  G       !!!           |
|           W WW W  AAAAAA  RRRRR   N  N N  II  N  N N  G  GGG   !            |
|           WW  WW  A    A  R   R   N   NN  II  N   NN  G    G                |
|           W    W  A    A  R    R  N    N  II  N    N   GGGG   !!!           |
|                                                                             |
|     Tetrahedron method does not include variations of the Fermi             |
|     occupations, so forces and stress will be inaccurate. We suggest        |
|     using a different smearing scheme ISMEAR = 1 or 2 for metals in         |
|     relaxations.                                                            |
|                                                                             |
 -----------------------------------------------------------------------------

    4ORBIT:  cpu time    0.0000: real time    0.0000



 total charge

# of ion       s       p       d       tot
------------------------------------------
    1        0.421   0.201   9.177   9.800
    2        0.415   0.204   9.178   9.796
    3        0.415   0.204   9.178   9.796
    4        0.415   0.204   9.178   9.796
    5        0.420   0.201   9.175   9.796
    6        0.415   0.204   9.178   9.796
    7        0.415   0.204   9.178   9.796
    8        0.415   0.204   9.178   9.796
    9        0.418   0.201   9.178   9.797
   10        0.411   0.269   9.160   9.841
   11        0.406   0.267   9.170   9.843
   12        0.411   0.269   9.160   9.841
   13        0.406   0.267   9.170   9.843
   14        0.406   0.267   9.170   9.843
   15        0.405   0.267   9.165   9.837
   16        0.411   0.269   9.160   9.841
   17        0.405   0.267   9.165   9.837
   18        0.405   0.267   9.165   9.837
   19        0.399   0.264   9.166   9.829
   20        0.441   0.314   9.127   9.882
   21        0.441   0.314   9.127   9.882
   22        0.393   0.270   9.169   9.832
   23        0.441   0.314   9.127   9.882
   24        0.393   0.270   9.169   9.832
   25        0.399   0.264   9.166   9.829
   26        0.399   0.264   9.166   9.829
   27        0.393   0.270   9.169   9.832
   28        0.409   0.198   9.175   9.781
   29        0.439   0.222   9.149   9.810
   30        0.439   0.222   9.149   9.810
   31        0.439   0.222   9.149   9.810
   32        0.439   0.222   9.149   9.810
   33        0.439   0.222   9.149   9.810
   34        0.439   0.222   9.149   9.810
   35        0.401   0.199   9.178   9.778
   36        0.597   0.309   3.812   4.717
--------------------------------------------------
tot         15.151   8.815 324.532 348.498
 
 BZINTS: Fermi energy:    0.809134;  391.000000 electrons
         Band energy:-0.127334E+04;  BLOECHL correction:   -0.017312

 total amount of memory used by VASP MPI-rank0   122579. kBytes
=======================================================================

   base      :      30000. kBytes
   nonlr-proj:      15273. kBytes
   fftplans  :       4330. kBytes
   grid      :      17098. kBytes
   one-center:        559. kBytes
   wavefun   :      55319. kBytes
 
  
  
 General timing and accounting informations for this job:
 ========================================================
  
                  Total CPU time used (sec):      106.270
                            User time (sec):      102.977
                          System time (sec):        3.293
                         Elapsed time (sec):      107.183
  
                   Maximum memory used (kb):      378508.
                   Average memory used (kb):          N/A
  
                          Minor page faults:        70756
                          Major page faults:            0
                 Voluntary context switches:         5258
