PROCAR new format
# of k-points:   10         # of bands:  252         # of ions:   36

 k-point     1 :    0.00000000 0.00000000 0.00000000     weight = 0.01562500

band     1 # energy   -6.33394680 # occ.  2.00000000
 
ion      s      p      d    tot
    1  0.006  0.001  0.000  0.006
    2  0.005  0.001  0.000  0.006
    3  0.005  0.001  0.000  0.006
    4  0.005  0.001  0.000  0.006
    5  0.005  0.001  0.000  0.006
    6  0.005  0.001  0.000  0.006
    7  0.005  0.001  0.000  0.006
    8  0.005  0.001  0.000  0.006
    9  0.005  0.001  0.000  0.006
   10  0.022  0.000  0.000  0.022
   11  0.022  0.000  0.000  0.023
   12  0.022  0.000  0.000  0.022
   13  0.022  0.000  0.000  0.023
   14  0.022  0.000  0.000  0.023
   15  0.021  0.000  0.000  0.021
   16  0.022  0.000  0.000  0.022
   17  0.021  0.000  0.000  0.021
   18  0.021  0.000  0.000  0.021
   19  0.021  0.000  0.000  0.022
   20  0.027  0.000  0.000  0.028
   21  0.027  0.000  0.000  0.028
   22  0.022  0.000  0.000  0.022
   23  0.027  0.000  0.000  0.028
   24  0.022  0.000  0.000  0.022
   25  0.021  0.000  0.000  0.022
   26  0.021  0.000  0.000  0.022
   27  0.022  0.000  0.000  0.022
   28  0.006  0.001  0.000  0.006
   29  0.007  0.001  0.000  0.008
   30  0.007  0.001  0.000  0.008
   31  0.007  0.001  0.000  0.008
   32  0.007  0.001  0.000  0.008
   33  0.007  0.001  0.000  0.008
   34  0.007  0.001  0.000  0.008
   35  0.006  0.001  0.000  0.006
   36  0.022  0.001  0.000  0.023
tot    0.529  0.013  0.008  0.550
 
band     2 # energy   -5.49431268 # occ.  2.00000000
 
ion      s      p      d    tot
    1  0.009  0.000  0.001  0.010
    2  0.010  0.000  0.001  0.011
    3  0.010  0.000  0.001  0.011
    4  0.010  0.000  0.001  0.011
    5  0.010  0.001  0.001  0.011
    6  0.010  0.000  0.001  0.011
    7  0.010  0.000  0.001  0.011
    8  0.010  0.000  0.001  0.011
    9  0.011  0.001  0.001  0.012
   10  0.011  0.001  0.012  0.024
   11  0.012  0.001  0.010  0.023
   12  0.011  0.001  0.012  0.024
   13  0.012  0.001  0.010  0.023
   14  0.012  0.001  0.010  0.023
   15  0.014  0.001  0.009  0.023
   16  0.011  0.001  0.012  0.024
   17  0.014  0.001  0.009  0.023
   18  0.014  0.001  0.009  0.023
   19  0.005  0.001  0.008  0.014
   20  0.012  0.002  0.008  0.022
   21  0.012  0.002  0.008  0.022
   22  0.005  0.001  0.008  0.014
   23  0.012  0.002  0.008  0.022
   24  0.005  0.001  0.008  0.014
   25  0.005  0.001  0.008  0.014
   26  0.005  0.001  0.008  0.014
   27  0.005  0.001  0.008  0.014
   28  0.007  0.000  0.002  0.010
   29  0.012  0.001  0.005  0.017
   30  0.012  0.001  0.005  0.017
   31  0.012  0.001  0.005  0.017
   32  0.012  0.001  0.005  0.017
   33  0.012  0.001  0.005  0.017
   34  0.012  0.001  0.005  0.017
   35  0.007  0.000  0.001  0.009
   36  0.047  0.001  0.001  0.049
tot    0.402  0.030  0.200  0.632
 
band     3 # energy   -5.24040300 # occ.  2.00000000
 
ion      s      p      d    tot
    1  0.000  0.000  0.009  0.010
    2  0.002  0.000  0.004  0.006
    3  0.002  0.000  0.004  0.006
    4  0.002  0.000  0.004  0.006
    5  0.002  0.000  0.003  0.005
    6  0.002  0.000  0.004  0.006
    7  0.002  0.000  0.004  0.006
    8  0.002  0.000  0.004  0.006
    9  0.004  0.000  0.003  0.007
   10  0.002  0.000  0.020  0.023
   11  0.001  0.000  0.020  0.021
   12  0.002  0.000  0.020  0.023
   13  0.001  0.000  0.020  0.021
   14  0.001  0.000  0.020  0.021
   15  0.000  0.000  0.014  0.014
   16  0.002  0.000  0.020  0.023
   17  0.000  0.000  0.014  0.014
   18  0.000  0.000  0.014  0.014
   19  0.007  0.000  0.022  0.029
   20  0.000  0.001  0.061  0.061
   21  0.000  0.001  0.061  0.061
   22  0.006  0.000  0.019  0.025
   23  0.000  0.001  0.061  0.061
   24  0.006  0.000  0.019  0.025
   25  0.007  0.000  0.022  0.029
   26  0.007  0.000  0.022  0.029
   27  0.006  0.000  0.019  0.025
   28  0.001  0.000  0.013  0.014
   29  0.006  0.000  0.022  0.028
   30  0.006  0.000  0.022  0.028
   31  0.006  0.000  0.022  0.028
   32  0.006  0.000  0.022  0.028
   33  0.006  0.000  0.022  0.028
   34  0.006  0.000  0.022  0.028
   35  0.001  0.000  0.011  0.013
   36  0.042  0.000  0.007  0.049
tot    0.146  0.006  0.671  0.823
 
band     4 # energy   -5.08915976 # occ.  2.00000000
 
ion      s      p      d    tot
    1  0.025  0.001  0.007  0.033
    2  0.010  0.000  0.020  0.030
    3  0.010  0.000  0.020  0.030
    4  0.010  0.000  0.020  0.030
    5  0.006  0.000  0.025  0.032
    6  0.010  0.000  0.020  0.030
    7  0.010  0.000  0.020  0.030
    8  0.010  0.000  0.020  0.030
    9  0.004  0.000  0.021  0.026
   10  0.001  0.000  0.040  0.042
   11  0.001  0.000  0.020  0.021
   12  0.001  0.000  0.040  0.042
   13  0.001  0.000  0.020  0.021
   14  0.001  0.000  0.020  0.021
   15  0.007  0.001  0.006  0.014
   16  0.001  0.000  0.040  0.042
   17  0.007  0.001  0.006  0.014
   18  0.007  0.001  0.006  0.014
   19  0.001  0.000  0.017  0.019
   20  0.002  0.000  0.039  0.041
   21  0.002  0.000  0.039  0.041
   22  0.009  0.000  0.001  0.010
   23  0.002  0.000  0.039  0.041
   24  0.009  0.000  0.001  0.010
   25  0.001  0.000  0.017  0.019
   26  0.001  0.000  0.017  0.019
   27  0.009  0.000  0.001  0.010
   28  0.002  0.000  0.001  0.003
   29  0.000  0.000  0.007  0.007
   30  0.000  0.000  0.007  0.007
   31  0.000  0.000  0.007  0.007
   32  0.000  0.000  0.007  0.007
   33  0.000  0.000  0.007  0.007
   34  0.000  0.000  0.007  0.007
   35  0.005  0.001  0.000  0.006
   36  0.014  0.002  0.001  0.018
tot    0.181  0.014  0.588  0.783
 
band     5 # energy   -5.03419255 # occ.  2.00000000
 
ion      s      p      d    tot
    1  0.001  0.000  0.009  0.010
    2  0.004  0.000  0.013  0.017
    3  0.004  0.000  0.013  0.017
    4  0.004  0.000  0.013  0.017
    5  0.010  0.000  0.012  0.022
    6  0.004  0.000  0.013  0.017
    7  0.004  0.000  0.013  0.017
    8  0.004  0.000  0.013  0.017
    9  0.004  0.000  0.008  0.012
   10  0.004  0.001  0.002  0.006
   11  0.001  0.000  0.026  0.027
   12  0.003  0.001  0.002  0.006
   13  0.001  0.000  0.026  0.027
   14  0.001  0.000  0.026  0.027
   15  0.000  0.000  0.017  0.017
   16  0.004  0.001  0.002  0.006
   17  0.000  0.000  0.017  0.017
   18  0.000  0.000  0.017  0.017
   19  0.005  0.001  0.020  0.026
   20  0.004  0.000  0.086  0.091
   21  0.004  0.000  0.086  0.091
   22  0.006  0.000  0.017  0.023
   23  0.004  0.000  0.086  0.091
   24  0.006  0.000  0.017  0.023
   25  0.005  0.001  0.020  0.026
   26  0.005  0.001  0.020  0.026
   27  0.006  0.000  0.017  0.023
   28  0.000  0.000  0.002  0.002
   29  0.002  0.000  0.009  0.011
   30  0.002  0.000  0.009  0.011
   31  0.002  0.000  0.009  0.011
   32  0.002  0.000  0.009  0.011
   33  0.002  0.000  0.009  0.011
   34  0.002  0.000  0.009  0.011
   35  0.006  0.001  0.000  0.007
   36  0.002  0.001  0.014  0.018
tot    0.120  0.011  0.680  0.811
 
band     6 # energy   -5.02854924 # occ.  2.00000000
 
ion      s      p      d    tot
    1  0.000  0.000  0.005  0.006
    2  0.001  0.001  0.008  0.010
    3  0.001  0.000  0.003  0.004
    4  0.002  0.001  0.007  0.010
    5  0.000  0.000  0.009  0.010
    6  0.000  0.000  0.004  0.004
    7  0.001  0.000  0.003  0.005
    8  0.000  0.000  0.005  0.005
    9  0.000  0.000  0.001  0.001
   10  0.000  0.000  0.102  0.102
   11  0.024  0.001  0.038  0.062
   12  0.007  0.001  0.033  0.041
   13  0.026  0.001  0.033  0.059
   14  0.000  0.001  0.092  0.092
   15  0.005  0.001  0.030  0.035
   16  0.007  0.001  0.039  0.046
   17  0.005  0.000  0.032  0.038
   18  0.000  0.002  0.005  0.007
   19  0.000  0.000  0.016  0.016
   20  0.000  0.001  0.026  0.027
   21  0.010  0.001  0.034  0.044
   22  0.008  0.001  0.011  0.020
   23  0.009  0.001  0.033  0.042
   24  0.000  0.000  0.026  0.026
   25  0.000  0.000  0.019  0.020
   26  0.000  0.000  0.016  0.016
   27  0.007  0.001  0.012  0.021
   28  0.000  0.000  0.001  0.001
   29  0.000  0.000  0.002  0.003
   30  0.001  0.000  0.004  0.005
   31  0.000  0.000  0.002  0.003
   32  0.002  0.000  0.004  0.006
   33  0.001  0.000  0.004  0.005
   34  0.002  0.000  0.004  0.006
   35  0.000  0.000  0.006  0.006
   36  0.000  0.000  0.005  0.005
tot    0.118  0.016  0.674  0.808
 
band     7 # energy   -5.02854554 # occ.  2.00000000
 
ion      s      p      d    tot
    1  0.000  0.000  0.005  0.006
    2  0.000  0.000  0.002  0.003
    3  0.001  0.000  0.007  0.008
    4  0.000  0.000  0.002  0.003
    5  0.000  0.000  0.009  0.010
    6  0.002  0.001  0.006  0.008
    7  0.001  0.000  0.007  0.008
    8  0.002  0.001  0.005  0.007
    9  0.000  0.000  0.001  0.001
   10  0.009  0.001  0.014  0.025
   11  0.009  0.001  0.070  0.080
   12  0.002  0.000  0.083  0.085
   13  0.007  0.001  0.075  0.083
   14  0.033  0.001  0.016  0.050
   15  0.002  0.001  0.015  0.018
   16  0.003  0.000  0.077  0.080
   17  0.001  0.001  0.013  0.015
   18  0.007  0.000  0.039  0.046
   19  0.000  0.000  0.018  0.018
   20  0.013  0.001  0.036  0.049
   21  0.003  0.001  0.028  0.031
   22  0.002  0.000  0.022  0.025
   23  0.004  0.001  0.029  0.033
   24  0.010  0.001  0.007  0.018
   25  0.000  0.000  0.015  0.015
   26  0.000  0.000  0.018  0.019
   27  0.003  0.000  0.021  0.024
   28  0.000  0.000  0.001  0.001
   29  0.002  0.000  0.005  0.006
   30  0.001  0.000  0.003  0.004
   31  0.002  0.000  0.005  0.007
   32  0.000  0.000  0.003  0.003
   33  0.001  0.000  0.003  0.004
   34  0.000  0.000  0.003  0.003
   35  0.000  0.000  0.006  0.006
   36  0.000  0.000  0.005  0.005
tot    0.118  0.016  0.673  0.808
 
band     8 # energy   -5.02362005 # occ.  2.00000000
 
ion      s      p      d    tot
    1  0.000  0.000  0.008  0.008
    2  0.000  0.000  0.002  0.003
    3  0.001  0.000  0.003  0.004
    4  0.000  0.000  0.002  0.003
    5  0.000  0.000  0.003  0.003
    6  0.000  0.000  0.003  0.004
    7  0.001  0.000  0.003  0.004
    8  0.000  0.000  0.003  0.004
    9  0.000  0.000  0.003  0.004
   10  0.000  0.001  0.018  0.019
   11  0.000  0.000  0.027  0.028
   12  0.009  0.001  0.021  0.031
   13  0.000  0.000  0.027  0.028
   14  0.000  0.001  0.036  0.037
   15  0.007  0.001  0.016  0.023
   16  0.009  0.001  0.021  0.031
   17  0.007  0.001  0.016  0.023
   18  0.000  0.000  0.035  0.035
   19  0.016  0.001  0.032  0.049
   20  0.000  0.000  0.136  0.136
   21  0.016  0.000  0.041  0.057
   22  0.000  0.001  0.033  0.034
   23  0.016  0.000  0.041  0.057
   24  0.000  0.001  0.039  0.041
   25  0.000  0.001  0.027  0.029
   26  0.016  0.001  0.031  0.049
   27  0.000  0.001  0.033  0.034
   28  0.000  0.000  0.005  0.005
   29  0.000  0.000  0.006  0.006
   30  0.000  0.000  0.003  0.003
   31  0.000  0.000  0.006  0.006
   32  0.001  0.000  0.004  0.005
   33  0.000  0.000  0.003  0.003
   34  0.001  0.000  0.004  0.005
   35  0.000  0.000  0.001  0.001
   36  0.000  0.001  0.005  0.006
tot    0.101  0.015  0.698  0.814
 
band     9 # energy   -5.02357658 # occ.  2.00000000
 
ion      s      p      d    tot
    1  0.000  0.000  0.008  0.008
    2  0.001  0.000  0.003  0.004
    3  0.000  0.000  0.003  0.003
    4  0.001  0.000  0.003  0.004
    5  0.000  0.000  0.003  0.003
    6  0.001  0.000  0.002  0.003
    7  0.000  0.000  0.003  0.003
    8  0.001  0.000  0.002  0.003
    9  0.000  0.000  0.004  0.004
   10  0.012  0.001  0.022  0.035
   11  0.000  0.001  0.033  0.034
   12  0.003  0.001  0.019  0.023
   13  0.000  0.001  0.033  0.034
   14  0.000  0.000  0.024  0.024
   15  0.002  0.000  0.028  0.031
   16  0.003  0.001  0.019  0.023
   17  0.002  0.000  0.028  0.031
   18  0.010  0.001  0.009  0.020
   19  0.005  0.001  0.029  0.035
   20  0.021  0.001  0.010  0.031
   21  0.005  0.000  0.104  0.109
   22  0.000  0.001  0.037  0.038
   23  0.005  0.000  0.104  0.109
   24  0.000  0.000  0.031  0.031
   25  0.022  0.001  0.033  0.056
   26  0.005  0.001  0.029  0.035
   27  0.000  0.001  0.037  0.038
   28  0.000  0.000  0.005  0.005
   29  0.000  0.000  0.003  0.003
   30  0.000  0.000  0.006  0.007
   31  0.000  0.000  0.003  0.003
   32  0.000  0.000  0.004  0.004
   33  0.000  0.000  0.006  0.007
   34  0.000  0.000  0.004  0.004
   35  0.000  0.000  0.001  0.001
   36  0.000  0.001  0.005  0.006
tot    0.101  0.015  0.698  0.814
 
band    10 # energy   -5.01145894 # occ.  2.00000000
 
ion      s      p      d    tot
    1  0.001  0.000  0.000  0.001
    2  0.000  0.000  0.006  0.006
    3  0.000  0.000  0.006  0.006
    4  0.000  0.000  0.006  0.006
    5  0.004  0.001  0.004  0.010
    6  0.000  0.000  0.006  0.006
    7  0.000  0.000  0.006  0.006
    8  0.000  0.000  0.006  0.006
    9  0.001  0.000  0.005  0.007
   10  0.008  0.001  0.005  0.014
   11  0.015  0.001  0.042  0.058
   12  0.008  0.001  0.005  0.014
   13  0.015  0.001  0.042  0.058
   14  0.015  0.001  0.042  0.058
   15  0.001  0.000  0.060  0.062
   16  0.008  0.001  0.005  0.014
   17  0.001  0.000  0.060  0.062
   18  0.001  0.000  0.060  0.061
   19  0.010  0.000  0.028  0.039
   20  0.006  0.001  0.016  0.023
   21  0.006  0.001  0.016  0.023
   22  0.000  0.000  0.039  0.040
   23  0.006  0.001  0.016  0.023
   24  0.000  0.000  0.039  0.040
   25  0.010  0.000  0.028  0.039
   26  0.010  0.000  0.028  0.039
   27  0.000  0.000  0.039  0.040
   28  0.003  0.001  0.003  0.007
   29  0.000  0.000  0.004  0.004
   30  0.000  0.000  0.004  0.004
   31  0.000  0.000  0.004  0.004
   32  0.000  0.000  0.004  0.004
   33  0.000  0.000  0.004  0.004
   34  0.000  0.000  0.004  0.004
   35  0.001  0.000  0.003  0.004
   36  0.000  0.000  0.000  0.000
tot    0.129  0.017  0.652  0.798
 
band    11 # energy   -4.99238268 # occ.  2.00000000
 
ion      s      p      d    tot
    1  0.001  0.000  0.026  0.027
    2  0.001  0.000  0.009  0.011
    3  0.001  0.000  0.009  0.011
    4  0.001  0.000  0.009  0.011
    5  0.000  0.000  0.000  0.000
    6  0.001  0.000  0.009  0.011
    7  0.001  0.000  0.009  0.011
    8  0.001  0.000  0.009  0.011
    9  0.008  0.001  0.000  0.008
   10  0.004  0.000  0.076  0.080
   11  0.003  0.000  0.035  0.038
   12  0.004  0.000  0.076  0.080
   13  0.003  0.000  0.035  0.038
   14  0.003  0.000  0.035  0.038
   15  0.006  0.001  0.007  0.013
   16  0.004  0.000  0.076  0.080
   17  0.006  0.001  0.007  0.013
   18  0.006  0.001  0.007  0.013
   19  0.000  0.000  0.025  0.025
   20  0.001  0.000  0.019  0.021
   21  0.001  0.000  0.019  0.021
   22  0.002  0.000  0.023  0.024
   23  0.001  0.000  0.019  0.021
   24  0.002  0.000  0.023  0.024
   25  0.000  0.000  0.025  0.025
   26  0.000  0.000  0.025  0.025
   27  0.002  0.000  0.023  0.024
   28  0.010  0.000  0.011  0.021
   29  0.003  0.000  0.013  0.015
   30  0.003  0.000  0.013  0.015
   31  0.003  0.000  0.013  0.015
   32  0.003  0.000  0.013  0.015
   33  0.003  0.000  0.013  0.015
   34  0.003  0.000  0.013  0.015
   35  0.001  0.000  0.013  0.014
   36  0.001  0.000  0.000  0.001
tot    0.086  0.008  0.735  0.829
 
band    12 # energy   -4.97950013 # occ.  2.00000000
 
ion      s      p      d    tot
    1  0.000  0.000  0.012  0.013
    2  0.000  0.000  0.011  0.012
    3  0.003  0.000  0.006  0.009
    4  0.004  0.001  0.007  0.012
    5  0.000  0.000  0.011  0.011
    6  0.002  0.000  0.006  0.009
    7  0.004  0.001  0.007  0.012
    8  0.000  0.000  0.011  0.011
    9  0.000  0.001  0.008  0.009
   10  0.012  0.000  0.029  0.041
   11  0.000  0.000  0.034  0.034
   12  0.000  0.001  0.049  0.049
   13  0.000  0.000  0.026  0.027
   14  0.000  0.000  0.036  0.037
   15  0.011  0.000  0.037  0.048
   16  0.010  0.000  0.033  0.043
   17  0.000  0.000  0.100  0.100
   18  0.014  0.000  0.022  0.036
   19  0.000  0.000  0.024  0.024
   20  0.004  0.000  0.017  0.022
   21  0.000  0.000  0.035  0.035
   22  0.000  0.000  0.036  0.036
   23  0.004  0.000  0.021  0.024
   24  0.007  0.000  0.019  0.026
   25  0.000  0.000  0.024  0.024
   26  0.000  0.000  0.025  0.025
   27  0.006  0.000  0.022  0.028
   28  0.000  0.000  0.012  0.012
   29  0.003  0.001  0.005  0.009
   30  0.001  0.000  0.005  0.007
   31  0.000  0.000  0.006  0.006
   32  0.002  0.000  0.005  0.007
   33  0.000  0.000  0.006  0.006
   34  0.004  0.001  0.005  0.009
   35  0.000  0.000  0.006  0.006
   36  0.000  0.001  0.003  0.003
tot    0.093  0.011  0.719  0.824
 
band    13 # energy   -4.97949374 # occ.  2.00000000
 
ion      s      p      d    tot
    1  0.000  0.000  0.012  0.013
    2  0.004  0.001  0.005  0.010
    3  0.002  0.001  0.010  0.013
    4  0.001  0.000  0.008  0.009
    5  0.000  0.000  0.011  0.011
    6  0.002  0.001  0.009  0.013
    7  0.000  0.000  0.009  0.010
    8  0.004  0.001  0.005  0.010
    9  0.000  0.001  0.008  0.009
   10  0.003  0.000  0.044  0.047
   11  0.000  0.000  0.030  0.031
   12  0.015  0.000  0.025  0.040
   13  0.000  0.000  0.038  0.038
   14  0.000  0.000  0.028  0.029
   15  0.006  0.000  0.069  0.075
   16  0.005  0.000  0.041  0.046
   17  0.017  0.000  0.006  0.023
   18  0.003  0.000  0.084  0.087
   19  0.000  0.000  0.024  0.024
   20  0.001  0.000  0.031  0.032
   21  0.005  0.000  0.014  0.019
   22  0.008  0.000  0.015  0.023
   23  0.002  0.000  0.028  0.030
   24  0.002  0.000  0.033  0.034
   25  0.000  0.000  0.024  0.024
   26  0.000  0.000  0.023  0.024
   27  0.003  0.000  0.029  0.032
   28  0.000  0.000  0.012  0.012
   29  0.000  0.000  0.005  0.006
   30  0.002  0.001  0.006  0.008
   31  0.003  0.001  0.005  0.009
   32  0.002  0.000  0.006  0.008
   33  0.004  0.001  0.005  0.009
   34  0.000  0.000  0.005  0.006
   35  0.000  0.000  0.006  0.006
   36  0.000  0.001  0.003  0.003
tot    0.093  0.011  0.719  0.823
 
band    14 # energy   -4.97659467 # occ.  2.00000000
 
ion      s      p      d    tot
    1  0.000  0.000  0.000  0.001
    2  0.001  0.000  0.010  0.010
    3  0.001  0.000  0.009  0.010
    4  0.001  0.000  0.010  0.010
    5  0.001  0.000  0.000  0.001
    6  0.001  0.000  0.009  0.010
    7  0.001  0.000  0.009  0.010
    8  0.001  0.000  0.009  0.010
    9  0.004  0.000  0.015  0.019
   10  0.001  0.000  0.025  0.026
   11  0.001  0.000  0.006  0.007
   12  0.001  0.000  0.025  0.026
   13  0.001  0.000  0.006  0.007
   14  0.001  0.000  0.006  0.007
   15  0.002  0.000  0.054  0.056
   16  0.001  0.000  0.025  0.026
   17  0.002  0.000  0.054  0.056
   18  0.002  0.000  0.054  0.056
   19  0.003  0.000  0.032  0.035
   20  0.003  0.000  0.021  0.025
   21  0.003  0.000  0.021  0.024
   22  0.001  0.000  0.062  0.063
   23  0.003  0.000  0.021  0.024
   24  0.001  0.000  0.062  0.063
   25  0.003  0.000  0.031  0.035
   26  0.003  0.000  0.032  0.035
   27  0.001  0.000  0.062  0.063
   28  0.004  0.000  0.001  0.005
   29  0.002  0.000  0.012  0.014
   30  0.002  0.000  0.012  0.014
   31  0.002  0.000  0.012  0.014
   32  0.002  0.000  0.012  0.014
   33  0.002  0.000  0.012  0.014
   34  0.002  0.000  0.012  0.014
   35  0.006  0.000  0.022  0.028
   36  0.000  0.001  0.002  0.003
tot    0.064  0.008  0.766  0.838
 
band    15 # energy   -4.96773767 # occ.  2.00000000
 
ion      s      p      d    tot
    1  0.000  0.000  0.007  0.007
    2  0.002  0.000  0.007  0.009
    3  0.000  0.000  0.007  0.008
    4  0.002  0.000  0.007  0.009
    5  0.000  0.000  0.005  0.005
    6  0.002  0.000  0.005  0.007
    7  0.000  0.000  0.007  0.008
    8  0.002  0.000  0.005  0.007
    9  0.000  0.000  0.020  0.020
   10  0.000  0.000  0.033  0.033
   11  0.000  0.000  0.031  0.032
   12  0.000  0.000  0.014  0.014
   13  0.000  0.000  0.032  0.033
   14  0.002  0.000  0.009  0.011
   15  0.000  0.000  0.038  0.039
   16  0.000  0.000  0.015  0.015
   17  0.000  0.000  0.039  0.039
   18  0.001  0.000  0.029  0.030
   19  0.003  0.000  0.084  0.086
   20  0.000  0.000  0.052  0.052
   21  0.000  0.000  0.021  0.022
   22  0.003  0.000  0.057  0.061
   23  0.000  0.000  0.023  0.023
   24  0.014  0.000  0.030  0.044
   25  0.010  0.000  0.005  0.016
   26  0.002  0.000  0.087  0.089
   27  0.004  0.000  0.056  0.060
   28  0.000  0.000  0.006  0.006
   29  0.000  0.000  0.008  0.009
   30  0.002  0.000  0.003  0.005
   31  0.000  0.000  0.008  0.009
   32  0.001  0.000  0.008  0.009
   33  0.002  0.000  0.003  0.005
   34  0.000  0.000  0.009  0.010
   35  0.000  0.000  0.012  0.012
   36  0.000  0.000  0.002  0.002
tot    0.054  0.007  0.784  0.845
 
band    16 # energy   -4.96765996 # occ.  2.00000000
 
ion      s      p      d    tot
    1  0.000  0.000  0.007  0.007
    2  0.000  0.000  0.006  0.007
    3  0.003  0.000  0.006  0.009
    4  0.000  0.000  0.006  0.007
    5  0.000  0.000  0.005  0.005
    6  0.001  0.000  0.008  0.009
    7  0.003  0.000  0.006  0.008
    8  0.001  0.000  0.008  0.009
    9  0.000  0.000  0.020  0.020
   10  0.000  0.000  0.008  0.008
   11  0.001  0.000  0.017  0.018
   12  0.000  0.000  0.027  0.028
   13  0.001  0.000  0.016  0.018
   14  0.000  0.000  0.039  0.039
   15  0.000  0.000  0.033  0.033
   16  0.000  0.000  0.026  0.027
   17  0.000  0.000  0.032  0.033
   18  0.000  0.000  0.042  0.042
   19  0.007  0.000  0.034  0.041
   20  0.000  0.001  0.012  0.012
   21  0.000  0.000  0.043  0.043
   22  0.011  0.000  0.038  0.049
   23  0.000  0.000  0.041  0.042
   24  0.000  0.000  0.065  0.066
   25  0.000  0.000  0.112  0.112
   26  0.008  0.000  0.030  0.038
   27  0.010  0.000  0.039  0.050
   28  0.000  0.000  0.006  0.006
   29  0.001  0.001  0.005  0.007
   30  0.000  0.000  0.010  0.010
   31  0.001  0.001  0.005  0.007
   32  0.001  0.000  0.005  0.006
   33  0.000  0.000  0.010  0.010
   34  0.001  0.000  0.005  0.006
   35  0.000  0.000  0.012  0.012
   36  0.000  0.000  0.002  0.002
tot    0.054  0.007  0.784  0.845
 
band    17 # energy   -4.82962622 # occ.  2.00000000
 
ion      s      p      d    tot
    1  0.000  0.000  0.002  0.002
    2  0.001  0.000  0.007  0.008
    3  0.002  0.001  0.006  0.009
    4  0.001  0.000  0.007  0.008
    5  0.000  0.001  0.018  0.019
    6  0.000  0.000  0.009  0.010
    7  0.002  0.001  0.006  0.009
    8  0.000  0.000  0.009  0.010
    9  0.000  0.000  0.011  0.011
   10  0.000  0.000  0.015  0.016
   11  0.002  0.000  0.055  0.057
   12  0.000  0.001  0.023  0.024
   13  0.002  0.000  0.055  0.058
   14  0.000  0.000  0.084  0.084
   15  0.002  0.000  0.026  0.029
   16  0.000  0.001  0.023  0.024
   17  0.002  0.000  0.026  0.029
   18  0.000  0.000  0.012  0.012
   19  0.001  0.001  0.023  0.024
   20  0.000  0.000  0.101  0.101
   21  0.002  0.000  0.073  0.075
   22  0.000  0.001  0.025  0.025
   23  0.002  0.000  0.072  0.074
   24  0.000  0.000  0.038  0.038
   25  0.000  0.000  0.002  0.002
   26  0.001  0.001  0.022  0.024
   27  0.000  0.001  0.024  0.025
   28  0.000  0.000  0.005  0.005
   29  0.001  0.001  0.008  0.009
   30  0.001  0.001  0.006  0.007
   31  0.001  0.001  0.008  0.009
   32  0.000  0.000  0.007  0.007
   33  0.001  0.001  0.006  0.007
   34  0.000  0.000  0.007  0.007
   35  0.000  0.000  0.001  0.001
   36  0.000  0.002  0.007  0.009
tot    0.024  0.016  0.827  0.867
 
band    18 # energy   -4.82959641 # occ.  2.00000000
 
ion      s      p      d    tot
    1  0.000  0.000  0.002  0.002
    2  0.001  0.001  0.008  0.010
    3  0.000  0.000  0.009  0.009
    4  0.001  0.001  0.008  0.010
    5  0.000  0.001  0.018  0.019
    6  0.002  0.001  0.006  0.008
    7  0.000  0.000  0.009  0.009
    8  0.002  0.001  0.006  0.008
    9  0.000  0.000  0.011  0.012
   10  0.000  0.001  0.026  0.027
   11  0.001  0.000  0.074  0.075
   12  0.000  0.000  0.018  0.018
   13  0.001  0.000  0.074  0.075
   14  0.003  0.000  0.046  0.049
   15  0.001  0.000  0.017  0.018
   16  0.000  0.000  0.017  0.018
   17  0.001  0.000  0.017  0.018
   18  0.003  0.001  0.030  0.033
   19  0.000  0.000  0.009  0.009
   20  0.002  0.000  0.063  0.065
   21  0.001  0.000  0.091  0.092
   22  0.000  0.000  0.034  0.034
   23  0.001  0.000  0.092  0.092
   24  0.000  0.001  0.020  0.021
   25  0.001  0.001  0.029  0.031
   26  0.000  0.000  0.009  0.010
   27  0.000  0.000  0.034  0.034
   28  0.000  0.000  0.005  0.005
   29  0.001  0.000  0.006  0.007
   30  0.000  0.000  0.008  0.008
   31  0.001  0.000  0.006  0.007
   32  0.001  0.001  0.006  0.009
   33  0.000  0.000  0.008  0.008
   34  0.001  0.001  0.007  0.009
   35  0.000  0.000  0.001  0.001
   36  0.000  0.002  0.007  0.009
tot    0.024  0.016  0.827  0.867
 
band    19 # energy   -4.82876422 # occ.  2.00000000
 
ion      s      p      d    tot
    1  0.000  0.000  0.000  0.001
    2  0.000  0.000  0.006  0.006
    3  0.000  0.000  0.006  0.006
    4  0.000  0.000  0.006  0.006
    5  0.001  0.000  0.016  0.017
    6  0.000  0.000  0.005  0.006
    7  0.000  0.000  0.006  0.006
    8  0.000  0.000  0.005  0.006
    9  0.001  0.001  0.006  0.008
   10  0.000  0.000  0.012  0.012
   11  0.000  0.001  0.080  0.081
   12  0.000  0.000  0.012  0.012
   13  0.000  0.001  0.081  0.081
   14  0.000  0.001  0.079  0.080
   15  0.000  0.001  0.035  0.036
   16  0.000  0.000  0.012  0.012
   17  0.000  0.001  0.035  0.035
   18  0.000  0.001  0.036  0.036
   19  0.000  0.000  0.020  0.021
   20  0.002  0.000  0.068  0.070
   21  0.002  0.000  0.067  0.070
   22  0.003  0.000  0.017  0.020
   23  0.002  0.000  0.067  0.070
   24  0.003  0.000  0.016  0.019
   25  0.000  0.000  0.021  0.022
   26  0.000  0.000  0.020  0.021
   27  0.003  0.000  0.017  0.020
   28  0.006  0.001  0.000  0.007
   29  0.000  0.000  0.012  0.012
   30  0.000  0.000  0.012  0.012
   31  0.000  0.000  0.012  0.012
   32  0.000  0.000  0.012  0.012
   33  0.000  0.000  0.012  0.012
   34  0.000  0.000  0.012  0.012
   35  0.002  0.000  0.000  0.003
   36  0.001  0.001  0.004  0.005
tot    0.027  0.014  0.824  0.865
 
band    20 # energy   -4.81561697 # occ.  2.00000000
 
ion      s      p      d    tot
    1  0.000  0.000  0.004  0.004
    2  0.000  0.001  0.014  0.015
    3  0.000  0.001  0.014  0.015
    4  0.000  0.001  0.014  0.015
    5  0.005  0.001  0.000  0.006
    6  0.000  0.001  0.014  0.015
    7  0.000  0.001  0.014  0.015
    8  0.000  0.001  0.014  0.015
    9  0.003  0.000  0.002  0.005
   10  0.002  0.001  0.041  0.043
   11  0.000  0.000  0.024  0.024
   12  0.002  0.001  0.041  0.044
   13  0.000  0.000  0.024  0.024
   14  0.000  0.000  0.024  0.025
   15  0.004  0.000  0.020  0.025
   16  0.002  0.001  0.041  0.044
   17  0.004  0.000  0.020  0.025
   18  0.004  0.000  0.020  0.025
   19  0.001  0.000  0.054  0.055
   20  0.000  0.000  0.010  0.011
   21  0.000  0.000  0.011  0.011
   22  0.001  0.001  0.041  0.042
   23  0.000  0.000  0.011  0.011
   24  0.001  0.001  0.041  0.043
   25  0.001  0.000  0.054  0.056
   26  0.001  0.000  0.054  0.055
   27  0.001  0.001  0.041  0.042
   28  0.002  0.000  0.025  0.027
   29  0.001  0.000  0.014  0.016
   30  0.001  0.000  0.014  0.015
   31  0.001  0.000  0.014  0.016
   32  0.001  0.000  0.014  0.016
   33  0.001  0.000  0.014  0.015
   34  0.001  0.000  0.014  0.016
   35  0.007  0.001  0.000  0.008
   36  0.004  0.001  0.000  0.005
tot    0.052  0.018  0.774  0.843
 
band    21 # energy   -4.79506160 # occ.  2.00000000
 
ion      s      p      d    tot
    1  0.000  0.001  0.019  0.020
    2  0.000  0.000  0.009  0.009
    3  0.002  0.001  0.005  0.007
    4  0.000  0.000  0.007  0.008
    5  0.000  0.000  0.003  0.004
    6  0.001  0.001  0.010  0.012
    7  0.002  0.001  0.004  0.007
    8  0.001  0.001  0.011  0.012
    9  0.000  0.000  0.005  0.005
   10  0.002  0.000  0.057  0.059
   11  0.000  0.000  0.012  0.012
   12  0.000  0.000  0.067  0.068
   13  0.000  0.000  0.006  0.007
   14  0.000  0.001  0.035  0.037
   15  0.000  0.000  0.057  0.057
   16  0.001  0.000  0.065  0.066
   17  0.000  0.000  0.065  0.065
   18  0.000  0.001  0.022  0.023
   19  0.000  0.000  0.058  0.058
   20  0.000  0.001  0.034  0.036
   21  0.000  0.000  0.010  0.011
   22  0.001  0.000  0.032  0.033
   23  0.000  0.000  0.015  0.016
   24  0.003  0.000  0.039  0.043
   25  0.001  0.000  0.027  0.029
   26  0.000  0.000  0.065  0.065
   27  0.001  0.000  0.033  0.034
   28  0.000  0.000  0.010  0.011
   29  0.001  0.000  0.008  0.009
   30  0.001  0.000  0.003  0.005
   31  0.001  0.001  0.007  0.009
   32  0.000  0.000  0.006  0.006
   33  0.001  0.001  0.004  0.005
   34  0.000  0.000  0.007  0.007
   35  0.000  0.001  0.014  0.014
   36  0.000  0.000  0.001  0.001
tot    0.020  0.014  0.832  0.866
 
band    22 # energy   -4.79503581 # occ.  2.00000000
 
ion      s      p      d    tot
    1  0.000  0.001  0.019  0.020
    2  0.002  0.001  0.007  0.009
    3  0.000  0.000  0.011  0.011
    4  0.001  0.001  0.008  0.010
    5  0.000  0.000  0.003  0.003
    6  0.001  0.000  0.005  0.006
    7  0.000  0.000  0.011  0.012
    8  0.001  0.000  0.005  0.006
    9  0.000  0.000  0.005  0.005
   10  0.000  0.000  0.069  0.070
   11  0.000  0.001  0.024  0.025
   12  0.001  0.000  0.059  0.061
   13  0.000  0.001  0.029  0.030
   14  0.000  0.000  0.000  0.000
   15  0.000  0.000  0.039  0.039
   16  0.001  0.000  0.061  0.062