PROCAR new format
# of k-points:   10         # of bands:  252         # of ions:   38

 k-point     1 :    0.00000000 0.00000000 0.00000000     weight = 0.01562500

band     1 # energy  -22.61951654 # occ.  2.00000000
 
ion      s      p      d    tot
    1  0.000  0.000  0.000  0.000
    2  0.000  0.000  0.000  0.000
    3  0.000  0.000  0.000  0.000
    4  0.000  0.000  0.000  0.000
    5  0.000  0.000  0.000  0.000
    6  0.000  0.000  0.000  0.000
    7  0.000  0.000  0.000  0.000
    8  0.000  0.000  0.000  0.000
    9  0.000  0.000  0.000  0.000
   10  0.000  0.000  0.000  0.000
   11  0.000  0.000  0.000  0.000
   12  0.000  0.000  0.000  0.000
   13  0.000  0.000  0.000  0.000
   14  0.000  0.000  0.000  0.000
   15  0.000  0.000  0.000  0.000
   16  0.000  0.000  0.000  0.000
   17  0.000  0.000  0.000  0.000
   18  0.000  0.000  0.000  0.000
   19  0.000  0.000  0.000  0.000
   20  0.000  0.000  0.000  0.000
   21  0.000  0.000  0.000  0.000
   22  0.000  0.000  0.000  0.000
   23  0.000  0.000  0.000  0.000
   24  0.000  0.000  0.000  0.000
   25  0.000  0.000  0.000  0.000
   26  0.000  0.000  0.000  0.000
   27  0.000  0.000  0.000  0.000
   28  0.000  0.000  0.000  0.000
   29  0.000  0.000  0.000  0.000
   30  0.000  0.000  0.000  0.000
   31  0.000  0.000  0.000  0.000
   32  0.000  0.000  0.000  0.000
   33  0.000  0.000  0.000  0.000
   34  0.000  0.000  0.000  0.000
   35  0.000  0.000  0.000  0.000
   36  0.000  0.000  0.000  0.000
   37  0.159  0.117  0.000  0.277
   38  0.639  0.096  0.000  0.735
tot    0.798  0.213  0.000  1.012
 
band     2 # energy   -8.34683707 # occ.  2.00000000
 
ion      s      p      d    tot
    1  0.001  0.000  0.000  0.001
    2  0.001  0.000  0.000  0.001
    3  0.001  0.000  0.000  0.001
    4  0.001  0.000  0.000  0.001
    5  0.001  0.000  0.000  0.001
    6  0.001  0.000  0.000  0.001
    7  0.001  0.000  0.000  0.001
    8  0.001  0.000  0.000  0.001
    9  0.001  0.000  0.000  0.001
   10  0.004  0.000  0.000  0.004
   11  0.004  0.000  0.000  0.004
   12  0.004  0.000  0.000  0.004
   13  0.004  0.000  0.000  0.004
   14  0.004  0.000  0.000  0.004
   15  0.004  0.000  0.000  0.004
   16  0.004  0.000  0.000  0.004
   17  0.004  0.000  0.000  0.004
   18  0.004  0.000  0.000  0.004
   19  0.006  0.000  0.000  0.006
   20  0.012  0.000  0.002  0.014
   21  0.012  0.000  0.002  0.014
   22  0.006  0.000  0.000  0.006
   23  0.012  0.000  0.002  0.014
   24  0.006  0.000  0.000  0.006
   25  0.006  0.000  0.000  0.006
   26  0.006  0.000  0.000  0.006
   27  0.006  0.000  0.000  0.006
   28  0.002  0.000  0.000  0.002
   29  0.005  0.000  0.001  0.006
   30  0.005  0.000  0.001  0.006
   31  0.005  0.000  0.001  0.006
   32  0.005  0.000  0.001  0.006
   33  0.005  0.000  0.001  0.006
   34  0.005  0.000  0.001  0.006
   35  0.002  0.000  0.000  0.002
   36  0.073  0.010  0.034  0.117
   37  0.199  0.006  0.000  0.205
   38  0.099  0.143  0.000  0.241
tot    0.518  0.163  0.044  0.725
 
band     3 # energy   -7.98481986 # occ.  2.00000000
 
ion      s      p      d    tot
    1  0.006  0.000  0.000  0.006
    2  0.006  0.000  0.000  0.006
    3  0.006  0.000  0.000  0.006
    4  0.006  0.000  0.000  0.006
    5  0.006  0.000  0.000  0.006
    6  0.006  0.000  0.000  0.006
    7  0.006  0.000  0.000  0.006
    8  0.006  0.000  0.000  0.006
    9  0.006  0.000  0.000  0.006
   10  0.022  0.000  0.000  0.022
   11  0.023  0.000  0.000  0.023
   12  0.022  0.000  0.000  0.022
   13  0.023  0.000  0.000  0.023
   14  0.023  0.000  0.000  0.023
   15  0.022  0.000  0.000  0.022
   16  0.022  0.000  0.000  0.022
   17  0.022  0.000  0.000  0.022
   18  0.022  0.000  0.000  0.022
   19  0.016  0.000  0.000  0.017
   20  0.017  0.000  0.000  0.018
   21  0.017  0.000  0.000  0.018
   22  0.018  0.000  0.000  0.018
   23  0.017  0.000  0.000  0.018
   24  0.018  0.000  0.000  0.018
   25  0.016  0.000  0.000  0.017
   26  0.016  0.000  0.000  0.017
   27  0.018  0.000  0.000  0.018
   28  0.003  0.000  0.000  0.003
   29  0.002  0.000  0.000  0.002
   30  0.002  0.000  0.000  0.002
   31  0.002  0.000  0.000  0.002
   32  0.002  0.000  0.000  0.002
   33  0.002  0.000  0.000  0.002
   34  0.002  0.000  0.000  0.002
   35  0.003  0.000  0.000  0.003
   36  0.000  0.010  0.008  0.018
   37  0.064  0.000  0.000  0.064
   38  0.039  0.072  0.000  0.111
tot    0.526  0.092  0.013  0.631
 
band     4 # energy   -6.93114130 # occ.  2.00000000
 
ion      s      p      d    tot
    1  0.015  0.000  0.001  0.016
    2  0.015  0.000  0.001  0.016
    3  0.015  0.000  0.001  0.016
    4  0.015  0.000  0.001  0.016
    5  0.015  0.000  0.001  0.016
    6  0.015  0.000  0.001  0.016
    7  0.015  0.000  0.001  0.016
    8  0.015  0.000  0.001  0.016
    9  0.015  0.000  0.001  0.017
   10  0.011  0.001  0.002  0.014
   11  0.010  0.001  0.002  0.013
   12  0.011  0.001  0.002  0.014
   13  0.010  0.001  0.002  0.013
   14  0.010  0.001  0.002  0.013
   15  0.012  0.001  0.002  0.015
   16  0.011  0.001  0.002  0.014
   17  0.012  0.001  0.002  0.015
   18  0.012  0.001  0.002  0.015
   19  0.009  0.001  0.003  0.012
   20  0.015  0.002  0.002  0.019
   21  0.015  0.002  0.002  0.019
   22  0.009  0.001  0.003  0.013
   23  0.015  0.002  0.002  0.019
   24  0.009  0.001  0.003  0.013
   25  0.009  0.001  0.003  0.012
   26  0.009  0.001  0.003  0.012
   27  0.009  0.001  0.003  0.013
   28  0.012  0.000  0.001  0.013
   29  0.014  0.001  0.001  0.016
   30  0.014  0.001  0.001  0.016
   31  0.014  0.001  0.001  0.016
   32  0.014  0.001  0.001  0.016
   33  0.014  0.001  0.001  0.016
   34  0.014  0.001  0.001  0.016
   35  0.012  0.000  0.001  0.013
   36  0.033  0.001  0.000  0.035
   37  0.005  0.007  0.000  0.013
   38  0.010  0.041  0.000  0.052
tot    0.488  0.080  0.061  0.629
 
band     5 # energy   -6.10585002 # occ.  2.00000000
 
ion      s      p      d    tot
    1  0.012  0.000  0.000  0.012
    2  0.004  0.000  0.003  0.007
    3  0.004  0.000  0.003  0.007
    4  0.004  0.000  0.003  0.007
    5  0.005  0.000  0.002  0.007
    6  0.004  0.000  0.003  0.007
    7  0.004  0.000  0.003  0.007
    8  0.004  0.000  0.003  0.007
    9  0.000  0.000  0.003  0.004
   10  0.002  0.000  0.008  0.010
   11  0.001  0.001  0.004  0.005
   12  0.002  0.000  0.008  0.010
   13  0.001  0.001  0.004  0.005
   14  0.001  0.001  0.004  0.005
   15  0.008  0.002  0.001  0.011
   16  0.002  0.000  0.008  0.010
   17  0.008  0.002  0.001  0.011
   18  0.008  0.002  0.001  0.011
   19  0.010  0.000  0.013  0.023
   20  0.002  0.001  0.032  0.035
   21  0.002  0.001  0.032  0.035
   22  0.026  0.001  0.004  0.032
   23  0.002  0.001  0.032  0.035
   24  0.026  0.001  0.004  0.032
   25  0.010  0.000  0.013  0.023
   26  0.010  0.000  0.013  0.023
   27  0.026  0.001  0.004  0.032
   28  0.000  0.000  0.006  0.006
   29  0.004  0.001  0.009  0.015
   30  0.004  0.001  0.009  0.015
   31  0.004  0.001  0.009  0.015
   32  0.004  0.001  0.009  0.015
   33  0.004  0.001  0.009  0.015
   34  0.004  0.001  0.009  0.015
   35  0.000  0.001  0.005  0.006
   36  0.088  0.001  0.005  0.094
   37  0.000  0.048  0.000  0.048
   38  0.012  0.095  0.000  0.106
tot    0.312  0.170  0.282  0.763
 
band     6 # energy   -5.96523416 # occ.  2.00000000
 
ion      s      p      d    tot
    1  0.000  0.000  0.007  0.007
    2  0.005  0.000  0.005  0.010
    3  0.005  0.000  0.005  0.010
    4  0.005  0.000  0.005  0.010
    5  0.003  0.000  0.002  0.006
    6  0.005  0.000  0.005  0.010
    7  0.005  0.000  0.005  0.010
    8  0.005  0.000  0.005  0.010
    9  0.018  0.001  0.002  0.020
   10  0.008  0.001  0.009  0.018
   11  0.003  0.002  0.005  0.010
   12  0.008  0.001  0.009  0.018
   13  0.003  0.002  0.005  0.010
   14  0.004  0.002  0.005  0.010
   15  0.006  0.001  0.004  0.011
   16  0.008  0.001  0.009  0.018
   17  0.006  0.001  0.004  0.011
   18  0.006  0.001  0.004  0.011
   19  0.003  0.001  0.017  0.021
   20  0.022  0.001  0.026  0.050
   21  0.023  0.001  0.026  0.050
   22  0.003  0.001  0.008  0.013
   23  0.023  0.001  0.026  0.050
   24  0.003  0.001  0.008  0.013
   25  0.003  0.001  0.017  0.021
   26  0.003  0.001  0.017  0.021
   27  0.003  0.001  0.008  0.013
   28  0.013  0.000  0.006  0.019
   29  0.015  0.000  0.012  0.027
   30  0.015  0.000  0.012  0.027
   31  0.015  0.000  0.012  0.027
   32  0.015  0.000  0.012  0.027
   33  0.015  0.000  0.012  0.027
   34  0.015  0.000  0.012  0.027
   35  0.029  0.000  0.007  0.036
   36  0.000  0.005  0.022  0.028
   37  0.000  0.000  0.000  0.000
   38  0.000  0.000  0.000  0.000
tot    0.321  0.030  0.351  0.701
 
band     7 # energy   -5.94728023 # occ.  2.00000000
 
ion      s      p      d    tot
    1  0.000  0.001  0.008  0.009
    2  0.000  0.000  0.003  0.004
    3  0.003  0.001  0.002  0.006
    4  0.005  0.001  0.003  0.010
    5  0.000  0.001  0.005  0.006
    6  0.003  0.001  0.002  0.006
    7  0.006  0.001  0.003  0.010
    8  0.000  0.000  0.003  0.003
    9  0.000  0.000  0.001  0.001
   10  0.009  0.001  0.026  0.036
   11  0.012  0.003  0.019  0.034
   12  0.039  0.002  0.006  0.047
   13  0.045  0.001  0.012  0.057
   14  0.010  0.003  0.020  0.033
   15  0.000  0.002  0.007  0.009
   16  0.010  0.001  0.025  0.036
   17  0.000  0.000  0.010  0.011
   18  0.000  0.002  0.007  0.009
   19  0.003  0.003  0.006  0.012
   20  0.016  0.002  0.034  0.051
   21  0.069  0.001  0.013  0.083
   22  0.013  0.002  0.005  0.020
   23  0.019  0.002  0.033  0.053
   24  0.003  0.001  0.020  0.023
   25  0.003  0.003  0.006  0.012
   26  0.012  0.000  0.013  0.025
   27  0.003  0.001  0.019  0.023
   28  0.000  0.000  0.001  0.002
   29  0.002  0.001  0.003  0.005
   30  0.006  0.001  0.005  0.012
   31  0.001  0.000  0.003  0.004
   32  0.006  0.001  0.005  0.012
   33  0.001  0.000  0.003  0.005
   34  0.002  0.001  0.003  0.006
   35  0.000  0.000  0.004  0.004
   36  0.000  0.005  0.012  0.017
   37  0.000  0.000  0.000  0.000
   38  0.000  0.000  0.000  0.000
tot    0.305  0.046  0.348  0.699
 
band     8 # energy   -5.94726831 # occ.  2.00000000
 
ion      s      p      d    tot
    1  0.000  0.001  0.008  0.009
    2  0.006  0.001  0.003  0.009
    3  0.003  0.001  0.003  0.007
    4  0.001  0.000  0.002  0.003
    5  0.000  0.001  0.005  0.006
    6  0.003  0.001  0.003  0.007
    7  0.000  0.000  0.002  0.003
    8  0.006  0.001  0.003  0.009
    9  0.000  0.000  0.001  0.001
   10  0.030  0.002  0.012  0.043
   11  0.033  0.002  0.014  0.049
   12  0.000  0.000  0.032  0.032
   13  0.000  0.004  0.022  0.026
   14  0.035  0.001  0.014  0.050
   15  0.000  0.001  0.009  0.010
   16  0.028  0.002  0.013  0.043
   17  0.000  0.003  0.006  0.009
   18  0.000  0.001  0.009  0.010
   19  0.009  0.001  0.010  0.021
   20  0.053  0.001  0.019  0.074
   21  0.000  0.002  0.040  0.042
   22  0.000  0.001  0.024  0.025
   23  0.051  0.001  0.020  0.072
   24  0.010  0.001  0.010  0.021
   25  0.009  0.001  0.011  0.021
   26  0.000  0.004  0.004  0.008
   27  0.010  0.001  0.010  0.021
   28  0.000  0.000  0.001  0.002
   29  0.004  0.001  0.004  0.009
   30  0.000  0.000  0.002  0.003
   31  0.005  0.001  0.004  0.010
   32  0.000  0.000  0.002  0.002
   33  0.005  0.001  0.004  0.010
   34  0.004  0.001  0.004  0.009
   35  0.000  0.000  0.004  0.004
   36  0.000  0.005  0.012  0.017
   37  0.000  0.000  0.000  0.000
   38  0.000  0.000  0.000  0.000
tot    0.305  0.046  0.348  0.699
 
band     9 # energy   -5.91015475 # occ.  2.00000000
 
ion      s      p      d    tot
    1  0.020  0.000  0.015  0.035
    2  0.014  0.000  0.016  0.030
    3  0.014  0.000  0.016  0.030
    4  0.014  0.000  0.016  0.030
    5  0.008  0.000  0.017  0.026
    6  0.014  0.000  0.016  0.030
    7  0.014  0.000  0.016  0.030
    8  0.014  0.000  0.016  0.030
    9  0.015  0.000  0.013  0.029
   10  0.003  0.000  0.030  0.033
   11  0.014  0.000  0.022  0.037
   12  0.003  0.000  0.030  0.033
   13  0.014  0.000  0.022  0.037
   14  0.014  0.000  0.022  0.037
   15  0.007  0.000  0.024  0.031
   16  0.003  0.000  0.030  0.033
   17  0.007  0.000  0.024  0.031
   18  0.007  0.000  0.024  0.031
   19  0.007  0.000  0.008  0.015
   20  0.001  0.000  0.022  0.024
   21  0.001  0.000  0.022  0.024
   22  0.000  0.000  0.012  0.012
   23  0.001  0.000  0.022  0.024
   24  0.000  0.000  0.012  0.012
   25  0.007  0.000  0.008  0.015
   26  0.007  0.000  0.008  0.015
   27  0.000  0.000  0.012  0.012
   28  0.000  0.000  0.002  0.002
   29  0.001  0.000  0.002  0.003
   30  0.001  0.000  0.002  0.003
   31  0.001  0.000  0.002  0.003
   32  0.001  0.000  0.002  0.003
   33  0.001  0.000  0.002  0.003
   34  0.001  0.000  0.002  0.003
   35  0.002  0.000  0.001  0.003
   36  0.001  0.000  0.005  0.006
   37  0.000  0.000  0.000  0.000
   38  0.000  0.000  0.000  0.000
tot    0.232  0.006  0.515  0.753
 
band    10 # energy   -5.86061736 # occ.  2.00000000
 
ion      s      p      d    tot
    1  0.004  0.001  0.002  0.007
    2  0.001  0.001  0.007  0.008
    3  0.001  0.001  0.007  0.008
    4  0.001  0.001  0.007  0.008
    5  0.021  0.002  0.000  0.023
    6  0.001  0.001  0.007  0.008
    7  0.001  0.001  0.007  0.008
    8  0.001  0.001  0.007  0.008
    9  0.000  0.000  0.003  0.004
   10  0.023  0.003  0.002  0.028
   11  0.020  0.001  0.021  0.042
   12  0.023  0.003  0.002  0.028
   13  0.020  0.001  0.021  0.042
   14  0.020  0.001  0.021  0.042
   15  0.002  0.001  0.025  0.028
   16  0.023  0.003  0.002  0.028
   17  0.002  0.001  0.025  0.028
   18  0.002  0.001  0.025  0.028
   19  0.020  0.002  0.008  0.030
   20  0.009  0.003  0.016  0.027
   21  0.009  0.003  0.016  0.027
   22  0.006  0.000  0.025  0.032
   23  0.009  0.003  0.016  0.027
   24  0.006  0.000  0.025  0.032
   25  0.020  0.002  0.009  0.030
   26  0.020  0.002  0.008  0.030
   27  0.006  0.000  0.025  0.032
   28  0.014  0.001  0.000  0.015
   29  0.000  0.000  0.004  0.005
   30  0.000  0.000  0.004  0.005
   31  0.000  0.000  0.004  0.005
   32  0.000  0.000  0.004  0.005
   33  0.000  0.000  0.004  0.005
   34  0.000  0.000  0.004  0.005
   35  0.001  0.001  0.003  0.005
   36  0.000  0.001  0.000  0.001
   37  0.000  0.000  0.000  0.000
   38  0.000  0.001  0.000  0.001
tot    0.291  0.039  0.368  0.698
 
band    11 # energy   -5.84127889 # occ.  2.00000000
 
ion      s      p      d    tot
    1  0.000  0.001  0.003  0.004
    2  0.007  0.001  0.004  0.012
    3  0.008  0.001  0.004  0.014
    4  0.001  0.001  0.004  0.005
    5  0.000  0.000  0.005  0.005
    6  0.000  0.000  0.003  0.004
    7  0.006  0.001  0.003  0.011
    8  0.003  0.001  0.003  0.007
    9  0.000  0.001  0.011  0.012
   10  0.018  0.001  0.015  0.034
   11  0.000  0.001  0.028  0.030
   12  0.012  0.002  0.011  0.025
   13  0.007  0.001  0.016  0.024
   14  0.011  0.001  0.009  0.021
   15  0.002  0.001  0.039  0.042
   16  0.001  0.005  0.003  0.008
   17  0.037  0.001  0.020  0.059
   18  0.056  0.001  0.010  0.068
   19  0.001  0.000  0.034  0.035
   20  0.000  0.001  0.016  0.016
   21  0.000  0.001  0.014  0.015
   22  0.022  0.002  0.014  0.037
   23  0.000  0.002  0.011  0.013
   24  0.033  0.001  0.011  0.045
   25  0.032  0.002  0.007  0.040
   26  0.021  0.001  0.016  0.039
   27  0.001  0.003  0.018  0.022
   28  0.000  0.000  0.006  0.006
   29  0.000  0.000  0.001  0.002
   30  0.001  0.000  0.001  0.002
   31  0.002  0.000  0.002  0.004
   32  0.003  0.001  0.002  0.006
   33  0.003  0.001  0.002  0.006
   34  0.005  0.001  0.002  0.008
   35  0.000  0.001  0.004  0.005
   36  0.000  0.000  0.001  0.001
   37  0.000  0.001  0.000  0.001
   38  0.000  0.002  0.000  0.002
tot    0.293  0.044  0.355  0.693
 
band    12 # energy   -5.84125697 # occ.  2.00000000
 
ion      s      p      d    tot
    1  0.000  0.001  0.003  0.004
    2  0.002  0.001  0.003  0.006
    3  0.000  0.000  0.003  0.004
    4  0.007  0.001  0.004  0.012
    5  0.000  0.000  0.005  0.005
    6  0.009  0.001  0.004  0.014
    7  0.002  0.001  0.004  0.007
    8  0.005  0.001  0.004  0.010
    9  0.000  0.001  0.011  0.012
   10  0.002  0.004  0.004  0.011
   11  0.012  0.001  0.007  0.020
   12  0.009  0.003  0.008  0.020
   13  0.005  0.001  0.020  0.026
   14  0.001  0.001  0.026  0.029
   15  0.062  0.001  0.007  0.070
   16  0.020  0.000  0.016  0.037
   17  0.026  0.001  0.026  0.054
   18  0.008  0.001  0.036  0.045
   19  0.035  0.002  0.004  0.041
   20  0.000  0.002  0.011  0.013
   21  0.000  0.002  0.013  0.015
   22  0.015  0.002  0.015  0.033
   23  0.000  0.001  0.016  0.017
   24  0.004  0.003  0.017  0.025
   25  0.004  0.000  0.031  0.036
   26  0.015  0.001  0.022  0.038
   27  0.036  0.001  0.011  0.047
   28  0.000  0.000  0.006  0.006
   29  0.005  0.001  0.002  0.008
   30  0.004  0.001  0.002  0.007
   31  0.003  0.000  0.002  0.005
   32  0.001  0.000  0.002  0.003
   33  0.001  0.000  0.002  0.003
   34  0.000  0.000  0.001  0.002
   35  0.000  0.001  0.004  0.005
   36  0.000  0.000  0.001  0.001
   37  0.000  0.001  0.000  0.001
   38  0.000  0.002  0.000  0.002
tot    0.293  0.044  0.355  0.693
 
band    13 # energy   -5.59653919 # occ.  2.00000000
 
ion      s      p      d    tot
    1  0.002  0.000  0.000  0.003
    2  0.000  0.001  0.005  0.006
    3  0.000  0.001  0.005  0.006
    4  0.000  0.001  0.005  0.006
    5  0.007  0.000  0.000  0.007
    6  0.000  0.001  0.005  0.006
    7  0.000  0.001  0.005  0.006
    8  0.000  0.001  0.005  0.006
    9  0.009  0.002  0.003  0.013
   10  0.003  0.000  0.028  0.031
   11  0.004  0.002  0.006  0.012
   12  0.003  0.000  0.028  0.031
   13  0.004  0.002  0.006  0.012
   14  0.004  0.002  0.006  0.012
   15  0.023  0.002  0.008  0.033
   16  0.003  0.000  0.028  0.031
   17  0.023  0.002  0.008  0.033
   18  0.023  0.002  0.008  0.033
   19  0.004  0.001  0.002  0.008
   20  0.000  0.002  0.023  0.025
   21  0.000  0.002  0.023  0.025
   22  0.003  0.002  0.012  0.016
   23  0.000  0.002  0.023  0.025
   24  0.003  0.002  0.012  0.016
   25  0.004  0.001  0.002  0.008
   26  0.004  0.001  0.002  0.008
   27  0.003  0.002  0.012  0.016
   28  0.015  0.000  0.002  0.017
   29  0.003  0.001  0.007  0.011
   30  0.003  0.001  0.007  0.011
   31  0.003  0.001  0.007  0.011
   32  0.003  0.001  0.007  0.011
   33  0.003  0.001  0.007  0.011
   34  0.003  0.001  0.007  0.011
   35  0.007  0.000  0.004  0.011
   36  0.030  0.003  0.046  0.078
   37  0.006  0.061  0.000  0.067
   38  0.006  0.077  0.000  0.083
tot    0.213  0.175  0.371  0.759
 
band    14 # energy   -5.47653588 # occ.  2.00000000
 
ion      s      p      d    tot
    1  0.000  0.000  0.000  0.000
    2  0.000  0.000  0.000  0.000
    3  0.000  0.000  0.000  0.000
    4  0.000  0.000  0.000  0.000
    5  0.000  0.000  0.000  0.000
    6  0.000  0.000  0.000  0.000
    7  0.000  0.000  0.000  0.000
    8  0.000  0.000  0.000  0.000
    9  0.000  0.000  0.000  0.000
   10  0.000  0.000  0.000  0.000
   11  0.000  0.000  0.001  0.001
   12  0.000  0.000  0.001  0.001
   13  0.000  0.000  0.001  0.001
   14  0.001  0.000  0.000  0.001
   15  0.000  0.000  0.000  0.001
   16  0.000  0.000  0.001  0.001
   17  0.000  0.000  0.000  0.001
   18  0.001  0.000  0.000  0.002
   19  0.000  0.000  0.002  0.002
   20  0.001  0.000  0.002  0.002
   21  0.000  0.000  0.001  0.002
   22  0.000  0.000  0.000  0.001
   23  0.000  0.000  0.001  0.002
   24  0.000  0.000  0.001  0.001
   25  0.001  0.000  0.000  0.002
   26  0.000  0.000  0.002  0.002
   27  0.000  0.000  0.000  0.001
   28  0.000  0.000  0.003  0.003
   29  0.005  0.001  0.003  0.008
   30  0.000  0.000  0.003  0.003
   31  0.005  0.001  0.003  0.008
   32  0.004  0.001  0.003  0.007
   33  0.000  0.000  0.003  0.003
   34  0.004  0.001  0.003  0.007
   35  0.000  0.000  0.003  0.003
   36  0.000  0.006  0.015  0.021
   37  0.000  0.164  0.000  0.164
   38  0.000  0.423  0.000  0.423
tot    0.025  0.598  0.052  0.675
 
band    15 # energy   -5.47644730 # occ.  2.00000000
 
ion      s      p      d    tot
    1  0.000  0.000  0.000  0.000
    2  0.000  0.000  0.000  0.000
    3  0.000  0.000  0.000  0.000
    4  0.000  0.000  0.000  0.000
    5  0.000  0.000  0.000  0.000
    6  0.000  0.000  0.000  0.000
    7  0.000  0.000  0.000  0.000
    8  0.000  0.000  0.000  0.000
    9  0.000  0.000  0.000  0.000
   10  0.000  0.000  0.001  0.001
   11  0.001  0.000  0.000  0.001
   12  0.000  0.000  0.000  0.001
   13  0.001  0.000  0.000  0.001
   14  0.000  0.000  0.002  0.002
   15  0.001  0.000  0.000  0.001
   16  0.000  0.000  0.000  0.001
   17  0.001  0.000  0.000  0.001
   18  0.000  0.000  0.000  0.000
   19  0.001  0.000  0.001  0.002
   20  0.000  0.000  0.001  0.001
   21  0.000  0.000  0.002  0.002
   22  0.000  0.000  0.000  0.001
   23  0.000  0.000  0.002  0.002
   24  0.000  0.000  0.000  0.001
   25  0.000  0.000  0.002  0.002
   26  0.001  0.000  0.001  0.002
   27  0.000  0.000  0.000  0.001
   28  0.000  0.000  0.003  0.003
   29  0.001  0.000  0.003  0.004
   30  0.006  0.001  0.003  0.009
   31  0.001  0.000  0.003  0.004
   32  0.002  0.000  0.003  0.005
   33  0.006  0.001  0.003  0.009
   34  0.002  0.000  0.003  0.005
   35  0.000  0.000  0.003  0.003
   36  0.000  0.006  0.015  0.021
   37  0.000  0.164  0.000  0.164
   38  0.000  0.423  0.000  0.423
tot    0.025  0.597  0.053  0.675
 
band    16 # energy   -5.46140394 # occ.  2.00000000
 
ion      s      p      d    tot
    1  0.000  0.001  0.004  0.005
    2  0.009  0.001  0.004  0.014
    3  0.000  0.000  0.004  0.005
    4  0.007  0.001  0.003  0.012
    5  0.000  0.001  0.009  0.011
    6  0.003  0.001  0.005  0.008
    7  0.002  0.000  0.004  0.006
    8  0.007  0.001  0.005  0.012
    9  0.000  0.000  0.008  0.008
   10  0.010  0.002  0.010  0.021
   11  0.010  0.001  0.029  0.040
   12  0.001  0.001  0.046  0.047
   13  0.002  0.000  0.041  0.043
   14  0.021  0.001  0.012  0.034
   15  0.001  0.001  0.016  0.017
   16  0.005  0.001  0.031  0.037
   17  0.000  0.001  0.013  0.014
   18  0.001  0.000  0.020  0.021
   19  0.002  0.000  0.014  0.016
   20  0.018  0.001  0.010  0.030
   21  0.002  0.000  0.083  0.085
   22  0.000  0.001  0.029  0.030
   23  0.008  0.001  0.053  0.062
   24  0.005  0.001  0.015  0.021
   25  0.003  0.000  0.019  0.023
   26  0.000  0.001  0.010  0.011
   27  0.002  0.001  0.023  0.026
   28  0.000  0.000  0.007  0.007
   29  0.005  0.001  0.006  0.012
   30  0.002  0.000  0.004  0.007
   31  0.002  0.001  0.004  0.007
   32  0.006  0.001  0.006  0.013
   33  0.000  0.000  0.004  0.004
   34  0.007  0.001  0.007  0.016
   35  0.000  0.000  0.002  0.002
   36  0.000  0.004  0.014  0.018
   37  0.000  0.004  0.000  0.004
   38  0.000  0.010  0.000  0.010
tot    0.141  0.044  0.572  0.758
 
band    17 # energy   -5.46140323 # occ.  2.00000000
 
ion      s      p      d    tot
    1  0.000  0.001  0.004  0.005
    2  0.000  0.000  0.004  0.005
    3  0.009  0.001  0.004  0.015
    4  0.002  0.001  0.005  0.008
    5  0.000  0.001  0.009  0.011
    6  0.006  0.001  0.003  0.011
    7  0.007  0.001  0.004  0.013
    8  0.003  0.000  0.004  0.007
    9  0.000  0.000  0.008  0.008
   10  0.000  0.001  0.048  0.049
   11  0.012  0.001  0.026  0.039
   12  0.009  0.002  0.012  0.023
   13  0.020  0.001  0.014  0.035
   14  0.001  0.000  0.043  0.044
   15  0.001  0.001  0.017  0.018
   16  0.006  0.001  0.027  0.033
   17  0.001  0.000  0.019  0.021
   18  0.000  0.001  0.012  0.014
   19  0.002  0.000  0.015  0.017
   20  0.001  0.000  0.087  0.088
   21  0.017  0.001  0.015  0.033
   22  0.005  0.001  0.016  0.021
   23  0.010  0.001  0.045  0.056
   24  0.000  0.001  0.030  0.030
   25  0.000  0.001  0.009  0.010
   26  0.003  0.000  0.019  0.022
   27  0.003  0.001  0.021  0.025
   28  0.000  0.000  0.007  0.007
   29  0.002  0.001  0.005  0.008
   30  0.006  0.001  0.006  0.013
   31  0.005  0.001  0.006  0.012
   32  0.001  0.001  0.004  0.006
   33  0.007  0.001  0.007  0.016
   34  0.000  0.000  0.004  0.004
   35  0.000  0.000  0.002  0.002
   36  0.000  0.004  0.014  0.018
   37  0.000  0.004  0.000  0.004
   38  0.000  0.011  0.000  0.011
tot    0.141  0.044  0.572  0.758
 
band    18 # energy   -5.44206255 # occ.  2.00000000
 
ion      s      p      d    tot
    1  0.015  0.002  0.002  0.019
    2  0.000  0.001  0.007  0.008
    3  0.000  0.001  0.007  0.008
    4  0.000  0.001  0.007  0.008
    5  0.000  0.000  0.002  0.002
    6  0.000  0.001  0.007  0.008
    7  0.000  0.001  0.007  0.008
    8  0.000  0.001  0.007  0.008
    9  0.012  0.001  0.000  0.013
   10  0.010  0.001  0.012  0.023
   11  0.004  0.000  0.042  0.046
   12  0.010  0.001  0.012  0.023
   13  0.004  0.000  0.042  0.046
   14  0.004  0.000  0.042  0.046
   15  0.002  0.001  0.022  0.026
   16  0.010  0.001  0.012  0.023
   17  0.002  0.001  0.022  0.026
   18  0.002  0.001  0.022  0.026
   19  0.004  0.001  0.009  0.014
   20  0.000  0.000  0.058  0.058
   21  0.000  0.000  0.058  0.058
   22  0.011  0.001  0.022  0.034
   23  0.000  0.000  0.058  0.058
   24  0.011  0.001  0.022  0.034
   25  0.004  0.001  0.009  0.014
   26  0.004  0.001  0.009  0.014
   27  0.011  0.001  0.022  0.034
   28  0.016  0.001  0.000  0.017
   29  0.000  0.000  0.008  0.008
   30  0.000  0.000  0.008  0.008
   31  0.000  0.000  0.008  0.008
   32  0.000  0.000  0.008  0.008
   33  0.000  0.000  0.008  0.008
   34  0.000  0.000  0.008  0.008
   35  0.003  0.001  0.004  0.008
   36  0.001  0.000  0.003  0.005
   37  0.000  0.000  0.000  0.000
   38  0.000  0.000  0.000  0.000
tot    0.141  0.026  0.593  0.761
 
band    19 # energy   -5.36194261 # occ.  2.00000000
 
ion      s      p      d    tot
    1  0.000  0.001  0.014  0.015
    2  0.002  0.000  0.005  0.007
    3  0.009  0.001  0.004  0.014
    4  0.005  0.001  0.005  0.011
    5  0.000  0.000  0.006  0.006
    6  0.009  0.001  0.004  0.015
    7  0.003  0.001  0.005  0.009
    8  0.000  0.000  0.005  0.006
    9  0.000  0.001  0.006  0.007
   10  0.007  0.000  0.023  0.030
   11  0.000  0.001  0.020  0.021
   12  0.000  0.001  0.032  0.032
   13  0.000  0.001  0.017  0.018
   14  0.000  0.001  0.019  0.021
   15  0.011  0.002  0.014  0.027
   16  0.009  0.000  0.020  0.030
   17  0.000  0.000  0.060  0.060
   18  0.008  0.002  0.026  0.036
   19  0.016  0.001  0.013  0.030
   20  0.000  0.001  0.025  0.026
   21  0.000  0.002  0.022  0.024
   22  0.000  0.001  0.029  0.030
   23  0.000  0.001  0.026  0.027
   24  0.014  0.001  0.021  0.036
   25  0.012  0.001  0.027  0.040
   26  0.000  0.000  0.066  0.067
   27  0.019  0.001  0.019  0.038
   28  0.000  0.001  0.005  0.006
   29  0.000  0.001  0.006  0.007
   30  0.005  0.001  0.004  0.010
   31  0.005  0.001  0.003  0.009
   32  0.006  0.001  0.003  0.010
   33  0.004  0.001  0.003  0.008
   34  0.000  0.000  0.006  0.006
   35  0.000  0.001  0.008  0.009
   36  0.000  0.000  0.004  0.004
   37  0.000  0.000  0.000  0.000
   38  0.000  0.000  0.000  0.000
tot    0.147  0.028  0.575  0.751
 
band    20 # energy   -5.36193830 # occ.  2.00000000
 
ion      s      p      d    tot
    1  0.000  0.001  0.014  0.015
    2  0.008  0.001  0.005  0.013
    3  0.001  0.001  0.005  0.007
    4  0.004  0.001  0.005  0.009
    5  0.000  0.000  0.006  0.006
    6  0.000  0.000  0.005  0.006
    7  0.007  0.001  0.004  0.012
    8  0.009  0.001  0.004  0.015
    9  0.000  0.001  0.006  0.007
   10  0.004  0.000  0.027  0.031
   11  0.000  0.001  0.017  0.018
   12  0.011  0.000  0.018  0.029
   13  0.000  0.001  0.021  0.022
   14  0.000  0.001  0.018  0.019
   15  0.002  0.000  0.053  0.055
   16  0.002  0.001  0.030  0.032
   17  0.013  0.002  0.007  0.022
   18  0.005  0.001  0.040  0.046
   19  0.003  0.000  0.058  0.061
   20  0.000  0.001  0.024  0.025
   21  0.000  0.000  0.027  0.027
   22  0.022  0.001  0.017  0.040
   23  0.000  0.002  0.023  0.024
   24  0.008  0.001  0.024  0.033
   25  0.007  0.001  0.044  0.051
   26  0.018  0.001  0.005  0.024
   27  0.003  0.001  0.027  0.031
   28  0.000  0.001  0.005  0.006
   29  0.007  0.001  0.002  0.010
   30  0.002  0.000  0.004  0.007
   31  0.001  0.001  0.006  0.008
   32  0.001  0.000  0.005  0.006
   33  0.003  0.001  0.005  0.009
   34  0.007  0.001  0.003  0.010
   35  0.000  0.001  0.008  0.009
   36  0.000  0.000  0.004  0.004
   37  0.000  0.000  0.000  0.000
   38  0.000  0.000  0.000  0.000
tot    0.147  0.028  0.575  0.751
 
band    21 # energy   -5.26466855 # occ.  2.00000000
 
ion      s      p      d    tot
    1  0.011  0.000  0.001  0.012
    2  0.000  0.000  0.009  0.009
    3  0.000  0.000  0.009  0.009
    4  0.000  0.000  0.009  0.009
    5  0.015  0.002  0.001  0.018
    6  0.000  0.000  0.009  0.009
    7  0.000  0.000  0.009  0.009
    8  0.000  0.000  0.009  0.009
    9  0.000  0.000  0.002  0.002
   10  0.000  0.000  0.028  0.028
   11  0.003  0.001  0.022  0.026
   12  0.000  0.000  0.028  0.028
   13  0.003  0.001  0.022  0.026
   14  0.003  0.001  0.022  0.026
   15  0.001  0.000  0.018  0.020
   16  0.000  0.000  0.028  0.028