PROCAR new format
# of k-points:   10         # of bands:  252         # of ions:   36

 k-point     1 :    0.00000000 0.00000000 0.00000000     weight = 0.01562500

band     1 # energy  -49.25319350 # occ.  2.00000000
 
ion      s      p      d    tot
    1  0.000  0.000  0.000  0.000
    2  0.000  0.000  0.000  0.000
    3  0.000  0.000  0.000  0.000
    4  0.000  0.000  0.000  0.000
    5  0.000  0.000  0.000  0.000
    6  0.000  0.000  0.000  0.000
    7  0.000  0.000  0.000  0.000
    8  0.000  0.000  0.000  0.000
    9  0.000  0.000  0.000  0.000
   10  0.000  0.000  0.000  0.000
   11  0.000  0.000  0.000  0.000
   12  0.000  0.000  0.000  0.000
   13  0.000  0.000  0.000  0.000
   14  0.000  0.000  0.000  0.000
   15  0.000  0.000  0.000  0.000
   16  0.000  0.000  0.000  0.000
   17  0.000  0.000  0.000  0.000
   18  0.000  0.000  0.000  0.000
   19  0.000  0.000  0.000  0.000
   20  0.000  0.000  0.000  0.000
   21  0.000  0.000  0.000  0.000
   22  0.000  0.000  0.000  0.000
   23  0.000  0.000  0.000  0.000
   24  0.000  0.000  0.000  0.000
   25  0.000  0.000  0.000  0.000
   26  0.000  0.000  0.000  0.000
   27  0.000  0.000  0.000  0.000
   28  0.000  0.000  0.000  0.000
   29  0.000  0.000  0.000  0.000
   30  0.000  0.000  0.000  0.000
   31  0.000  0.000  0.000  0.000
   32  0.000  0.000  0.000  0.000
   33  0.000  0.000  0.000  0.000
   34  0.000  0.000  0.000  0.000
   35  0.000  0.000  0.000  0.000
   36  0.993  0.000  0.000  0.993
tot    0.993  0.000  0.000  0.993
 
band     2 # energy  -27.32590493 # occ.  2.00000000
 
ion      s      p      d    tot
    1  0.000  0.000  0.000  0.000
    2  0.000  0.000  0.000  0.000
    3  0.000  0.000  0.000  0.000
    4  0.000  0.000  0.000  0.000
    5  0.000  0.000  0.000  0.000
    6  0.000  0.000  0.000  0.000
    7  0.000  0.000  0.000  0.000
    8  0.000  0.000  0.000  0.000
    9  0.000  0.000  0.000  0.000
   10  0.000  0.000  0.000  0.000
   11  0.000  0.000  0.000  0.000
   12  0.000  0.000  0.000  0.000
   13  0.000  0.000  0.000  0.000
   14  0.000  0.000  0.000  0.000
   15  0.000  0.000  0.000  0.000
   16  0.000  0.000  0.000  0.000
   17  0.000  0.000  0.000  0.000
   18  0.000  0.000  0.000  0.000
   19  0.000  0.000  0.000  0.000
   20  0.000  0.000  0.000  0.001
   21  0.000  0.000  0.000  0.001
   22  0.000  0.000  0.000  0.000
   23  0.000  0.000  0.000  0.001
   24  0.000  0.000  0.000  0.000
   25  0.000  0.000  0.000  0.000
   26  0.000  0.000  0.000  0.000
   27  0.000  0.000  0.000  0.000
   28  0.000  0.000  0.000  0.000
   29  0.000  0.000  0.000  0.000
   30  0.000  0.000  0.000  0.000
   31  0.000  0.000  0.000  0.000
   32  0.000  0.000  0.000  0.000
   33  0.000  0.000  0.000  0.000
   34  0.000  0.000  0.000  0.000
   35  0.000  0.000  0.000  0.000
   36  0.000  0.973  0.000  0.973
tot    0.000  0.974  0.001  0.975
 
band     3 # energy  -27.20326158 # occ.  2.00000000
 
ion      s      p      d    tot
    1  0.000  0.000  0.000  0.000
    2  0.000  0.000  0.000  0.000
    3  0.000  0.000  0.000  0.000
    4  0.000  0.000  0.000  0.000
    5  0.000  0.000  0.000  0.000
    6  0.000  0.000  0.000  0.000
    7  0.000  0.000  0.000  0.000
    8  0.000  0.000  0.000  0.000
    9  0.000  0.000  0.000  0.000
   10  0.000  0.000  0.000  0.000
   11  0.000  0.000  0.000  0.000
   12  0.000  0.000  0.000  0.000
   13  0.000  0.000  0.000  0.000
   14  0.000  0.000  0.000  0.000
   15  0.000  0.000  0.000  0.000
   16  0.000  0.000  0.000  0.000
   17  0.000  0.000  0.000  0.000
   18  0.000  0.000  0.000  0.000
   19  0.000  0.000  0.000  0.000
   20  0.000  0.000  0.000  0.000
   21  0.000  0.000  0.000  0.000
   22  0.000  0.000  0.000  0.000
   23  0.000  0.000  0.000  0.000
   24  0.000  0.000  0.000  0.000
   25  0.000  0.000  0.000  0.000
   26  0.000  0.000  0.000  0.000
   27  0.000  0.000  0.000  0.000
   28  0.000  0.000  0.000  0.000
   29  0.000  0.000  0.000  0.000
   30  0.000  0.000  0.000  0.001
   31  0.000  0.000  0.000  0.000
   32  0.000  0.000  0.000  0.000
   33  0.000  0.000  0.000  0.001
   34  0.000  0.000  0.000  0.000
   35  0.000  0.000  0.000  0.000
   36  0.000  0.970  0.000  0.970
tot    0.001  0.971  0.001  0.973
 
band     4 # energy  -27.20324941 # occ.  2.00000000
 
ion      s      p      d    tot
    1  0.000  0.000  0.000  0.000
    2  0.000  0.000  0.000  0.000
    3  0.000  0.000  0.000  0.000
    4  0.000  0.000  0.000  0.000
    5  0.000  0.000  0.000  0.000
    6  0.000  0.000  0.000  0.000
    7  0.000  0.000  0.000  0.000
    8  0.000  0.000  0.000  0.000
    9  0.000  0.000  0.000  0.000
   10  0.000  0.000  0.000  0.000
   11  0.000  0.000  0.000  0.000
   12  0.000  0.000  0.000  0.000
   13  0.000  0.000  0.000  0.000
   14  0.000  0.000  0.000  0.000
   15  0.000  0.000  0.000  0.000
   16  0.000  0.000  0.000  0.000
   17  0.000  0.000  0.000  0.000
   18  0.000  0.000  0.000  0.000
   19  0.000  0.000  0.000  0.000
   20  0.000  0.000  0.000  0.000
   21  0.000  0.000  0.000  0.000
   22  0.000  0.000  0.000  0.000
   23  0.000  0.000  0.000  0.000
   24  0.000  0.000  0.000  0.000
   25  0.000  0.000  0.000  0.000
   26  0.000  0.000  0.000  0.000
   27  0.000  0.000  0.000  0.000
   28  0.000  0.000  0.000  0.000
   29  0.000  0.000  0.000  0.001
   30  0.000  0.000  0.000  0.000
   31  0.000  0.000  0.000  0.001
   32  0.000  0.000  0.000  0.001
   33  0.000  0.000  0.000  0.000
   34  0.000  0.000  0.000  0.001
   35  0.000  0.000  0.000  0.000
   36  0.000  0.970  0.000  0.970
tot    0.001  0.971  0.001  0.973
 
band     5 # energy   -7.94755593 # occ.  2.00000000
 
ion      s      p      d    tot
    1  0.007  0.001  0.000  0.007
    2  0.006  0.001  0.000  0.007
    3  0.006  0.001  0.000  0.007
    4  0.006  0.001  0.000  0.007
    5  0.007  0.001  0.000  0.007
    6  0.006  0.001  0.000  0.007
    7  0.006  0.001  0.000  0.007
    8  0.006  0.001  0.000  0.007
    9  0.006  0.001  0.000  0.007
   10  0.027  0.000  0.000  0.027
   11  0.027  0.000  0.000  0.027
   12  0.027  0.000  0.000  0.027
   13  0.027  0.000  0.000  0.027
   14  0.027  0.000  0.000  0.027
   15  0.026  0.000  0.000  0.026
   16  0.027  0.000  0.000  0.027
   17  0.026  0.000  0.000  0.026
   18  0.026  0.000  0.000  0.026
   19  0.024  0.000  0.000  0.024
   20  0.027  0.000  0.000  0.027
   21  0.027  0.000  0.000  0.027
   22  0.024  0.000  0.000  0.024
   23  0.027  0.000  0.000  0.027
   24  0.024  0.000  0.000  0.024
   25  0.024  0.000  0.000  0.024
   26  0.024  0.000  0.000  0.024
   27  0.024  0.000  0.000  0.024
   28  0.005  0.000  0.000  0.006
   29  0.005  0.000  0.000  0.005
   30  0.005  0.000  0.000  0.005
   31  0.005  0.000  0.000  0.005
   32  0.005  0.000  0.000  0.005
   33  0.005  0.000  0.000  0.005
   34  0.005  0.000  0.000  0.005
   35  0.005  0.000  0.000  0.006
   36  0.003  0.000  0.000  0.003
tot    0.562  0.011  0.003  0.576
 
band     6 # energy   -6.79292765 # occ.  2.00000000
 
ion      s      p      d    tot
    1  0.016  0.000  0.001  0.018
    2  0.016  0.000  0.001  0.018
    3  0.016  0.000  0.001  0.018
    4  0.016  0.000  0.001  0.018
    5  0.016  0.000  0.001  0.017
    6  0.016  0.000  0.001  0.018
    7  0.016  0.000  0.001  0.018
    8  0.016  0.000  0.001  0.018
    9  0.016  0.000  0.001  0.017
   10  0.011  0.001  0.002  0.015
   11  0.010  0.001  0.002  0.014
   12  0.011  0.001  0.002  0.015
   13  0.010  0.001  0.002  0.014
   14  0.010  0.001  0.002  0.014
   15  0.010  0.001  0.002  0.014
   16  0.011  0.001  0.002  0.015
   17  0.010  0.001  0.002  0.014
   18  0.010  0.001  0.002  0.014
   19  0.012  0.001  0.003  0.017
   20  0.014  0.001  0.004  0.018
   21  0.014  0.001  0.004  0.018
   22  0.013  0.001  0.003  0.017
   23  0.014  0.001  0.004  0.018
   24  0.013  0.001  0.003  0.017
   25  0.012  0.001  0.003  0.017
   26  0.012  0.001  0.003  0.017
   27  0.013  0.001  0.003  0.017
   28  0.016  0.000  0.001  0.018
   29  0.016  0.000  0.001  0.018
   30  0.016  0.000  0.001  0.018
   31  0.016  0.000  0.001  0.018
   32  0.016  0.000  0.001  0.018
   33  0.016  0.000  0.001  0.018
   34  0.016  0.000  0.001  0.018
   35  0.016  0.000  0.001  0.018
   36  0.007  0.000  0.000  0.007
tot    0.492  0.030  0.067  0.589
 
band     7 # energy   -5.88625333 # occ.  2.00000000
 
ion      s      p      d    tot
    1  0.003  0.000  0.006  0.009
    2  0.007  0.000  0.005  0.011
    3  0.007  0.000  0.005  0.011
    4  0.007  0.000  0.005  0.011
    5  0.005  0.000  0.004  0.009
    6  0.007  0.000  0.005  0.011
    7  0.007  0.000  0.005  0.011
    8  0.007  0.000  0.005  0.011
    9  0.015  0.000  0.003  0.018
   10  0.003  0.001  0.004  0.008
   11  0.003  0.001  0.002  0.006
   12  0.003  0.001  0.004  0.008
   13  0.003  0.001  0.002  0.006
   14  0.003  0.001  0.002  0.006
   15  0.002  0.001  0.002  0.004
   16  0.003  0.001  0.004  0.008
   17  0.002  0.001  0.002  0.004
   18  0.002  0.001  0.002  0.004
   19  0.003  0.001  0.016  0.020
   20  0.020  0.001  0.017  0.038
   21  0.020  0.001  0.017  0.038
   22  0.000  0.001  0.011  0.012
   23  0.020  0.001  0.017  0.038
   24  0.000  0.001  0.011  0.012
   25  0.003  0.001  0.016  0.020
   26  0.003  0.001  0.016  0.020
   27  0.000  0.001  0.011  0.012
   28  0.022  0.000  0.011  0.033
   29  0.020  0.000  0.016  0.037
   30  0.020  0.000  0.016  0.037
   31  0.020  0.000  0.016  0.037
   32  0.020  0.000  0.016  0.037
   33  0.020  0.000  0.016  0.037
   34  0.020  0.000  0.016  0.037
   35  0.031  0.000  0.013  0.044
   36  0.002  0.001  0.010  0.013
tot    0.333  0.021  0.329  0.683
 
band     8 # energy   -5.82162520 # occ.  2.00000000
 
ion      s      p      d    tot
    1  0.000  0.001  0.009  0.009
    2  0.003  0.001  0.003  0.007
    3  0.006  0.001  0.003  0.011
    4  0.003  0.001  0.003  0.007
    5  0.000  0.001  0.005  0.007
    6  0.001  0.000  0.003  0.004
    7  0.007  0.001  0.003  0.011
    8  0.001  0.000  0.003  0.004
    9  0.000  0.000  0.001  0.001
   10  0.000  0.000  0.037  0.037
   11  0.034  0.001  0.014  0.049
   12  0.032  0.002  0.012  0.046
   13  0.034  0.001  0.014  0.049
   14  0.000  0.004  0.019  0.023
   15  0.000  0.001  0.010  0.011
   16  0.032  0.002  0.013  0.046
   17  0.000  0.001  0.010  0.011
   18  0.000  0.003  0.007  0.010
   19  0.012  0.001  0.011  0.024
   20  0.000  0.002  0.042  0.043
   21  0.047  0.002  0.017  0.066
   22  0.008  0.001  0.010  0.020
   23  0.047  0.002  0.017  0.065
   24  0.000  0.001  0.022  0.023
   25  0.000  0.004  0.004  0.009
   26  0.012  0.001  0.011  0.024
   27  0.008  0.001  0.010  0.020
   28  0.000  0.001  0.002  0.002
   29  0.000  0.000  0.003  0.003
   30  0.004  0.001  0.003  0.008
   31  0.000  0.000  0.003  0.003
   32  0.005  0.001  0.004  0.010
   33  0.004  0.001  0.003  0.008
   34  0.005  0.001  0.004  0.010
   35  0.000  0.000  0.004  0.004
   36  0.000  0.001  0.005  0.006
tot    0.304  0.041  0.345  0.690
 
band     9 # energy   -5.82159700 # occ.  2.00000000
 
ion      s      p      d    tot
    1  0.000  0.001  0.009  0.009
    2  0.004  0.001  0.003  0.007
    3  0.000  0.000  0.003  0.004
    4  0.004  0.001  0.003  0.007
    5  0.000  0.001  0.005  0.006
    6  0.006  0.001  0.003  0.010
    7  0.000  0.000  0.003  0.004
    8  0.006  0.001  0.003  0.010
    9  0.000  0.000  0.001  0.001
   10  0.042  0.002  0.004  0.049
   11  0.011  0.003  0.017  0.032
   12  0.011  0.001  0.029  0.040
   13  0.011  0.003  0.017  0.032
   14  0.045  0.001  0.013  0.058
   15  0.000  0.002  0.008  0.010
   16  0.011  0.001  0.029  0.040
   17  0.000  0.002  0.008  0.010
   18  0.000  0.000  0.011  0.011
   19  0.004  0.003  0.007  0.014
   20  0.063  0.001  0.009  0.073
   21  0.015  0.002  0.034  0.051
   22  0.003  0.001  0.018  0.022
   23  0.016  0.002  0.033  0.051
   24  0.011  0.001  0.006  0.019
   25  0.016  0.000  0.013  0.030
   26  0.004  0.003  0.007  0.014
   27  0.003  0.001  0.018  0.022
   28  0.000  0.001  0.002  0.002
   29  0.006  0.001  0.004  0.011
   30  0.003  0.001  0.003  0.006
   31  0.006  0.001  0.004  0.011
   32  0.001  0.000  0.003  0.004
   33  0.003  0.001  0.003  0.006
   34  0.001  0.000  0.003  0.004
   35  0.000  0.000  0.004  0.004
   36  0.000  0.001  0.005  0.006
tot    0.304  0.041  0.345  0.690
 
band    10 # energy   -5.80789512 # occ.  2.00000000
 
ion      s      p      d    tot
    1  0.024  0.000  0.014  0.038
    2  0.016  0.000  0.017  0.033
    3  0.016  0.000  0.017  0.033
    4  0.016  0.000  0.017  0.033
    5  0.015  0.000  0.018  0.033
    6  0.016  0.000  0.017  0.033
    7  0.016  0.000  0.017  0.033
    8  0.016  0.000  0.017  0.033
    9  0.009  0.000  0.018  0.027
   10  0.002  0.000  0.031  0.034
   11  0.006  0.000  0.025  0.032
   12  0.002  0.000  0.031  0.034
   13  0.006  0.000  0.025  0.032
   14  0.006  0.000  0.025  0.032
   15  0.017  0.001  0.020  0.038
   16  0.002  0.000  0.031  0.034
   17  0.017  0.001  0.020  0.038
   18  0.017  0.001  0.020  0.038
   19  0.002  0.000  0.010  0.012
   20  0.006  0.000  0.014  0.020
   21  0.006  0.000  0.014  0.020
   22  0.000  0.001  0.009  0.010
   23  0.006  0.000  0.014  0.020
   24  0.000  0.001  0.009  0.010
   25  0.002  0.000  0.010  0.012
   26  0.002  0.000  0.010  0.012
   27  0.000  0.001  0.009  0.010
   28  0.000  0.000  0.000  0.000
   29  0.000  0.000  0.001  0.001
   30  0.000  0.000  0.001  0.001
   31  0.000  0.000  0.001  0.001
   32  0.000  0.000  0.001  0.001
   33  0.000  0.000  0.001  0.001
   34  0.000  0.000  0.001  0.001
   35  0.002  0.000  0.000  0.002
   36  0.000  0.000  0.001  0.002
tot    0.247  0.008  0.486  0.741
 
band    11 # energy   -5.78918785 # occ.  2.00000000
 
ion      s      p      d    tot
    1  0.010  0.002  0.002  0.014
    2  0.000  0.001  0.006  0.006
    3  0.000  0.001  0.006  0.006
    4  0.000  0.001  0.006  0.006
    5  0.011  0.001  0.000  0.012
    6  0.000  0.001  0.006  0.006
    7  0.000  0.001  0.006  0.006
    8  0.000  0.001  0.006  0.006
    9  0.001  0.000  0.001  0.002
   10  0.032  0.002  0.002  0.036
   11  0.009  0.000  0.028  0.037
   12  0.031  0.002  0.002  0.036
   13  0.009  0.000  0.028  0.037
   14  0.009  0.000  0.028  0.037
   15  0.001  0.002  0.015  0.018
   16  0.031  0.002  0.002  0.036
   17  0.001  0.002  0.015  0.018
   18  0.001  0.002  0.015  0.018
   19  0.015  0.003  0.006  0.024
   20  0.001  0.001  0.029  0.032
   21  0.001  0.001  0.029  0.032
   22  0.022  0.000  0.019  0.041
   23  0.001  0.001  0.029  0.032
   24  0.022  0.000  0.019  0.041
   25  0.015  0.003  0.006  0.024
   26  0.015  0.003  0.006  0.024
   27  0.022  0.000  0.019  0.041
   28  0.015  0.001  0.000  0.016
   29  0.001  0.000  0.005  0.007
   30  0.001  0.000  0.005  0.007
   31  0.001  0.000  0.005  0.007
   32  0.001  0.000  0.005  0.007
   33  0.001  0.000  0.005  0.007
   34  0.001  0.000  0.005  0.007
   35  0.003  0.001  0.005  0.010
   36  0.001  0.000  0.000  0.001
tot    0.290  0.037  0.373  0.700
 
band    12 # energy   -5.76979987 # occ.  2.00000000
 
ion      s      p      d    tot
    1  0.001  0.000  0.001  0.002
    2  0.000  0.001  0.005  0.005
    3  0.000  0.001  0.005  0.005
    4  0.000  0.001  0.005  0.005
    5  0.008  0.001  0.000  0.009
    6  0.000  0.001  0.005  0.005
    7  0.000  0.001  0.005  0.005
    8  0.000  0.001  0.005  0.005
    9  0.011  0.001  0.001  0.014
   10  0.000  0.001  0.023  0.024
   11  0.021  0.003  0.002  0.026
   12  0.000  0.001  0.023  0.024
   13  0.021  0.003  0.002  0.026
   14  0.021  0.003  0.002  0.026
   15  0.019  0.001  0.020  0.040
   16  0.000  0.001  0.023  0.024
   17  0.019  0.001  0.020  0.040
   18  0.019  0.001  0.020  0.040
   19  0.013  0.000  0.020  0.033
   20  0.011  0.001  0.019  0.032
   21  0.011  0.001  0.019  0.032
   22  0.012  0.002  0.013  0.027
   23  0.011  0.001  0.019  0.032
   24  0.012  0.002  0.013  0.027
   25  0.013  0.000  0.020  0.033
   26  0.013  0.000  0.020  0.033
   27  0.012  0.002  0.013  0.027
   28  0.000  0.001  0.010  0.010
   29  0.005  0.000  0.007  0.012
   30  0.005  0.000  0.007  0.012
   31  0.005  0.000  0.007  0.012
   32  0.005  0.000  0.007  0.012
   33  0.005  0.000  0.007  0.012
   34  0.005  0.000  0.007  0.012
   35  0.002  0.000  0.004  0.006
   36  0.008  0.000  0.001  0.009
tot    0.287  0.035  0.381  0.703
 
band    13 # energy   -5.75585932 # occ.  2.00000000
 
ion      s      p      d    tot
    1  0.000  0.001  0.002  0.003
    2  0.003  0.001  0.004  0.008
    3  0.008  0.001  0.004  0.013
    4  0.003  0.001  0.004  0.008
    5  0.000  0.000  0.006  0.006
    6  0.001  0.000  0.003  0.005
    7  0.008  0.001  0.004  0.013
    8  0.001  0.000  0.003  0.005
    9  0.000  0.001  0.010  0.011
   10  0.018  0.000  0.017  0.035
   11  0.004  0.001  0.023  0.028
   12  0.004  0.004  0.006  0.014
   13  0.004  0.001  0.024  0.028
   14  0.014  0.001  0.006  0.022
   15  0.016  0.001  0.030  0.047
   16  0.005  0.003  0.006  0.014
   17  0.015  0.001  0.030  0.047
   18  0.062  0.001  0.006  0.070
   19  0.009  0.001  0.028  0.038
   20  0.000  0.000  0.015  0.016
   21  0.000  0.002  0.010  0.012
   22  0.010  0.003  0.017  0.029
   23  0.000  0.002  0.010  0.012
   24  0.041  0.001  0.010  0.052
   25  0.036  0.002  0.003  0.041
   26  0.009  0.001  0.028  0.038
   27  0.011  0.003  0.016  0.030
   28  0.000  0.000  0.007  0.007
   29  0.000  0.000  0.002  0.003
   30  0.003  0.001  0.002  0.005
   31  0.000  0.000  0.002  0.003
   32  0.005  0.001  0.003  0.009
   33  0.002  0.000  0.002  0.005
   34  0.005  0.001  0.003  0.009
   35  0.000  0.001  0.005  0.006
   36  0.000  0.000  0.000  0.000
tot    0.299  0.041  0.352  0.692
 
band    14 # energy   -5.75582857 # occ.  2.00000000
 
ion      s      p      d    tot
    1  0.000  0.001  0.002  0.003
    2  0.005  0.001  0.003  0.009
    3  0.000  0.000  0.004  0.004
    4  0.005  0.001  0.003  0.009
    5  0.000  0.000  0.006  0.006
    6  0.007  0.001  0.004  0.012
    7  0.000  0.000  0.003  0.004
    8  0.007  0.001  0.004  0.013
    9  0.000  0.001  0.010  0.011
   10  0.000  0.005  0.003  0.007
   11  0.011  0.001  0.012  0.024
   12  0.014  0.001  0.013  0.028
   13  0.011  0.001  0.012  0.024
   14  0.000  0.001  0.029  0.030
   15  0.046  0.001  0.014  0.062
   16  0.013  0.001  0.013  0.028
   17  0.047  0.001  0.014  0.062
   18  0.000  0.001  0.038  0.039
   19  0.027  0.002  0.012  0.040
   20  0.000  0.003  0.008  0.011
   21  0.000  0.001  0.013  0.015
   22  0.031  0.001  0.012  0.045
   23  0.000  0.001  0.013  0.015
   24  0.000  0.003  0.019  0.022
   25  0.000  0.000  0.036  0.036
   26  0.028  0.002  0.011  0.040
   27  0.031  0.001  0.012  0.044
   28  0.000  0.000  0.007  0.007
   29  0.005  0.001  0.003  0.008
   30  0.003  0.001  0.003  0.006
   31  0.005  0.001  0.003  0.008
   32  0.000  0.000  0.002  0.003
   33  0.003  0.001  0.003  0.006
   34  0.000  0.000  0.002  0.003
   35  0.000  0.001  0.005  0.006
   36  0.000  0.000  0.000  0.000
tot    0.299  0.041  0.352  0.692
 
band    15 # energy   -5.34245163 # occ.  2.00000000
 
ion      s      p      d    tot
    1  0.000  0.001  0.004  0.004
    2  0.001  0.001  0.005  0.006
    3  0.008  0.001  0.004  0.014
    4  0.001  0.001  0.005  0.006
    5  0.000  0.001  0.010  0.011
    6  0.004  0.001  0.003  0.009
    7  0.008  0.001  0.004  0.014
    8  0.004  0.001  0.003  0.009
    9  0.000  0.000  0.007  0.008
   10  0.000  0.001  0.050  0.050
   11  0.016  0.001  0.020  0.037
   12  0.007  0.001  0.018  0.027
   13  0.016  0.001  0.020  0.036
   14  0.000  0.000  0.047  0.047
   15  0.001  0.000  0.018  0.020
   16  0.007  0.001  0.018  0.027
   17  0.001  0.000  0.018  0.020
   18  0.000  0.001  0.010  0.012
   19  0.005  0.000  0.019  0.024
   20  0.000  0.000  0.086  0.086
   21  0.016  0.001  0.026  0.044
   22  0.003  0.001  0.019  0.023
   23  0.016  0.001  0.027  0.044
   24  0.000  0.001  0.032  0.033
   25  0.000  0.001  0.012  0.012
   26  0.005  0.000  0.019  0.024
   27  0.003  0.001  0.019  0.023
   28  0.000  0.000  0.010  0.010
   29  0.003  0.001  0.005  0.009
   30  0.009  0.001  0.005  0.015
   31  0.003  0.001  0.005  0.009
   32  0.001  0.001  0.005  0.007
   33  0.009  0.001  0.005  0.015
   34  0.001  0.001  0.005  0.007
   35  0.000  0.000  0.003  0.003
   36  0.000  0.001  0.004  0.005
tot    0.150  0.028  0.570  0.748
 
band    16 # energy   -5.34244539 # occ.  2.00000000
 
ion      s      p      d    tot
    1  0.000  0.001  0.004  0.004
    2  0.008  0.001  0.004  0.013
    3  0.001  0.000  0.004  0.005
    4  0.008  0.001  0.004  0.013
    5  0.000  0.001  0.010  0.011
    6  0.004  0.001  0.005  0.010
    7  0.001  0.000  0.004  0.005
    8  0.004  0.001  0.005  0.010
    9  0.000  0.000  0.007  0.008
   10  0.009  0.002  0.008  0.019
   11  0.005  0.000  0.037  0.043
   12  0.002  0.001  0.039  0.043
   13  0.005  0.000  0.038  0.043
   14  0.021  0.001  0.011  0.033
   15  0.000  0.001  0.013  0.014
   16  0.002  0.001  0.039  0.042
   17  0.000  0.001  0.013  0.014
   18  0.002  0.000  0.021  0.023
   19  0.002  0.001  0.014  0.016
   20  0.021  0.001  0.007  0.030
   21  0.005  0.000  0.066  0.072
   22  0.001  0.001  0.027  0.029
   23  0.005  0.000  0.066  0.071
   24  0.004  0.001  0.014  0.020
   25  0.006  0.000  0.022  0.029
   26  0.001  0.001  0.014  0.016
   27  0.001  0.001  0.027  0.029
   28  0.000  0.000  0.010  0.010
   29  0.006  0.001  0.005  0.012
   30  0.000  0.000  0.005  0.005
   31  0.006  0.001  0.005  0.011
   32  0.008  0.001  0.006  0.014
   33  0.000  0.000  0.005  0.005
   34  0.008  0.001  0.006  0.014
   35  0.000  0.000  0.003  0.003
   36  0.000  0.001  0.004  0.005
tot    0.150  0.028  0.570  0.748
 
band    17 # energy   -5.33817408 # occ.  2.00000000
 
ion      s      p      d    tot
    1  0.011  0.002  0.002  0.015
    2  0.000  0.001  0.007  0.008
    3  0.000  0.001  0.007  0.008
    4  0.000  0.001  0.007  0.008
    5  0.001  0.000  0.001  0.002
    6  0.000  0.001  0.007  0.008
    7  0.000  0.001  0.007  0.008
    8  0.000  0.001  0.007  0.008
    9  0.016  0.002  0.000  0.018
   10  0.011  0.001  0.017  0.029
   11  0.002  0.000  0.045  0.046
   12  0.010  0.001  0.017  0.028
   13  0.002  0.000  0.045  0.046
   14  0.002  0.000  0.044  0.046
   15  0.005  0.001  0.015  0.022
   16  0.010  0.001  0.017  0.028
   17  0.005  0.001  0.015  0.022
   18  0.005  0.001  0.015  0.022
   19  0.002  0.001  0.019  0.021
   20  0.002  0.000  0.053  0.056
   21  0.002  0.000  0.053  0.056
   22  0.011  0.001  0.012  0.024
   23  0.002  0.000  0.053  0.056
   24  0.011  0.001  0.012  0.024
   25  0.002  0.001  0.019  0.021
   26  0.002  0.001  0.019  0.021
   27  0.011  0.001  0.012  0.024
   28  0.014  0.001  0.000  0.015
   29  0.000  0.000  0.008  0.008
   30  0.000  0.000  0.008  0.008
   31  0.000  0.000  0.008  0.008
   32  0.000  0.000  0.008  0.008
   33  0.000  0.000  0.008  0.008
   34  0.000  0.000  0.008  0.008
   35  0.009  0.001  0.002  0.012
   36  0.000  0.000  0.001  0.001
tot    0.147  0.027  0.580  0.755
 
band    18 # energy   -5.28141535 # occ.  2.00000000
 
ion      s      p      d    tot
    1  0.000  0.001  0.013  0.014
    2  0.009  0.001  0.004  0.014
    3  0.001  0.000  0.005  0.006
    4  0.009  0.001  0.004  0.014
    5  0.000  0.000  0.005  0.005
    6  0.004  0.001  0.005  0.010
    7  0.001  0.000  0.005  0.006
    8  0.004  0.001  0.005  0.010
    9  0.000  0.001  0.006  0.007
   10  0.000  0.001  0.029  0.029
   11  0.000  0.001  0.019  0.020
   12  0.009  0.000  0.021  0.030
   13  0.000  0.001  0.019  0.020
   14  0.000  0.001  0.018  0.020
   15  0.012  0.002  0.019  0.032
   16  0.009  0.000  0.021  0.030
   17  0.012  0.002  0.019  0.032
   18  0.000  0.000  0.061  0.061
   19  0.013  0.001  0.018  0.032
   20  0.000  0.002  0.017  0.019
   21  0.000  0.001  0.023  0.024
   22  0.016  0.001  0.019  0.036
   23  0.000  0.001  0.023  0.024
   24  0.000  0.000  0.033  0.034
   25  0.000  0.000  0.062  0.062
   26  0.013  0.001  0.018  0.032
   27  0.016  0.001  0.019  0.036
   28  0.000  0.001  0.005  0.006
   29  0.007  0.001  0.005  0.013
   30  0.000  0.000  0.006  0.007
   31  0.007  0.001  0.005  0.013
   32  0.006  0.001  0.004  0.011
   33  0.000  0.000  0.006  0.007
   34  0.006  0.001  0.004  0.011
   35  0.000  0.001  0.010  0.011
   36  0.000  0.000  0.003  0.003
tot    0.155  0.030  0.559  0.744
 
band    19 # energy   -5.28139932 # occ.  2.00000000
 
ion      s      p      d    tot
    1  0.000  0.001  0.013  0.014
    2  0.000  0.001  0.005  0.006
    3  0.009  0.001  0.005  0.014
    4  0.000  0.001  0.005  0.006
    5  0.000  0.000  0.005  0.005
    6  0.005  0.001  0.004  0.010
    7  0.009  0.001  0.005  0.014
    8  0.005  0.001  0.004  0.010
    9  0.000  0.001  0.006  0.007
   10  0.012  0.000  0.018  0.030
   11  0.000  0.001  0.018  0.020
   12  0.003  0.001  0.026  0.030
   13  0.000  0.001  0.018  0.020
   14  0.000  0.001  0.019  0.020
   15  0.004  0.001  0.047  0.051
   16  0.003  0.001  0.026  0.030
   17  0.004  0.001  0.047  0.051
   18  0.015  0.002  0.005  0.023
   19  0.004  0.001  0.047  0.052
   20  0.000  0.000  0.025  0.026
   21  0.000  0.001  0.019  0.021
   22  0.005  0.001  0.029  0.035
   23  0.000  0.001  0.019  0.021
   24  0.022  0.001  0.014  0.037
   25  0.017  0.002  0.004  0.022
   26  0.004  0.001  0.047  0.052
   27  0.005  0.001  0.029  0.035
   28  0.000  0.001  0.005  0.006
   29  0.002  0.000  0.005  0.008
   30  0.009  0.001  0.004  0.014
   31  0.002  0.000  0.005  0.008
   32  0.003  0.001  0.006  0.009
   33  0.009  0.001  0.004  0.014
   34  0.003  0.001  0.006  0.009
   35  0.000  0.001  0.010  0.011
   36  0.000  0.000  0.003  0.003
tot    0.155  0.030  0.559  0.744
 
band    20 # energy   -5.27006286 # occ.  2.00000000
 
ion      s      p      d    tot
    1  0.011  0.001  0.000  0.012
    2  0.000  0.001  0.009  0.009
    3  0.000  0.001  0.009  0.009
    4  0.000  0.001  0.009  0.009
    5  0.017  0.002  0.001  0.019
    6  0.000  0.001  0.009  0.009
    7  0.000  0.001  0.009  0.009
    8  0.000  0.001  0.009  0.009
    9  0.001  0.000  0.002  0.003
   10  0.000  0.001  0.041  0.041
   11  0.007  0.002  0.007  0.016
   12  0.000  0.001  0.041  0.041
   13  0.007  0.002  0.007  0.016
   14  0.007  0.002  0.007  0.016
   15  0.006  0.001  0.031  0.037
   16  0.000  0.001  0.041  0.041
   17  0.006  0.001  0.031  0.037
   18  0.006  0.001  0.031  0.037
   19  0.012  0.001  0.036  0.050
   20  0.008  0.001  0.009  0.019
   21  0.008  0.001  0.009  0.019
   22  0.000  0.000  0.039  0.039
   23  0.008  0.001  0.009  0.019
   24  0.000  0.000  0.040  0.040
   25  0.012  0.001  0.036  0.049
   26  0.012  0.001  0.036  0.050
   27  0.000  0.000  0.039  0.039
   28  0.002  0.001  0.006  0.009
   29  0.000  0.000  0.006  0.007
   30  0.000  0.000  0.006  0.007
   31  0.000  0.000  0.006  0.007
   32  0.000  0.000  0.006  0.007
   33  0.000  0.000  0.006  0.007
   34  0.000  0.000  0.006  0.007
   35  0.001  0.000  0.000  0.001
   36  0.007  0.001  0.000  0.008
tot    0.141  0.028  0.587  0.756
 
band    21 # energy   -4.97843179 # occ.  2.00000000
 
ion      s      p      d    tot
    1  0.009  0.000  0.001  0.010
    2  0.000  0.000  0.010  0.010
    3  0.000  0.000  0.010  0.010
    4  0.000  0.000  0.010  0.010
    5  0.006  0.000  0.008  0.014
    6  0.000  0.000  0.010  0.010
    7  0.000  0.000  0.010  0.010
    8  0.000  0.000  0.010  0.010
    9  0.000  0.000  0.002  0.002
   10  0.000  0.000  0.018  0.018
   11  0.000  0.000  0.026  0.026
   12  0.000  0.000  0.018  0.018
   13  0.000  0.000  0.026  0.026
   14  0.000  0.000  0.025  0.026
   15  0.000  0.000  0.016  0.016
   16  0.000  0.000  0.018  0.018
   17  0.000  0.000  0.016  0.016
   18  0.000  0.000  0.016  0.016
   19  0.000  0.000  0.021  0.022
   20  0.000  0.000  0.035  0.036
   21  0.000  0.000  0.035  0.036
   22  0.000  0.001  0.029  0.030
   23  0.000  0.000  0.035  0.036
   24  0.000  0.001  0.029  0.030
   25  0.000  0.000  0.022  0.022
   26  0.000  0.000  0.021  0.022
   27  0.000  0.001  0.029  0.030
   28  0.023  0.001  0.002  0.025
   29  0.000  0.001  0.036  0.036
   30  0.000  0.001  0.035  0.036
   31  0.000  0.001  0.036  0.036
   32  0.000  0.001  0.035  0.036
   33  0.000  0.001  0.035  0.036
   34  0.000  0.001  0.035  0.036
   35  0.030  0.000  0.011  0.041
   36  0.000  0.000  0.003  0.003
tot    0.071  0.013  0.733  0.817
 
band    22 # energy   -4.97181767 # occ.  2.00000000
 
ion      s      p      d    tot
    1  0.000  0.000  0.024  0.024
    2  0.004  0.001  0.008  0.013
    3  0.001  0.000  0.011  0.012
    4  0.004  0.001  0.008  0.012
    5  0.000  0.001  0.014  0.015
    6  0.010  0.001  0.010  0.020
    7  0.001  0.000  0.011  0.012
    8  0.010  0.001  0.010  0.020
    9  0.000  0.001  0.007  0.008
   10  0.000  0.000  0.023  0.023
   11  0.000  0.000  0.039  0.040
   12  0.000  0.000  0.016  0.016
   13  0.000  0.000  0.039  0.040
   14  0.001  0.001  0.043  0.044
   15  0.000  0.000  0.009  0.009
   16  0.000  0.000  0.016  0.016