PROCAR new format
# of k-points:   10         # of bands:  252         # of ions:   37

 k-point     1 :    0.00000000 0.00000000 0.00000000     weight = 0.01562500

band     1 # energy  -17.00042578 # occ.  2.00000000
 
ion      s      p      d    tot
    1  0.000  0.000  0.000  0.000
    2  0.000  0.000  0.000  0.000
    3  0.000  0.000  0.000  0.000
    4  0.000  0.000  0.000  0.000
    5  0.000  0.000  0.000  0.000
    6  0.000  0.000  0.000  0.000
    7  0.000  0.000  0.000  0.000
    8  0.000  0.000  0.000  0.000
    9  0.000  0.000  0.000  0.000
   10  0.000  0.000  0.000  0.000
   11  0.000  0.000  0.000  0.000
   12  0.000  0.000  0.000  0.000
   13  0.000  0.000  0.000  0.000
   14  0.000  0.000  0.000  0.000
   15  0.000  0.000  0.000  0.000
   16  0.000  0.000  0.000  0.000
   17  0.000  0.000  0.000  0.000
   18  0.000  0.000  0.000  0.000
   19  0.000  0.000  0.000  0.000
   20  0.000  0.000  0.000  0.000
   21  0.000  0.000  0.000  0.000
   22  0.000  0.000  0.000  0.000
   23  0.000  0.000  0.000  0.000
   24  0.000  0.000  0.000  0.000
   25  0.000  0.000  0.000  0.000
   26  0.000  0.000  0.000  0.000
   27  0.000  0.000  0.000  0.000
   28  0.000  0.000  0.000  0.000
   29  0.000  0.000  0.000  0.000
   30  0.000  0.000  0.000  0.000
   31  0.000  0.000  0.000  0.000
   32  0.000  0.000  0.000  0.000
   33  0.000  0.000  0.000  0.000
   34  0.000  0.000  0.000  0.000
   35  0.000  0.000  0.000  0.000
   36  0.052  0.070  0.144  0.267
   37  0.769  0.012  0.000  0.781
tot    0.822  0.083  0.145  1.049
 
band     2 # energy   -8.18182261 # occ.  2.00000000
 
ion      s      p      d    tot
    1  0.006  0.001  0.000  0.006
    2  0.006  0.000  0.000  0.006
    3  0.006  0.000  0.000  0.006
    4  0.006  0.000  0.000  0.006
    5  0.006  0.001  0.000  0.006
    6  0.006  0.000  0.000  0.006
    7  0.006  0.000  0.000  0.006
    8  0.006  0.000  0.000  0.006
    9  0.006  0.000  0.000  0.006
   10  0.025  0.000  0.000  0.025
   11  0.026  0.000  0.000  0.027
   12  0.025  0.000  0.000  0.025
   13  0.026  0.000  0.000  0.027
   14  0.026  0.000  0.000  0.027
   15  0.024  0.000  0.000  0.024
   16  0.025  0.000  0.000  0.025
   17  0.024  0.000  0.000  0.024
   18  0.024  0.000  0.000  0.024
   19  0.022  0.000  0.000  0.023
   20  0.031  0.000  0.000  0.032
   21  0.031  0.000  0.000  0.032
   22  0.024  0.000  0.000  0.025
   23  0.031  0.000  0.000  0.032
   24  0.024  0.000  0.000  0.025
   25  0.022  0.000  0.000  0.023
   26  0.022  0.000  0.000  0.023
   27  0.024  0.000  0.000  0.025
   28  0.005  0.000  0.000  0.005
   29  0.005  0.000  0.000  0.006
   30  0.005  0.000  0.000  0.006
   31  0.005  0.000  0.000  0.006
   32  0.005  0.000  0.000  0.006
   33  0.005  0.000  0.000  0.006
   34  0.005  0.000  0.000  0.006
   35  0.005  0.000  0.000  0.005
   36  0.014  0.003  0.000  0.017
   37  0.001  0.000  0.000  0.001
tot    0.568  0.014  0.005  0.587
 
band     3 # energy   -7.03863412 # occ.  2.00000000
 
ion      s      p      d    tot
    1  0.016  0.000  0.001  0.017
    2  0.016  0.000  0.001  0.018
    3  0.016  0.000  0.001  0.018
    4  0.016  0.000  0.001  0.018
    5  0.016  0.000  0.001  0.017
    6  0.016  0.000  0.001  0.018
    7  0.016  0.000  0.001  0.018
    8  0.016  0.000  0.001  0.018
    9  0.017  0.001  0.001  0.018
   10  0.012  0.001  0.003  0.016
   11  0.011  0.001  0.003  0.015
   12  0.012  0.001  0.003  0.016
   13  0.011  0.001  0.003  0.015
   14  0.011  0.001  0.003  0.015
   15  0.013  0.001  0.002  0.017
   16  0.012  0.001  0.003  0.016
   17  0.013  0.001  0.002  0.017
   18  0.013  0.001  0.002  0.017
   19  0.009  0.001  0.003  0.013
   20  0.017  0.002  0.003  0.021
   21  0.017  0.002  0.003  0.021
   22  0.009  0.001  0.003  0.014
   23  0.017  0.002  0.003  0.021
   24  0.009  0.001  0.003  0.014
   25  0.009  0.001  0.003  0.013
   26  0.009  0.001  0.003  0.013
   27  0.009  0.001  0.003  0.014
   28  0.012  0.000  0.001  0.013
   29  0.015  0.001  0.001  0.017
   30  0.015  0.001  0.001  0.017
   31  0.015  0.001  0.001  0.017
   32  0.015  0.001  0.001  0.017
   33  0.015  0.001  0.001  0.017
   34  0.015  0.001  0.001  0.017
   35  0.012  0.000  0.001  0.013
   36  0.032  0.003  0.002  0.036
   37  0.002  0.001  0.000  0.002
tot    0.507  0.036  0.069  0.612
 
band     4 # energy   -6.11765533 # occ.  2.00000000
 
ion      s      p      d    tot
    1  0.001  0.000  0.002  0.003
    2  0.001  0.000  0.002  0.003
    3  0.001  0.000  0.002  0.003
    4  0.001  0.000  0.002  0.003
    5  0.000  0.000  0.000  0.001
    6  0.001  0.000  0.002  0.003
    7  0.001  0.000  0.002  0.003
    8  0.001  0.000  0.002  0.003
    9  0.009  0.001  0.000  0.010
   10  0.005  0.000  0.011  0.017
   11  0.002  0.001  0.005  0.009
   12  0.005  0.000  0.011  0.017
   13  0.002  0.001  0.005  0.009
   14  0.002  0.001  0.005  0.009
   15  0.010  0.001  0.002  0.013
   16  0.005  0.000  0.011  0.017
   17  0.010  0.001  0.002  0.013
   18  0.010  0.001  0.002  0.013
   19  0.001  0.001  0.021  0.024
   20  0.028  0.002  0.040  0.070
   21  0.028  0.002  0.040  0.070
   22  0.006  0.001  0.008  0.015
   23  0.028  0.002  0.040  0.070
   24  0.006  0.001  0.008  0.015
   25  0.001  0.001  0.021  0.024
   26  0.001  0.001  0.021  0.024
   27  0.006  0.001  0.008  0.015
   28  0.013  0.000  0.004  0.017
   29  0.013  0.000  0.010  0.024
   30  0.013  0.000  0.010  0.024
   31  0.013  0.000  0.010  0.024
   32  0.013  0.000  0.010  0.024
   33  0.013  0.000  0.010  0.024
   34  0.013  0.000  0.010  0.024
   35  0.029  0.000  0.005  0.034
   36  0.001  0.007  0.035  0.043
   37  0.001  0.006  0.000  0.007
tot    0.297  0.037  0.387  0.722
 
band     5 # energy   -6.10072562 # occ.  2.00000000
 
ion      s      p      d    tot
    1  0.009  0.000  0.000  0.009
    2  0.003  0.000  0.003  0.006
    3  0.003  0.000  0.003  0.006
    4  0.003  0.000  0.003  0.006
    5  0.006  0.000  0.002  0.008
    6  0.003  0.000  0.003  0.006
    7  0.003  0.000  0.003  0.006
    8  0.003  0.000  0.003  0.006
    9  0.000  0.001  0.003  0.004
   10  0.001  0.001  0.012  0.014
   11  0.003  0.001  0.004  0.008
   12  0.001  0.001  0.012  0.014
   13  0.003  0.001  0.004  0.008
   14  0.003  0.001  0.004  0.008
   15  0.012  0.002  0.003  0.017
   16  0.001  0.001  0.012  0.014
   17  0.012  0.002  0.003  0.017
   18  0.012  0.002  0.003  0.017
   19  0.012  0.000  0.016  0.028
   20  0.002  0.001  0.036  0.039
   21  0.002  0.001  0.036  0.039
   22  0.023  0.002  0.008  0.033
   23  0.002  0.001  0.036  0.039
   24  0.023  0.002  0.008  0.033
   25  0.012  0.000  0.016  0.028
   26  0.012  0.000  0.016  0.028
   27  0.023  0.002  0.008  0.033
   28  0.002  0.000  0.012  0.015
   29  0.012  0.001  0.015  0.028
   30  0.012  0.001  0.015  0.028
   31  0.012  0.001  0.015  0.028
   32  0.012  0.001  0.015  0.028
   33  0.012  0.001  0.015  0.028
   34  0.012  0.001  0.015  0.028
   35  0.002  0.001  0.010  0.012
   36  0.059  0.002  0.009  0.070
   37  0.002  0.001  0.000  0.002
tot    0.326  0.031  0.382  0.739
 
band     6 # energy   -6.07991390 # occ.  2.00000000
 
ion      s      p      d    tot
    1  0.000  0.000  0.007  0.007
    2  0.000  0.000  0.002  0.003
    3  0.002  0.001  0.002  0.005
    4  0.005  0.001  0.003  0.009
    5  0.000  0.001  0.005  0.006
    6  0.003  0.001  0.002  0.005
    7  0.005  0.001  0.003  0.008
    8  0.000  0.000  0.003  0.003
    9  0.000  0.000  0.001  0.001
   10  0.010  0.001  0.022  0.032
   11  0.009  0.003  0.020  0.032
   12  0.035  0.002  0.006  0.044
   13  0.042  0.001  0.011  0.054
   14  0.012  0.003  0.019  0.034
   15  0.000  0.002  0.006  0.008
   16  0.008  0.001  0.023  0.031
   17  0.000  0.000  0.009  0.010
   18  0.000  0.002  0.006  0.008
   19  0.003  0.003  0.005  0.011
   20  0.021  0.002  0.035  0.058
   21  0.074  0.001  0.014  0.090
   22  0.014  0.002  0.005  0.021
   23  0.016  0.002  0.037  0.055
   24  0.004  0.001  0.020  0.025
   25  0.003  0.003  0.006  0.012
   26  0.012  0.000  0.013  0.026
   27  0.003  0.001  0.021  0.025
   28  0.000  0.000  0.001  0.002
   29  0.002  0.001  0.003  0.006
   30  0.007  0.001  0.006  0.014
   31  0.002  0.001  0.003  0.006
   32  0.007  0.001  0.006  0.014
   33  0.001  0.000  0.003  0.005
   34  0.002  0.001  0.003  0.005
   35  0.000  0.000  0.004  0.004
   36  0.000  0.006  0.016  0.022
   37  0.000  0.001  0.000  0.001
tot    0.304  0.046  0.351  0.701
 
band     7 # energy   -6.07990203 # occ.  2.00000000
 
ion      s      p      d    tot
    1  0.000  0.000  0.007  0.007
    2  0.005  0.001  0.002  0.008
    3  0.003  0.001  0.003  0.006
    4  0.000  0.000  0.002  0.003
    5  0.000  0.001  0.005  0.006
    6  0.002  0.001  0.003  0.006
    7  0.000  0.000  0.002  0.003
    8  0.005  0.001  0.002  0.008
    9  0.000  0.000  0.001  0.001
   10  0.025  0.002  0.012  0.039
   11  0.033  0.001  0.013  0.048
   12  0.000  0.000  0.028  0.028
   13  0.000  0.004  0.022  0.026
   14  0.030  0.002  0.014  0.046
   15  0.000  0.001  0.008  0.009
   16  0.028  0.002  0.011  0.040
   17  0.000  0.003  0.005  0.008
   18  0.000  0.001  0.008  0.009
   19  0.010  0.001  0.011  0.022
   20  0.053  0.001  0.023  0.077
   21  0.000  0.002  0.044  0.046
   22  0.000  0.001  0.025  0.026
   23  0.058  0.001  0.021  0.080
   24  0.010  0.001  0.011  0.022
   25  0.009  0.001  0.010  0.020
   26  0.000  0.004  0.003  0.007
   27  0.011  0.001  0.010  0.022
   28  0.000  0.000  0.001  0.002
   29  0.005  0.001  0.005  0.010
   30  0.000  0.000  0.002  0.003
   31  0.005  0.001  0.005  0.011
   32  0.000  0.000  0.002  0.003
   33  0.006  0.001  0.005  0.012
   34  0.005  0.001  0.005  0.011
   35  0.000  0.000  0.004  0.004
   36  0.000  0.006  0.016  0.022
   37  0.000  0.001  0.000  0.001
tot    0.304  0.046  0.351  0.701
 
band     8 # energy   -6.01257855 # occ.  2.00000000
 
ion      s      p      d    tot
    1  0.022  0.000  0.019  0.042
    2  0.019  0.000  0.019  0.038
    3  0.019  0.000  0.019  0.038
    4  0.019  0.000  0.019  0.038
    5  0.013  0.000  0.021  0.033
    6  0.019  0.000  0.019  0.038
    7  0.019  0.000  0.019  0.038
    8  0.019  0.000  0.019  0.038
    9  0.022  0.000  0.016  0.038
   10  0.004  0.000  0.028  0.033
   11  0.015  0.001  0.023  0.038
   12  0.004  0.000  0.028  0.033
   13  0.015  0.001  0.023  0.038
   14  0.015  0.001  0.023  0.038
   15  0.006  0.000  0.026  0.032
   16  0.004  0.000  0.028  0.033
   17  0.006  0.000  0.026  0.032
   18  0.006  0.000  0.026  0.032
   19  0.003  0.000  0.004  0.007
   20  0.000  0.000  0.013  0.013
   21  0.000  0.000  0.013  0.013
   22  0.000  0.000  0.006  0.007
   23  0.000  0.000  0.013  0.013
   24  0.000  0.000  0.006  0.007
   25  0.003  0.000  0.004  0.007
   26  0.003  0.000  0.004  0.007
   27  0.000  0.000  0.006  0.007
   28  0.001  0.000  0.000  0.001
   29  0.000  0.000  0.000  0.000
   30  0.000  0.000  0.000  0.000
   31  0.000  0.000  0.000  0.000
   32  0.000  0.000  0.000  0.000
   33  0.000  0.000  0.000  0.000
   34  0.000  0.000  0.000  0.000
   35  0.000  0.000  0.000  0.000
   36  0.000  0.000  0.001  0.001
   37  0.000  0.000  0.000  0.000
tot    0.256  0.009  0.472  0.737
 
band     9 # energy   -5.97046191 # occ.  2.00000000
 
ion      s      p      d    tot
    1  0.006  0.001  0.002  0.009
    2  0.000  0.001  0.006  0.007
    3  0.000  0.001  0.006  0.007
    4  0.000  0.001  0.006  0.007
    5  0.018  0.002  0.000  0.020
    6  0.000  0.001  0.006  0.007
    7  0.000  0.001  0.006  0.007
    8  0.000  0.001  0.006  0.007
    9  0.000  0.000  0.002  0.003
   10  0.025  0.003  0.001  0.029
   11  0.018  0.001  0.023  0.042
   12  0.025  0.003  0.001  0.029
   13  0.018  0.001  0.023  0.042
   14  0.018  0.001  0.023  0.042
   15  0.001  0.001  0.022  0.023
   16  0.025  0.003  0.001  0.029
   17  0.001  0.001  0.022  0.023
   18  0.001  0.001  0.022  0.023
   19  0.020  0.002  0.007  0.029
   20  0.006  0.003  0.021  0.030
   21  0.006  0.003  0.021  0.030
   22  0.010  0.000  0.026  0.036
   23  0.006  0.003  0.021  0.030
   24  0.010  0.000  0.026  0.036
   25  0.020  0.002  0.007  0.029
   26  0.020  0.002  0.007  0.029
   27  0.010  0.000  0.026  0.036
   28  0.016  0.001  0.000  0.017
   29  0.001  0.000  0.004  0.005
   30  0.001  0.000  0.004  0.005
   31  0.001  0.000  0.004  0.005
   32  0.001  0.000  0.004  0.005
   33  0.001  0.000  0.004  0.005
   34  0.001  0.000  0.004  0.005
   35  0.001  0.001  0.005  0.007
   36  0.000  0.000  0.000  0.000
   37  0.000  0.000  0.000  0.000
tot    0.290  0.037  0.371  0.698
 
band    10 # energy   -5.94370371 # occ.  2.00000000
 
ion      s      p      d    tot
    1  0.000  0.001  0.003  0.004
    2  0.007  0.001  0.004  0.012
    3  0.008  0.001  0.004  0.014
    4  0.001  0.000  0.004  0.005
    5  0.000  0.000  0.005  0.005
    6  0.000  0.000  0.003  0.004
    7  0.006  0.001  0.003  0.010
    8  0.003  0.001  0.003  0.007
    9  0.000  0.001  0.011  0.012
   10  0.018  0.001  0.015  0.034
   11  0.000  0.001  0.028  0.029
   12  0.013  0.002  0.011  0.026
   13  0.007  0.001  0.015  0.024
   14  0.010  0.001  0.009  0.021
   15  0.002  0.001  0.039  0.042
   16  0.001  0.005  0.003  0.008
   17  0.038  0.001  0.020  0.059
   18  0.055  0.001  0.011  0.067
   19  0.001  0.000  0.035  0.036
   20  0.000  0.001  0.017  0.018
   21  0.000  0.001  0.015  0.017
   22  0.023  0.002  0.014  0.038
   23  0.000  0.002  0.012  0.015
   24  0.033  0.001  0.012  0.045
   25  0.032  0.002  0.007  0.041
   26  0.022  0.001  0.016  0.040
   27  0.001  0.004  0.018  0.022
   28  0.000  0.000  0.006  0.006
   29  0.000  0.000  0.001  0.002
   30  0.001  0.000  0.001  0.002
   31  0.002  0.000  0.002  0.004
   32  0.003  0.001  0.002  0.006
   33  0.004  0.001  0.002  0.006
   34  0.004  0.001  0.002  0.007
   35  0.000  0.001  0.004  0.005
   36  0.000  0.000  0.001  0.001
   37  0.000  0.000  0.000  0.000
tot    0.294  0.041  0.359  0.694
 
band    11 # energy   -5.94368190 # occ.  2.00000000
 
ion      s      p      d    tot
    1  0.000  0.001  0.003  0.004
    2  0.002  0.001  0.003  0.005
    3  0.000  0.000  0.003  0.004
    4  0.007  0.001  0.004  0.012
    5  0.000  0.000  0.005  0.005
    6  0.008  0.001  0.004  0.014
    7  0.002  0.001  0.004  0.007
    8  0.005  0.001  0.004  0.010
    9  0.000  0.001  0.011  0.012
   10  0.003  0.004  0.004  0.011
   11  0.012  0.001  0.007  0.020
   12  0.008  0.003  0.008  0.019
   13  0.005  0.001  0.020  0.026
   14  0.002  0.001  0.026  0.028
   15  0.062  0.001  0.007  0.070
   16  0.021  0.000  0.016  0.037
   17  0.025  0.001  0.026  0.053
   18  0.008  0.001  0.035  0.045
   19  0.036  0.002  0.004  0.042
   20  0.000  0.002  0.013  0.015
   21  0.000  0.002  0.014  0.016
   22  0.015  0.002  0.015  0.032
   23  0.000  0.001  0.017  0.018
   24  0.005  0.003  0.017  0.025
   25  0.005  0.000  0.032  0.037
   26  0.015  0.001  0.023  0.038
   27  0.036  0.001  0.011  0.048
   28  0.000  0.000  0.006  0.006
   29  0.004  0.001  0.002  0.008
   30  0.004  0.001  0.003  0.007
   31  0.003  0.001  0.002  0.005
   32  0.001  0.000  0.001  0.003
   33  0.001  0.000  0.002  0.003
   34  0.000  0.000  0.002  0.002
   35  0.000  0.001  0.004  0.005
   36  0.000  0.000  0.001  0.001
   37  0.000  0.000  0.000  0.000
tot    0.294  0.041  0.359  0.694
 
band    12 # energy   -5.59245409 # occ.  2.00000000
 
ion      s      p      d    tot
    1  0.000  0.001  0.004  0.005
    2  0.004  0.001  0.005  0.009
    3  0.007  0.001  0.005  0.013
    4  0.000  0.000  0.004  0.004
    5  0.000  0.001  0.009  0.010
    6  0.001  0.000  0.004  0.005
    7  0.009  0.001  0.004  0.014
    8  0.007  0.001  0.003  0.011
    9  0.000  0.000  0.007  0.007
   10  0.001  0.001  0.046  0.048
   11  0.025  0.001  0.012  0.038
   12  0.005  0.001  0.033  0.038
   13  0.010  0.000  0.030  0.041
   14  0.003  0.000  0.039  0.042
   15  0.002  0.000  0.020  0.021
   16  0.011  0.001  0.008  0.020
   17  0.001  0.001  0.015  0.016
   18  0.000  0.001  0.012  0.014
   19  0.003  0.000  0.018  0.021
   20  0.002  0.000  0.088  0.090
   21  0.006  0.001  0.062  0.069
   22  0.002  0.001  0.023  0.025
   23  0.015  0.001  0.010  0.027
   24  0.001  0.001  0.026  0.027
   25  0.000  0.000  0.011  0.011
   26  0.001  0.000  0.013  0.015
   27  0.005  0.002  0.016  0.022
   28  0.000  0.000  0.007  0.007
   29  0.008  0.001  0.007  0.016
   30  0.009  0.001  0.007  0.018
   31  0.002  0.000  0.005  0.008
   32  0.000  0.000  0.004  0.004
   33  0.005  0.001  0.005  0.011
   34  0.002  0.001  0.004  0.007
   35  0.000  0.000  0.002  0.002
   36  0.000  0.005  0.014  0.019
   37  0.000  0.000  0.000  0.000
tot    0.148  0.032  0.579  0.758
 
band    13 # energy   -5.59244925 # occ.  2.00000000
 
ion      s      p      d    tot
    1  0.000  0.001  0.004  0.005
    2  0.005  0.001  0.003  0.009
    3  0.002  0.000  0.003  0.006
    4  0.009  0.001  0.004  0.014
    5  0.000  0.001  0.009  0.010
    6  0.008  0.001  0.004  0.014
    7  0.000  0.000  0.004  0.005
    8  0.002  0.001  0.005  0.008
    9  0.000  0.000  0.007  0.007
   10  0.010  0.001  0.012  0.023
   11  0.001  0.000  0.042  0.043
   12  0.007  0.001  0.025  0.033
   13  0.015  0.001  0.024  0.040
   14  0.023  0.001  0.015  0.038
   15  0.000  0.001  0.012  0.013
   16  0.000  0.001  0.050  0.051
   17  0.001  0.001  0.016  0.018
   18  0.002  0.000  0.019  0.021
   19  0.000  0.001  0.010  0.010
   20  0.014  0.001  0.019  0.034
   21  0.009  0.001  0.045  0.055
   22  0.003  0.001  0.020  0.024
   23  0.000  0.000  0.096  0.097
   24  0.004  0.001  0.017  0.023
   25  0.002  0.000  0.017  0.020
   26  0.002  0.000  0.015  0.017
   27  0.000  0.001  0.027  0.028
   28  0.000  0.000  0.007  0.007
   29  0.001  0.000  0.004  0.005
   30  0.000  0.000  0.004  0.004
   31  0.007  0.001  0.006  0.014
   32  0.009  0.001  0.007  0.017
   33  0.004  0.001  0.006  0.010
   34  0.007  0.001  0.007  0.014
   35  0.000  0.000  0.002  0.002
   36  0.000  0.005  0.014  0.019
   37  0.000  0.000  0.000  0.000
tot    0.147  0.032  0.579  0.758
 
band    14 # energy   -5.58145805 # occ.  2.00000000
 
ion      s      p      d    tot
    1  0.008  0.001  0.000  0.009
    2  0.000  0.001  0.005  0.005
    3  0.000  0.001  0.005  0.006
    4  0.000  0.001  0.005  0.005
    5  0.009  0.001  0.001  0.011
    6  0.000  0.001  0.005  0.006
    7  0.000  0.001  0.005  0.006
    8  0.000  0.001  0.005  0.006
    9  0.000  0.000  0.001  0.001
   10  0.001  0.001  0.018  0.020
   11  0.011  0.002  0.007  0.019
   12  0.001  0.001  0.018  0.020
   13  0.011  0.002  0.007  0.019
   14  0.011  0.002  0.007  0.019
   15  0.005  0.000  0.031  0.037
   16  0.001  0.001  0.018  0.020
   17  0.005  0.000  0.031  0.037
   18  0.005  0.000  0.031  0.037
   19  0.013  0.002  0.005  0.019
   20  0.001  0.002  0.045  0.048
   21  0.001  0.002  0.045  0.048
   22  0.004  0.000  0.038  0.042
   23  0.001  0.002  0.045  0.048
   24  0.004  0.000  0.038  0.042
   25  0.013  0.002  0.005  0.019
   26  0.013  0.002  0.005  0.019
   27  0.004  0.000  0.038  0.042
   28  0.019  0.002  0.000  0.021
   29  0.000  0.001  0.013  0.014
   30  0.000  0.001  0.013  0.014
   31  0.000  0.001  0.013  0.014
   32  0.000  0.001  0.013  0.014
   33  0.000  0.001  0.013  0.014
   34  0.000  0.001  0.013  0.014
   35  0.001  0.000  0.002  0.003
   36  0.030  0.004  0.000  0.034
   37  0.001  0.003  0.000  0.004
tot    0.175  0.041  0.543  0.758
 
band    15 # energy   -5.55396580 # occ.  2.00000000
 
ion      s      p      d    tot
    1  0.005  0.001  0.003  0.010
    2  0.000  0.001  0.009  0.010
    3  0.000  0.001  0.009  0.010
    4  0.000  0.001  0.009  0.010
    5  0.006  0.000  0.001  0.007
    6  0.000  0.001  0.009  0.010
    7  0.000  0.001  0.009  0.010
    8  0.000  0.001  0.009  0.010
    9  0.022  0.002  0.001  0.025
   10  0.010  0.001  0.034  0.045
   11  0.000  0.000  0.043  0.043
   12  0.010  0.001  0.034  0.045
   13  0.000  0.000  0.043  0.043
   14  0.000  0.000  0.043  0.043
   15  0.015  0.002  0.006  0.023
   16  0.010  0.001  0.034  0.045
   17  0.015  0.002  0.006  0.023
   18  0.015  0.002  0.006  0.023
   19  0.000  0.000  0.024  0.024
   20  0.003  0.002  0.043  0.047
   21  0.003  0.002  0.043  0.047
   22  0.007  0.001  0.014  0.021
   23  0.003  0.002  0.043  0.047
   24  0.007  0.001  0.014  0.021
   25  0.000  0.000  0.024  0.024
   26  0.000  0.000  0.024  0.024
   27  0.007  0.001  0.014  0.021
   28  0.003  0.000  0.001  0.004
   29  0.000  0.000  0.003  0.003
   30  0.000  0.000  0.003  0.003
   31  0.000  0.000  0.003  0.003
   32  0.000  0.000  0.003  0.003
   33  0.000  0.000  0.003  0.003
   34  0.000  0.000  0.003  0.003
   35  0.006  0.001  0.002  0.009
   36  0.007  0.002  0.005  0.014
   37  0.001  0.003  0.000  0.004
tot    0.157  0.034  0.574  0.765
 
band    16 # energy   -5.46918415 # occ.  2.00000000
 
ion      s      p      d    tot
    1  0.000  0.001  0.013  0.014
    2  0.000  0.000  0.005  0.006
    3  0.009  0.001  0.004  0.014
    4  0.004  0.001  0.005  0.010
    5  0.000  0.000  0.006  0.006
    6  0.008  0.001  0.004  0.013
    7  0.005  0.001  0.005  0.011
    8  0.001  0.000  0.005  0.006
    9  0.000  0.001  0.006  0.007
   10  0.010  0.000  0.020  0.030
   11  0.000  0.001  0.020  0.021
   12  0.000  0.001  0.031  0.032
   13  0.000  0.001  0.016  0.017
   14  0.000  0.001  0.020  0.021
   15  0.009  0.002  0.022  0.033
   16  0.009  0.000  0.021  0.030
   17  0.000  0.000  0.060  0.060
   18  0.010  0.002  0.017  0.029
   19  0.013  0.001  0.023  0.037
   20  0.000  0.001  0.028  0.029
   21  0.000  0.002  0.025  0.026
   22  0.000  0.001  0.028  0.029
   23  0.000  0.001  0.028  0.028
   24  0.017  0.001  0.019  0.037
   25  0.015  0.001  0.017  0.033
   26  0.000  0.000  0.067  0.067
   27  0.015  0.001  0.020  0.036
   28  0.000  0.001  0.005  0.006
   29  0.000  0.000  0.006  0.007
   30  0.006  0.001  0.003  0.010
   31  0.005  0.001  0.003  0.009
   32  0.005  0.001  0.004  0.010
   33  0.006  0.001  0.003  0.009
   34  0.000  0.001  0.006  0.007
   35  0.000  0.001  0.008  0.009
   36  0.000  0.000  0.004  0.004
   37  0.000  0.000  0.000  0.000
tot    0.147  0.028  0.577  0.751
 
band    17 # energy   -5.46917939 # occ.  2.00000000
 
ion      s      p      d    tot
    1  0.000  0.001  0.013  0.014
    2  0.009  0.001  0.004  0.014
    3  0.000  0.000  0.005  0.006
    4  0.005  0.001  0.004  0.010
    5  0.000  0.000  0.006  0.006
    6  0.001  0.001  0.005  0.006
    7  0.004  0.001  0.004  0.009
    8  0.008  0.001  0.004  0.014
    9  0.000  0.001  0.006  0.007
   10  0.002  0.001  0.028  0.031
   11  0.000  0.001  0.018  0.019
   12  0.012  0.000  0.017  0.030
   13  0.000  0.001  0.021  0.022
   14  0.000  0.001  0.017  0.018
   15  0.004  0.001  0.044  0.048
   16  0.004  0.000  0.027  0.031
   17  0.013  0.002  0.006  0.021
   18  0.003  0.001  0.049  0.052
   19  0.006  0.001  0.048  0.054
   20  0.000  0.002  0.025  0.027
   21  0.000  0.000  0.029  0.029
   22  0.022  0.001  0.017  0.039
   23  0.000  0.001  0.026  0.027
   24  0.004  0.001  0.026  0.031
   25  0.004  0.000  0.054  0.059
   26  0.018  0.001  0.004  0.024
   27  0.006  0.001  0.025  0.032
   28  0.000  0.001  0.005  0.006
   29  0.007  0.001  0.002  0.010
   30  0.001  0.000  0.005  0.007
   31  0.002  0.001  0.005  0.008
   32  0.002  0.000  0.005  0.007
   33  0.001  0.001  0.006  0.008
   34  0.007  0.001  0.002  0.010
   35  0.000  0.001  0.008  0.009
   36  0.000  0.000  0.004  0.004
   37  0.000  0.000  0.000  0.000
tot    0.147  0.028  0.577  0.751
 
band    18 # energy   -5.22485502 # occ.  2.00000000
 
ion      s      p      d    tot
    1  0.000  0.000  0.015  0.015
    2  0.000  0.000  0.007  0.007
    3  0.001  0.000  0.007  0.008
    4  0.008  0.001  0.005  0.014
    5  0.000  0.001  0.012  0.013
    6  0.007  0.001  0.005  0.013
    7  0.005  0.000  0.007  0.013
    8  0.004  0.000  0.008  0.012
    9  0.000  0.001  0.004  0.005
   10  0.000  0.000  0.017  0.018
   11  0.000  0.000  0.045  0.046
   12  0.000  0.001  0.019  0.020
   13  0.002  0.000  0.042  0.044
   14  0.001  0.000  0.042  0.044
   15  0.000  0.000  0.006  0.006
   16  0.000  0.000  0.005  0.005
   17  0.000  0.000  0.009  0.010
   18  0.000  0.000  0.009  0.009
   19  0.000  0.000  0.005  0.005
   20  0.001  0.001  0.097  0.099
   21  0.001  0.001  0.104  0.106
   22  0.001  0.000  0.015  0.017
   23  0.000  0.001  0.055  0.056
   24  0.001  0.000  0.016  0.017
   25  0.000  0.000  0.012  0.012
   26  0.000  0.000  0.013  0.013
   27  0.000  0.000  0.021  0.021
   28  0.000  0.001  0.002  0.003
   29  0.008  0.001  0.022  0.031
   30  0.009  0.001  0.024  0.034
   31  0.007  0.001  0.018  0.026
   32  0.009  0.001  0.020  0.030
   33  0.000  0.000  0.008  0.008
   34  0.000  0.000  0.008  0.009
   35  0.000  0.000  0.019  0.019
   36  0.000  0.005  0.024  0.029
   37  0.000  0.000  0.000  0.000
tot    0.067  0.021  0.747  0.835
 
band    19 # energy   -5.22484429 # occ.  2.00000000
 
ion      s      p      d    tot
    1  0.000  0.000  0.015  0.015
    2  0.008  0.001  0.006  0.015
    3  0.008  0.001  0.006  0.015
    4  0.001  0.000  0.008  0.009
    5  0.000  0.001  0.012  0.013
    6  0.001  0.000  0.008  0.009
    7  0.003  0.001  0.006  0.009
    8  0.004  0.001  0.005  0.010
    9  0.000  0.001  0.004  0.005
   10  0.000  0.000  0.011  0.011
   11  0.002  0.000  0.041  0.043
   12  0.000  0.000  0.009  0.009
   13  0.000  0.000  0.044  0.045
   14  0.001  0.000  0.044  0.045
   15  0.001  0.000  0.010  0.011
   16  0.000  0.001  0.023  0.023
   17  0.000  0.000  0.007  0.007
   18  0.000  0.000  0.007  0.007
   19  0.000  0.000  0.015  0.015
   20  0.001  0.001  0.074  0.075
   21  0.000  0.001  0.067  0.068
   22  0.000  0.000  0.019  0.020
   23  0.002  0.001  0.115  0.118
   24  0.001  0.000  0.018  0.019
   25  0.000  0.000  0.008  0.008
   26  0.000  0.000  0.007  0.007
   27  0.002  0.000  0.013  0.016
   28  0.000  0.001  0.002  0.003
   29  0.003  0.001  0.011  0.015
   30  0.002  0.000  0.009  0.012
   31  0.004  0.000  0.016  0.020
   32  0.003  0.000  0.013  0.016
   33  0.011  0.001  0.025  0.038
   34  0.011  0.001  0.025  0.037
   35  0.000  0.000  0.019  0.019
   36  0.000  0.005  0.024  0.029
   37  0.000  0.000  0.000  0.000
tot    0.067  0.021  0.747  0.835
 
band    20 # energy   -5.21603664 # occ.  2.00000000
 
ion      s      p      d    tot
    1  0.009  0.000  0.004  0.012
    2  0.000  0.001  0.013  0.013
    3  0.000  0.001  0.013  0.013
    4  0.000  0.001  0.013  0.013
    5  0.003  0.000  0.002  0.005
    6  0.000  0.001  0.013  0.013
    7  0.000  0.001  0.013  0.013
    8  0.000  0.001  0.013  0.013
    9  0.020  0.001  0.001  0.022
   10  0.001  0.000  0.013  0.014
   11  0.000  0.000  0.023  0.023
   12  0.001  0.000  0.013  0.014
   13  0.000  0.000  0.023  0.023
   14  0.000  0.000  0.023  0.023
   15  0.000  0.000  0.028  0.029
   16  0.001  0.000  0.013  0.014
   17  0.000  0.000  0.028  0.029
   18  0.000  0.000  0.028  0.029
   19  0.000  0.000  0.025  0.026
   20  0.001  0.000  0.040  0.041
   21  0.001  0.000  0.040  0.041
   22  0.000  0.000  0.030  0.031
   23  0.001  0.000  0.040  0.041
   24  0.000  0.000  0.030  0.031
   25  0.000  0.000  0.025  0.026
   26  0.000  0.000  0.025  0.026
   27  0.000  0.000  0.030  0.031
   28  0.000  0.000  0.010  0.011
   29  0.000  0.001  0.024  0.025
   30  0.000  0.001  0.024  0.025
   31  0.000  0.001  0.024  0.025
   32  0.000  0.001  0.024  0.025
   33  0.000  0.001  0.024  0.025
   34  0.000  0.001  0.024  0.025
   35  0.024  0.001  0.001  0.026
   36  0.010  0.000  0.015  0.025
   37  0.000  0.001  0.000  0.001
tot    0.074  0.019  0.731  0.824
 
band    21 # energy   -5.17802770 # occ.  2.00000000
 
ion      s      p      d    tot
    1  0.001  0.000  0.001  0.001
    2  0.000  0.000  0.007  0.007
    3  0.000  0.000  0.007  0.007
    4  0.000  0.000  0.007  0.007
    5  0.000  0.000  0.006  0.007
    6  0.000  0.000  0.007  0.007
    7  0.000  0.000  0.007  0.007
    8  0.000  0.000  0.007  0.007
    9  0.003  0.000  0.008  0.011
   10  0.001  0.000  0.011  0.012
   11  0.000  0.000  0.035  0.035
   12  0.001  0.000  0.011  0.012
   13  0.000  0.000  0.035  0.035
   14  0.000  0.000  0.035  0.035
   15  0.000  0.000  0.031  0.031
   16  0.001  0.000  0.011  0.012
   17  0.000  0.000  0.031  0.031
   18  0.000  0.000  0.031  0.031
   19  0.000  0.000  0.025  0.026
   20  0.001  0.001  0.059  0.061
   21  0.001  0.001  0.059  0.061
   22  0.001  0.000  0.030  0.031
   23  0.001  0.001  0.059  0.061
   24  0.001  0.000  0.030  0.031
   25  0.000  0.000  0.025  0.026
   26  0.000  0.000  0.025  0.026
   27  0.001  0.000  0.030  0.031
   28  0.018  0.000  0.007  0.026
   29  0.000  0.000  0.020  0.021
   30  0.000  0.000  0.020  0.021
   31  0.000  0.000  0.020  0.021
   32  0.000  0.000  0.020  0.021
   33  0.000  0.000  0.020  0.021
   34  0.000  0.000  0.020  0.021
   35  0.007  0.000  0.005  0.012
   36  0.014  0.002  0.006  0.022