PROCAR new format
# of k-points:   10         # of bands:  252         # of ions:   37

 k-point     1 :    0.00000000 0.00000000 0.00000000     weight = 0.01562500

band     1 # energy  -18.47720990 # occ.  2.00000000
 
ion      s      p      d    tot
    1  0.000  0.000  0.000  0.000
    2  0.000  0.000  0.000  0.000
    3  0.000  0.000  0.000  0.000
    4  0.000  0.000  0.000  0.000
    5  0.000  0.000  0.000  0.000
    6  0.000  0.000  0.000  0.000
    7  0.000  0.000  0.000  0.000
    8  0.000  0.000  0.000  0.000
    9  0.000  0.000  0.000  0.000
   10  0.000  0.000  0.000  0.000
   11  0.000  0.000  0.000  0.000
   12  0.000  0.000  0.000  0.000
   13  0.000  0.000  0.000  0.000
   14  0.000  0.000  0.000  0.000
   15  0.000  0.000  0.000  0.000
   16  0.000  0.000  0.000  0.000
   17  0.000  0.000  0.000  0.000
   18  0.000  0.000  0.000  0.000
   19  0.000  0.000  0.000  0.000
   20  0.000  0.000  0.000  0.000
   21  0.000  0.000  0.000  0.000
   22  0.000  0.000  0.000  0.000
   23  0.000  0.000  0.000  0.000
   24  0.000  0.000  0.000  0.000
   25  0.000  0.000  0.000  0.000
   26  0.000  0.000  0.000  0.000
   27  0.000  0.000  0.000  0.000
   28  0.000  0.000  0.000  0.000
   29  0.000  0.000  0.000  0.000
   30  0.000  0.000  0.000  0.000
   31  0.000  0.000  0.000  0.000
   32  0.000  0.000  0.000  0.000
   33  0.000  0.000  0.000  0.000
   34  0.000  0.000  0.000  0.000
   35  0.000  0.000  0.000  0.000
   36  0.046  0.051  0.101  0.198
   37  0.765  0.017  0.000  0.781
tot    0.811  0.068  0.102  0.980
 
band     2 # energy   -6.36189211 # occ.  2.00000000
 
ion      s      p      d    tot
    1  0.005  0.001  0.000  0.006
    2  0.005  0.000  0.000  0.005
    3  0.005  0.000  0.000  0.005
    4  0.005  0.000  0.000  0.005
    5  0.005  0.000  0.000  0.005
    6  0.005  0.000  0.000  0.005
    7  0.005  0.000  0.000  0.005
    8  0.005  0.000  0.000  0.005
    9  0.005  0.000  0.000  0.005
   10  0.021  0.000  0.000  0.021
   11  0.021  0.000  0.000  0.021
   12  0.021  0.000  0.000  0.021
   13  0.021  0.000  0.000  0.021
   14  0.021  0.000  0.000  0.021
   15  0.019  0.000  0.000  0.019
   16  0.021  0.000  0.000  0.021
   17  0.019  0.000  0.000  0.019
   18  0.019  0.000  0.000  0.019
   19  0.021  0.000  0.001  0.022
   20  0.032  0.000  0.002  0.034
   21  0.032  0.000  0.002  0.034
   22  0.021  0.000  0.000  0.022
   23  0.032  0.000  0.002  0.034
   24  0.021  0.000  0.000  0.022
   25  0.021  0.000  0.001  0.022
   26  0.021  0.000  0.001  0.022
   27  0.021  0.000  0.000  0.022
   28  0.005  0.000  0.000  0.006
   29  0.006  0.001  0.000  0.007
   30  0.006  0.001  0.000  0.007
   31  0.006  0.001  0.000  0.007
   32  0.006  0.001  0.000  0.007
   33  0.006  0.001  0.000  0.007
   34  0.006  0.001  0.000  0.007
   35  0.005  0.000  0.000  0.006
   36  0.025  0.002  0.002  0.029
   37  0.003  0.008  0.000  0.011
tot    0.521  0.023  0.016  0.559
 
band     3 # energy   -5.59527908 # occ.  2.00000000
 
ion      s      p      d    tot
    1  0.004  0.000  0.001  0.005
    2  0.006  0.000  0.000  0.007
    3  0.006  0.000  0.000  0.007
    4  0.006  0.000  0.000  0.007
    5  0.007  0.000  0.000  0.008
    6  0.006  0.000  0.000  0.007
    7  0.006  0.000  0.000  0.007
    8  0.006  0.000  0.000  0.007
    9  0.008  0.001  0.000  0.008
   10  0.007  0.001  0.014  0.021
   11  0.011  0.000  0.004  0.016
   12  0.007  0.001  0.014  0.021
   13  0.011  0.000  0.004  0.016
   14  0.011  0.000  0.004  0.016
   15  0.014  0.000  0.004  0.018
   16  0.007  0.001  0.014  0.021
   17  0.014  0.000  0.004  0.018
   18  0.014  0.000  0.004  0.018
   19  0.001  0.000  0.011  0.012
   20  0.013  0.004  0.052  0.069
   21  0.013  0.004  0.052  0.069
   22  0.000  0.001  0.004  0.005
   23  0.013  0.004  0.052  0.069
   24  0.000  0.001  0.004  0.005
   25  0.001  0.000  0.011  0.012
   26  0.001  0.000  0.011  0.012
   27  0.000  0.001  0.004  0.005
   28  0.001  0.000  0.000  0.001
   29  0.002  0.000  0.002  0.004
   30  0.002  0.000  0.002  0.004
   31  0.002  0.000  0.002  0.004
   32  0.002  0.000  0.002  0.004
   33  0.002  0.000  0.002  0.004
   34  0.002  0.000  0.002  0.004
   35  0.000  0.000  0.000  0.000
   36  0.061  0.001  0.059  0.120
   37  0.013  0.105  0.000  0.118
tot    0.280  0.128  0.340  0.748
 
band     4 # energy   -5.34782038 # occ.  2.00000000
 
ion      s      p      d    tot
    1  0.008  0.001  0.000  0.008
    2  0.004  0.000  0.001  0.005
    3  0.004  0.000  0.001  0.005
    4  0.004  0.000  0.001  0.005
    5  0.002  0.000  0.000  0.003
    6  0.004  0.000  0.001  0.005
    7  0.004  0.000  0.001  0.005
    8  0.004  0.000  0.001  0.005
    9  0.003  0.000  0.000  0.003
   10  0.009  0.000  0.004  0.013
   11  0.003  0.001  0.012  0.016
   12  0.009  0.000  0.004  0.013
   13  0.003  0.001  0.012  0.016
   14  0.003  0.001  0.012  0.016
   15  0.002  0.001  0.009  0.012
   16  0.009  0.000  0.004  0.013
   17  0.002  0.001  0.009  0.012
   18  0.002  0.001  0.009  0.012
   19  0.006  0.001  0.011  0.018
   20  0.001  0.001  0.058  0.059
   21  0.001  0.001  0.058  0.059
   22  0.017  0.001  0.009  0.026
   23  0.001  0.001  0.058  0.059
   24  0.017  0.001  0.009  0.026
   25  0.006  0.001  0.011  0.018
   26  0.006  0.001  0.011  0.018
   27  0.017  0.001  0.009  0.026
   28  0.009  0.000  0.000  0.010
   29  0.009  0.000  0.001  0.011
   30  0.009  0.000  0.001  0.011
   31  0.009  0.000  0.001  0.011
   32  0.009  0.000  0.001  0.011
   33  0.009  0.000  0.001  0.011
   34  0.009  0.000  0.001  0.011
   35  0.012  0.001  0.000  0.013
   36  0.002  0.000  0.095  0.097
   37  0.005  0.084  0.000  0.089
tot    0.229  0.102  0.415  0.745
 
band     5 # energy   -5.23763347 # occ.  2.00000000
 
ion      s      p      d    tot
    1  0.002  0.000  0.010  0.012
    2  0.003  0.000  0.005  0.008
    3  0.003  0.000  0.005  0.008
    4  0.003  0.000  0.005  0.008
    5  0.003  0.000  0.003  0.006
    6  0.003  0.000  0.005  0.008
    7  0.003  0.000  0.005  0.008
    8  0.003  0.000  0.005  0.008
    9  0.005  0.000  0.004  0.009
   10  0.001  0.000  0.020  0.021
   11  0.000  0.000  0.015  0.015
   12  0.001  0.000  0.020  0.021
   13  0.000  0.000  0.015  0.015
   14  0.000  0.000  0.015  0.015
   15  0.000  0.000  0.009  0.009
   16  0.001  0.000  0.020  0.021
   17  0.000  0.000  0.009  0.009
   18  0.000  0.000  0.009  0.009
   19  0.005  0.000  0.016  0.021
   20  0.000  0.001  0.065  0.066
   21  0.000  0.001  0.065  0.066
   22  0.002  0.000  0.014  0.017
   23  0.000  0.001  0.065  0.066
   24  0.002  0.000  0.014  0.017
   25  0.005  0.000  0.016  0.021
   26  0.005  0.000  0.016  0.021
   27  0.002  0.000  0.014  0.017
   28  0.002  0.000  0.012  0.014
   29  0.009  0.001  0.023  0.032
   30  0.009  0.001  0.023  0.032
   31  0.009  0.001  0.023  0.032
   32  0.009  0.001  0.023  0.032
   33  0.009  0.001  0.023  0.032
   34  0.009  0.001  0.023  0.032
   35  0.004  0.000  0.010  0.014
   36  0.035  0.001  0.026  0.062
   37  0.000  0.001  0.000  0.001
tot    0.148  0.009  0.650  0.807
 
band     6 # energy   -5.13535357 # occ.  2.00000000
 
ion      s      p      d    tot
    1  0.000  0.000  0.006  0.006
    2  0.000  0.000  0.002  0.002
    3  0.000  0.000  0.001  0.001
    4  0.000  0.000  0.002  0.002
    5  0.000  0.000  0.002  0.002
    6  0.000  0.000  0.001  0.002
    7  0.000  0.000  0.001  0.001
    8  0.000  0.000  0.001  0.002
    9  0.000  0.000  0.001  0.001
   10  0.009  0.001  0.014  0.025
   11  0.000  0.001  0.020  0.021
   12  0.002  0.001  0.013  0.016
   13  0.000  0.001  0.020  0.021
   14  0.002  0.000  0.007  0.009
   15  0.000  0.000  0.006  0.007
   16  0.002  0.001  0.013  0.016
   17  0.000  0.000  0.006  0.007
   18  0.002  0.000  0.006  0.008
   19  0.003  0.001  0.015  0.019
   20  0.032  0.000  0.023  0.055
   21  0.008  0.000  0.094  0.103
   22  0.000  0.001  0.028  0.028
   23  0.008  0.000  0.096  0.104
   24  0.001  0.000  0.016  0.018
   25  0.012  0.000  0.023  0.036
   26  0.003  0.001  0.015  0.019
   27  0.000  0.001  0.028  0.029
   28  0.000  0.000  0.002  0.002
   29  0.000  0.001  0.013  0.014
   30  0.000  0.000  0.005  0.005
   31  0.000  0.001  0.013  0.014
   32  0.000  0.000  0.014  0.015
   33  0.000  0.000  0.005  0.005
   34  0.000  0.000  0.014  0.015
   35  0.000  0.000  0.001  0.001
   36  0.000  0.000  0.097  0.097
   37  0.000  0.078  0.000  0.078
tot    0.088  0.091  0.623  0.802
 
band     7 # energy   -5.13533166 # occ.  2.00000000
 
ion      s      p      d    tot
    1  0.000  0.000  0.006  0.006
    2  0.000  0.000  0.001  0.002
    3  0.000  0.000  0.001  0.002
    4  0.000  0.000  0.001  0.002
    5  0.000  0.000  0.002  0.002
    6  0.000  0.000  0.001  0.002
    7  0.000  0.000  0.001  0.002
    8  0.000  0.000  0.001  0.002
    9  0.000  0.000  0.001  0.001
   10  0.000  0.000  0.012  0.013
   11  0.001  0.000  0.012  0.013
   12  0.007  0.001  0.014  0.022
   13  0.001  0.000  0.012  0.013
   14  0.000  0.001  0.024  0.025
   15  0.001  0.000  0.006  0.007
   16  0.007  0.001  0.014  0.022
   17  0.001  0.000  0.006  0.007
   18  0.000  0.000  0.006  0.006
   19  0.009  0.001  0.021  0.030
   20  0.000  0.000  0.119  0.119
   21  0.024  0.000  0.047  0.072
   22  0.001  0.001  0.020  0.022
   23  0.024  0.000  0.046  0.071
   24  0.000  0.001  0.031  0.032
   25  0.000  0.001  0.012  0.013
   26  0.009  0.001  0.020  0.030
   27  0.001  0.001  0.020  0.021
   28  0.000  0.000  0.002  0.002
   29  0.000  0.000  0.009  0.009
   30  0.000  0.001  0.016  0.017
   31  0.000  0.000  0.009  0.009
   32  0.000  0.001  0.007  0.008
   33  0.000  0.001  0.016  0.017
   34  0.000  0.001  0.007  0.008
   35  0.000  0.000  0.001  0.001
   36  0.000  0.000  0.097  0.097
   37  0.000  0.078  0.000  0.078
tot    0.088  0.091  0.623  0.802
 
band     8 # energy   -5.06055615 # occ.  2.00000000
 
ion      s      p      d    tot
    1  0.018  0.000  0.011  0.029
    2  0.012  0.000  0.025  0.037
    3  0.012  0.000  0.025  0.037
    4  0.012  0.000  0.025  0.037
    5  0.014  0.000  0.036  0.049
    6  0.012  0.000  0.025  0.037
    7  0.012  0.000  0.025  0.037
    8  0.012  0.000  0.025  0.037
    9  0.006  0.000  0.027  0.033
   10  0.000  0.001  0.019  0.020
   11  0.001  0.000  0.038  0.040
   12  0.000  0.001  0.019  0.020
   13  0.001  0.000  0.038  0.040
   14  0.001  0.000  0.038  0.040
   15  0.004  0.000  0.022  0.027
   16  0.000  0.001  0.019  0.020
   17  0.004  0.000  0.022  0.027
   18  0.004  0.000  0.022  0.027
   19  0.003  0.000  0.001  0.005
   20  0.000  0.000  0.028  0.028
   21  0.000  0.000  0.028  0.028
   22  0.000  0.000  0.008  0.008
   23  0.000  0.000  0.028  0.028
   24  0.000  0.000  0.008  0.008
   25  0.003  0.000  0.001  0.005
   26  0.003  0.000  0.001  0.005
   27  0.000  0.000  0.008  0.008
   28  0.001  0.000  0.001  0.002
   29  0.000  0.000  0.009  0.009
   30  0.000  0.000  0.009  0.009
   31  0.000  0.000  0.009  0.009
   32  0.000  0.000  0.009  0.009
   33  0.000  0.000  0.009  0.009
   34  0.000  0.000  0.009  0.009
   35  0.000  0.000  0.000  0.000
   36  0.008  0.000  0.008  0.017
   37  0.000  0.001  0.000  0.001
tot    0.148  0.009  0.636  0.793
 
band     9 # energy   -5.03242214 # occ.  2.00000000
 
ion      s      p      d    tot
    1  0.000  0.000  0.003  0.004
    2  0.000  0.000  0.002  0.002
    3  0.001  0.000  0.006  0.007
    4  0.000  0.000  0.002  0.002
    5  0.000  0.000  0.008  0.008
    6  0.001  0.000  0.005  0.006
    7  0.001  0.000  0.006  0.007
    8  0.001  0.000  0.004  0.006
    9  0.000  0.000  0.002  0.002
   10  0.004  0.001  0.021  0.026
   11  0.007  0.001  0.077  0.085
   12  0.001  0.001  0.073  0.075
   13  0.007  0.001  0.080  0.087
   14  0.028  0.001  0.014  0.043
   15  0.003  0.001  0.014  0.018
   16  0.001  0.001  0.071  0.073
   17  0.002  0.001  0.013  0.017
   18  0.010  0.000  0.038  0.048
   19  0.001  0.000  0.027  0.028
   20  0.005  0.000  0.046  0.051
   21  0.001  0.001  0.039  0.041
   22  0.003  0.001  0.016  0.019
   23  0.001  0.001  0.040  0.042
   24  0.011  0.001  0.013  0.024
   25  0.003  0.000  0.012  0.016
   26  0.001  0.000  0.027  0.028
   27  0.003  0.001  0.016  0.019
   28  0.000  0.000  0.002  0.002
   29  0.001  0.000  0.004  0.005
   30  0.000  0.000  0.003  0.003
   31  0.001  0.000  0.004  0.005
   32  0.000  0.000  0.003  0.003
   33  0.000  0.000  0.003  0.004
   34  0.000  0.000  0.003  0.003
   35  0.000  0.000  0.005  0.005
   36  0.000  0.000  0.005  0.005
   37  0.000  0.000  0.000  0.000
tot    0.097  0.014  0.707  0.818
 
band    10 # energy   -5.03240745 # occ.  2.00000000
 
ion      s      p      d    tot
    1  0.000  0.000  0.003  0.004
    2  0.001  0.001  0.007  0.008
    3  0.000  0.000  0.002  0.003
    4  0.001  0.001  0.007  0.008
    5  0.000  0.000  0.008  0.008
    6  0.000  0.000  0.004  0.004
    7  0.000  0.000  0.002  0.003
    8  0.000  0.000  0.004  0.005
    9  0.000  0.000  0.002  0.002
   10  0.000  0.001  0.089  0.090
   11  0.021  0.001  0.037  0.058
   12  0.003  0.001  0.037  0.041
   13  0.022  0.001  0.034  0.057
   14  0.000  0.000  0.100  0.100
   15  0.007  0.001  0.029  0.037
   16  0.003  0.001  0.039  0.043
   17  0.008  0.001  0.030  0.038
   18  0.000  0.002  0.005  0.007
   19  0.002  0.000  0.017  0.020
   20  0.000  0.001  0.038  0.038
   21  0.004  0.001  0.044  0.048
   22  0.008  0.001  0.014  0.023
   23  0.004  0.001  0.044  0.048
   24  0.000  0.000  0.017  0.017
   25  0.000  0.000  0.032  0.032
   26  0.002  0.000  0.017  0.019
   27  0.008  0.001  0.014  0.023
   28  0.000  0.000  0.002  0.002
   29  0.000  0.000  0.003  0.003
   30  0.001  0.000  0.004  0.004
   31  0.000  0.000  0.003  0.003
   32  0.001  0.000  0.004  0.005
   33  0.001  0.000  0.004  0.004
   34  0.001  0.000  0.004  0.005
   35  0.000  0.000  0.005  0.005
   36  0.000  0.000  0.005  0.005
   37  0.000  0.000  0.000  0.000
tot    0.097  0.014  0.707  0.818
 
band    11 # energy   -5.01506845 # occ.  2.00000000
 
ion      s      p      d    tot
    1  0.000  0.000  0.001  0.002
    2  0.000  0.000  0.006  0.007
    3  0.000  0.000  0.006  0.007
    4  0.000  0.000  0.006  0.007
    5  0.005  0.001  0.002  0.008
    6  0.000  0.000  0.006  0.007
    7  0.000  0.000  0.006  0.007
    8  0.000  0.000  0.006  0.007
    9  0.000  0.000  0.009  0.009
   10  0.007  0.001  0.007  0.015
   11  0.014  0.001  0.042  0.057
   12  0.007  0.001  0.007  0.015
   13  0.014  0.001  0.042  0.057
   14  0.014  0.001  0.042  0.057
   15  0.002  0.000  0.059  0.062
   16  0.007  0.001  0.007  0.015
   17  0.002  0.000  0.059  0.062
   18  0.002  0.000  0.059  0.062
   19  0.009  0.001  0.028  0.037
   20  0.006  0.001  0.024  0.031
   21  0.006  0.001  0.024  0.031
   22  0.000  0.000  0.033  0.033
   23  0.006  0.001  0.024  0.031
   24  0.000  0.000  0.032  0.033
   25  0.009  0.001  0.028  0.037
   26  0.009  0.001  0.028  0.037
   27  0.000  0.000  0.033  0.033
   28  0.002  0.001  0.004  0.007
   29  0.000  0.000  0.004  0.004
   30  0.000  0.000  0.004  0.004
   31  0.000  0.000  0.004  0.004
   32  0.000  0.000  0.004  0.004
   33  0.000  0.000  0.004  0.004
   34  0.000  0.000  0.004  0.004
   35  0.001  0.000  0.001  0.002
   36  0.000  0.000  0.001  0.001
   37  0.000  0.000  0.000  0.000
tot    0.126  0.018  0.655  0.799
 
band    12 # energy   -4.99842225 # occ.  2.00000000
 
ion      s      p      d    tot
    1  0.001  0.000  0.000  0.001
    2  0.001  0.000  0.006  0.007
    3  0.001  0.000  0.006  0.007
    4  0.001  0.000  0.006  0.007
    5  0.000  0.000  0.001  0.001
    6  0.001  0.000  0.006  0.007
    7  0.001  0.000  0.006  0.007
    8  0.001  0.000  0.006  0.007
    9  0.003  0.000  0.007  0.010
   10  0.000  0.000  0.025  0.025
   11  0.000  0.000  0.012  0.012
   12  0.000  0.000  0.025  0.025
   13  0.000  0.000  0.012  0.012
   14  0.000  0.000  0.012  0.012
   15  0.003  0.000  0.035  0.038
   16  0.000  0.000  0.025  0.025
   17  0.003  0.000  0.035  0.038
   18  0.003  0.000  0.035  0.038
   19  0.008  0.001  0.008  0.016
   20  0.000  0.000  0.049  0.050
   21  0.000  0.000  0.049  0.050
   22  0.007  0.000  0.075  0.082
   23  0.000  0.000  0.049  0.050
   24  0.007  0.000  0.075  0.082
   25  0.008  0.001  0.008  0.016
   26  0.008  0.001  0.008  0.016
   27  0.007  0.000  0.075  0.082
   28  0.006  0.001  0.000  0.007
   29  0.002  0.000  0.008  0.010
   30  0.002  0.000  0.008  0.010
   31  0.002  0.000  0.008  0.010
   32  0.002  0.000  0.008  0.010
   33  0.002  0.000  0.008  0.010
   34  0.002  0.000  0.008  0.010
   35  0.000  0.001  0.022  0.023
   36  0.000  0.000  0.006  0.007
   37  0.000  0.008  0.000  0.008
tot    0.079  0.018  0.729  0.826
 
band    13 # energy   -4.98267040 # occ.  2.00000000
 
ion      s      p      d    tot
    1  0.002  0.000  0.029  0.031
    2  0.002  0.000  0.011  0.013
    3  0.002  0.000  0.010  0.013
    4  0.002  0.000  0.011  0.013
    5  0.000  0.000  0.001  0.001
    6  0.002  0.000  0.010  0.012
    7  0.002  0.000  0.010  0.013
    8  0.002  0.000  0.010  0.012
    9  0.008  0.001  0.000  0.009
   10  0.004  0.000  0.075  0.080
   11  0.004  0.000  0.027  0.032
   12  0.004  0.000  0.079  0.083
   13  0.004  0.000  0.027  0.032
   14  0.004  0.000  0.024  0.029
   15  0.005  0.001  0.011  0.017
   16  0.004  0.000  0.079  0.082
   17  0.005  0.001  0.011  0.017
   18  0.006  0.001  0.011  0.018
   19  0.000  0.000  0.024  0.025
   20  0.001  0.001  0.007  0.009
   21  0.001  0.001  0.008  0.010
   22  0.001  0.000  0.025  0.026
   23  0.001  0.001  0.008  0.010
   24  0.001  0.000  0.023  0.024
   25  0.000  0.000  0.025  0.025
   26  0.000  0.000  0.024  0.025
   27  0.001  0.000  0.025  0.026
   28  0.009  0.000  0.011  0.021
   29  0.004  0.000  0.012  0.016
   30  0.004  0.000  0.012  0.016
   31  0.004  0.000  0.012  0.016
   32  0.003  0.000  0.012  0.016
   33  0.004  0.000  0.012  0.016
   34  0.003  0.000  0.012  0.016
   35  0.001  0.000  0.013  0.014
   36  0.002  0.000  0.001  0.003
   37  0.000  0.000  0.000  0.000
tot    0.105  0.009  0.704  0.818
 
band    14 # energy   -4.98197179 # occ.  2.00000000
 
ion      s      p      d    tot
    1  0.000  0.001  0.012  0.012
    2  0.002  0.000  0.005  0.007
    3  0.001  0.001  0.010  0.012
    4  0.001  0.000  0.005  0.007
    5  0.000  0.000  0.006  0.006
    6  0.004  0.001  0.007  0.012
    7  0.001  0.001  0.010  0.011
    8  0.004  0.001  0.007  0.012
    9  0.000  0.001  0.010  0.010
   10  0.000  0.001  0.052  0.053
   11  0.000  0.000  0.035  0.035
   12  0.018  0.000  0.032  0.050
   13  0.000  0.000  0.036  0.036
   14  0.000  0.001  0.024  0.025
   15  0.015  0.000  0.036  0.051
   16  0.016  0.000  0.034  0.050
   17  0.016  0.000  0.030  0.046
   18  0.000  0.000  0.123  0.123
   19  0.002  0.000  0.019  0.022
   20  0.000  0.000  0.017  0.017
   21  0.001  0.000  0.016  0.018
   22  0.006  0.000  0.019  0.025
   23  0.001  0.000  0.016  0.018
   24  0.000  0.000  0.024  0.024
   25  0.000  0.000  0.035  0.035
   26  0.002  0.000  0.018  0.021
   27  0.006  0.000  0.019  0.025
   28  0.000  0.000  0.010  0.010
   29  0.002  0.000  0.003  0.005
   30  0.003  0.001  0.005  0.008
   31  0.002  0.000  0.003  0.006
   32  0.000  0.000  0.004  0.004
   33  0.003  0.001  0.005  0.008
   34  0.000  0.000  0.004  0.004
   35  0.000  0.000  0.004  0.004
   36  0.000  0.000  0.002  0.003
   37  0.000  0.000  0.000  0.000
tot    0.105  0.013  0.697  0.816
 
band    15 # energy   -4.98195844 # occ.  2.00000000
 
ion      s      p      d    tot
    1  0.000  0.001  0.012  0.012
    2  0.003  0.001  0.009  0.013
    3  0.003  0.001  0.005  0.009
    4  0.003  0.001  0.009  0.013
    5  0.000  0.000  0.006  0.006
    6  0.000  0.000  0.008  0.009
    7  0.003  0.001  0.005  0.009
    8  0.000  0.000  0.009  0.009
    9  0.000  0.001  0.010  0.010
   10  0.022  0.000  0.029  0.051
   11  0.000  0.000  0.027  0.028
   12  0.005  0.001  0.045  0.051
   13  0.000  0.001  0.027  0.027
   14  0.000  0.000  0.041  0.041
   15  0.006  0.000  0.090  0.096
   16  0.007  0.001  0.044  0.051
   17  0.005  0.000  0.096  0.101
   18  0.020  0.000  0.003  0.023
   19  0.001  0.000  0.029  0.030
   20  0.001  0.000  0.016  0.018
   21  0.000  0.000  0.017  0.017
   22  0.002  0.000  0.022  0.024
   23  0.000  0.000  0.017  0.017
   24  0.008  0.000  0.018  0.026
   25  0.003  0.001  0.013  0.017
   26  0.001  0.000  0.030  0.031
   27  0.002  0.000  0.021  0.024
   28  0.000  0.000  0.010  0.010
   29  0.001  0.000  0.005  0.006
   30  0.000  0.000  0.003  0.003
   31  0.001  0.000  0.005  0.006
   32  0.004  0.001  0.004  0.008
   33  0.000  0.000  0.003  0.003
   34  0.004  0.001  0.004  0.008
   35  0.000  0.000  0.004  0.004
   36  0.000  0.000  0.002  0.003
   37  0.000  0.000  0.000  0.000
tot    0.105  0.013  0.697  0.816
 
band    16 # energy   -4.96693274 # occ.  2.00000000
 
ion      s      p      d    tot
    1  0.000  0.000  0.006  0.006
    2  0.000  0.000  0.006  0.006
    3  0.002  0.000  0.006  0.008
    4  0.000  0.000  0.006  0.006
    5  0.000  0.000  0.005  0.005
    6  0.001  0.000  0.008  0.009
    7  0.002  0.000  0.005  0.008
    8  0.001  0.000  0.008  0.009
    9  0.000  0.000  0.018  0.018
   10  0.000  0.000  0.006  0.006
   11  0.002  0.000  0.021  0.022
   12  0.000  0.000  0.029  0.029
   13  0.002  0.000  0.017  0.019
   14  0.000  0.000  0.048  0.048
   15  0.001  0.000  0.036  0.037
   16  0.000  0.000  0.026  0.026
   17  0.001  0.000  0.035  0.036
   18  0.000  0.000  0.044  0.044
   19  0.005  0.000  0.035  0.040
   20  0.000  0.001  0.008  0.008
   21  0.000  0.000  0.049  0.049
   22  0.010  0.000  0.038  0.049
   23  0.000  0.000  0.044  0.045
   24  0.000  0.000  0.072  0.072
   25  0.000  0.000  0.101  0.101
   26  0.006  0.000  0.026  0.032
   27  0.009  0.000  0.042  0.051
   28  0.000  0.000  0.005  0.005
   29  0.001  0.000  0.004  0.005
   30  0.000  0.000  0.010  0.010
   31  0.001  0.000  0.004  0.006
   32  0.001  0.000  0.005  0.006
   33  0.000  0.000  0.010  0.010
   34  0.001  0.000  0.004  0.005
   35  0.000  0.000  0.010  0.010
   36  0.000  0.000  0.002  0.002
   37  0.000  0.000  0.000  0.000
tot    0.047  0.006  0.797  0.851
 
band    17 # energy   -4.96691893 # occ.  2.00000000
 
ion      s      p      d    tot
    1  0.000  0.000  0.006  0.006
    2  0.002  0.000  0.007  0.009
    3  0.000  0.000  0.007  0.007
    4  0.002  0.000  0.007  0.009
    5  0.000  0.000  0.005  0.005
    6  0.001  0.000  0.005  0.006
    7  0.000  0.000  0.007  0.008
    8  0.002  0.000  0.005  0.007
    9  0.000  0.000  0.018  0.018
   10  0.000  0.000  0.035  0.035
   11  0.001  0.000  0.037  0.037
   12  0.000  0.000  0.012  0.012
   13  0.000  0.000  0.040  0.041
   14  0.002  0.000  0.009  0.011
   15  0.000  0.000  0.041  0.041
   16  0.000  0.000  0.015  0.015
   17  0.000  0.000  0.042  0.042
   18  0.001  0.000  0.033  0.034
   19  0.002  0.000  0.073  0.075
   20  0.000  0.000  0.060  0.060
   21  0.000  0.000  0.018  0.019
   22  0.003  0.000  0.063  0.066
   23  0.000  0.000  0.023  0.024
   24  0.013  0.000  0.030  0.043
   25  0.008  0.000  0.007  0.014
   26  0.002  0.000  0.082  0.083
   27  0.004  0.000  0.059  0.063
   28  0.000  0.000  0.005  0.005
   29  0.000  0.000  0.008  0.009
   30  0.001  0.000  0.002  0.004
   31  0.000  0.000  0.008  0.008
   32  0.001  0.000  0.007  0.008
   33  0.001  0.000  0.002  0.004
   34  0.000  0.000  0.008  0.009
   35  0.000  0.000  0.010  0.010
   36  0.000  0.000  0.002  0.002
   37  0.000  0.000  0.000  0.000
tot    0.047  0.006  0.797  0.851
 
band    18 # energy   -4.92494487 # occ.  2.00000000
 
ion      s      p      d    tot
    1  0.000  0.000  0.004  0.004
    2  0.001  0.000  0.004  0.005
    3  0.001  0.000  0.003  0.004
    4  0.001  0.000  0.004  0.005
    5  0.000  0.001  0.012  0.012
    6  0.003  0.001  0.004  0.007
    7  0.001  0.000  0.003  0.004
    8  0.003  0.001  0.004  0.007
    9  0.000  0.000  0.003  0.003
   10  0.000  0.000  0.012  0.012
   11  0.002  0.000  0.021  0.023
   12  0.000  0.000  0.006  0.006
   13  0.001  0.000  0.021  0.022
   14  0.006  0.000  0.047  0.053
   15  0.000  0.000  0.013  0.014
   16  0.000  0.000  0.006  0.007
   17  0.000  0.000  0.014  0.014
   18  0.000  0.000  0.011  0.011
   19  0.001  0.000  0.010  0.011
   20  0.001  0.000  0.073  0.074
   21  0.000  0.000  0.116  0.117
   22  0.000  0.000  0.044  0.044
   23  0.000  0.000  0.115  0.115
   24  0.000  0.000  0.025  0.026
   25  0.004  0.000  0.027  0.031
   26  0.001  0.000  0.010  0.011
   27  0.000  0.000  0.043  0.044
   28  0.000  0.000  0.001  0.001
   29  0.001  0.000  0.006  0.007
   30  0.001  0.001  0.009  0.011
   31  0.001  0.000  0.006  0.007
   32  0.000  0.001  0.010  0.011
   33  0.001  0.001  0.009  0.011
   34  0.000  0.001  0.010  0.011
   35  0.000  0.000  0.000  0.000
   36  0.000  0.000  0.051  0.052
   37  0.000  0.058  0.000  0.058
tot    0.030  0.066  0.761  0.857
 
band    19 # energy   -4.92492483 # occ.  2.00000000
 
ion      s      p      d    tot
    1  0.000  0.000  0.004  0.004
    2  0.002  0.000  0.004  0.006
    3  0.002  0.001  0.004  0.007
    4  0.002  0.000  0.004  0.006
    5  0.000  0.001  0.012  0.012
    6  0.000  0.000  0.004  0.004
    7  0.002  0.001  0.004  0.007
    8  0.000  0.000  0.004  0.004
    9  0.000  0.000  0.003  0.003
   10  0.000  0.000  0.005  0.005
   11  0.004  0.000  0.038  0.042
   12  0.000  0.000  0.010  0.011
   13  0.004  0.000  0.039  0.043
   14  0.000  0.000  0.012  0.012
   15  0.000  0.000  0.012  0.012
   16  0.000  0.000  0.010  0.010
   17  0.000  0.000  0.011  0.012
   18  0.000  0.000  0.015  0.015
   19  0.003  0.000  0.021  0.024
   20  0.000  0.000  0.130  0.130
   21  0.001  0.000  0.086  0.088
   22  0.000  0.000  0.031  0.031
   23  0.001  0.000  0.088  0.089
   24  0.000  0.000  0.050  0.050
   25  0.000  0.000  0.004  0.004
   26  0.003  0.000  0.022  0.025
   27  0.000  0.000  0.031  0.032
   28  0.000  0.000  0.001  0.001
   29  0.001  0.001  0.011  0.012
   30  0.000  0.000  0.008  0.008
   31  0.000  0.001  0.011  0.012
   32  0.001  0.000  0.007  0.009
   33  0.000  0.000  0.008  0.009
   34  0.001  0.000  0.007  0.009
   35  0.000  0.000  0.000  0.000
   36  0.000  0.000  0.051  0.052
   37  0.000  0.058  0.000  0.058
tot    0.030  0.066  0.761  0.857
 
band    20 # energy   -4.88975339 # occ.  2.00000000
 
ion      s      p      d    tot
    1  0.002  0.000  0.000  0.003
    2  0.000  0.000  0.009  0.009
    3  0.000  0.000  0.009  0.009
    4  0.000  0.000  0.009  0.009
    5  0.003  0.001  0.009  0.012
    6  0.000  0.000  0.009  0.009
    7  0.000  0.000  0.009  0.009
    8  0.000  0.000  0.009  0.009
    9  0.001  0.000  0.012  0.013
   10  0.003  0.000  0.002  0.005
   11  0.000  0.001  0.069  0.069
   12  0.003  0.000  0.002  0.005
   13  0.000  0.001  0.069  0.069
   14  0.000  0.001  0.069  0.069
   15  0.001  0.001  0.040  0.042
   16  0.003  0.000  0.002  0.005
   17  0.001  0.001  0.040  0.042
   18  0.001  0.001  0.040  0.042
   19  0.001  0.000  0.033  0.033
   20  0.006  0.000  0.031  0.037
   21  0.006  0.000  0.031  0.037
   22  0.006  0.000  0.019  0.025
   23  0.006  0.000  0.031  0.037
   24  0.006  0.000  0.019  0.025
   25  0.001  0.000  0.033  0.033
   26  0.001  0.000  0.033  0.033
   27  0.006  0.000  0.019  0.025
   28  0.001  0.000  0.002  0.004
   29  0.000  0.000  0.013  0.014
   30  0.000  0.000  0.013  0.014
   31  0.000  0.000  0.013  0.014
   32  0.000  0.000  0.013  0.014
   33  0.000  0.000  0.013  0.014
   34  0.000  0.000  0.013  0.014
   35  0.006  0.001  0.002  0.008
   36  0.002  0.001  0.014  0.016
   37  0.002  0.024  0.000  0.025
tot    0.066  0.036  0.746  0.848
 
band    21 # energy   -4.80911886 # occ.  2.00000000
 
ion      s      p      d    tot
    1  0.000  0.000  0.004  0.004
    2  0.000  0.001  0.013  0.014
    3  0.000  0.001  0.013  0.014
    4  0.000  0.001  0.013  0.014
    5  0.005  0.001  0.000  0.006
    6  0.000  0.001  0.013  0.014
    7  0.000  0.001  0.013  0.014
    8  0.000  0.001  0.013  0.014
    9  0.004  0.001  0.000  0.005
   10  0.003  0.000  0.039  0.042
   11  0.000  0.000  0.034  0.035
   12  0.003  0.000  0.039  0.042
   13  0.000  0.000  0.034  0.035
   14  0.000  0.000  0.034  0.034
   15  0.004  0.000  0.015  0.019
   16  0.003  0.000  0.039  0.042
   17  0.004  0.000  0.015  0.019
   18  0.004  0.000  0.015  0.019
   19  0.001  0.000  0.058  0.060
   20  0.001  0.000  0.013  0.014
   21  0.001  0.000  0.013  0.014
   22  0.000  0.001  0.039  0.040
   23  0.001  0.000  0.013  0.014
   24  0.000  0.001  0.039  0.040
   25  0.001  0.000  0.058  0.060
   26  0.001  0.000  0.058  0.060
   27  0.000  0.001  0.039  0.040
   28  0.001  0.000  0.023  0.024
   29  0.001  0.000  0.012  0.013
   30  0.001  0.000  0.012  0.013
   31  0.001  0.000  0.012  0.013
   32  0.001  0.000  0.012  0.013
   33  0.001  0.000  0.012  0.013
   34  0.001  0.000  0.012  0.013
   35  0.009  0.001  0.000  0.010
   36  0.002  0.000  0.000  0.002