 vasp.6.2.0 18Jan21 (build Jun 12 2021 23:27:24) complex                        
  
 executed on             LinuxIFC date 2022.05.26  19:48:26
 running on   28 total cores
 distrk:  each k-point on   28 cores,    1 groups
 distr:  one band on NCORE=   1 cores,   28 groups


--------------------------------------------------------------------------------------------------------


 INCAR:
   ISMEAR = -5
   SIGMA = 0.1
   ISPIN = 1
   EDIFF = 1.d-5
   EDIFFG = -0.01
   NSW = 0
   NELM = 150
   ENCUT = 500
   ISIF = 2
   IBRION = 2
   LREAL = Auto
   ALGO = Fast
   ICHARG = 11
   LORBIT = 10
   LCHARG = .F.
   LWAVE = .F.

 POTCAR:    PAW_PBE Ag 02Apr2005                  
 POTCAR:    PAW_PBE Rh 04Feb2005                  
 POTCAR:    PAW_PBE H 15Jun2001                   
 -----------------------------------------------------------------------------
|                                                                             |
|           W    W    AA    RRRRR   N    N  II  N    N   GGGG   !!!           |
|           W    W   A  A   R    R  NN   N  II  NN   N  G    G  !!!           |
|           W    W  A    A  R    R  N N  N  II  N N  N  G       !!!           |
|           W WW W  AAAAAA  RRRRR   N  N N  II  N  N N  G  GGG   !            |
|           WW  WW  A    A  R   R   N   NN  II  N   NN  G    G                |
|           W    W  A    A  R    R  N    N  II  N    N   GGGG   !!!           |
|                                                                             |
|     For optimal performance we recommend to set                             |
|       NCORE = 2 up to number-of-cores-per-socket                            |
|     NCORE specifies how many cores store one orbital (NPAR=cpu/NCORE).      |
|     This setting can greatly improve the performance of VASP for DFT.       |
|     The default, NCORE=1 might be grossly inefficient on modern             |
|     multi-core architectures or massively parallel machines. Do your        |
|     own testing! More info at https://www.vasp.at/wiki/index.php/NCORE      |
|     Unfortunately you need to use the default for GW and RPA                |
|     calculations (for HF NCORE is supported but not extensively tested      |
|     yet).                                                                   |
|                                                                             |
 -----------------------------------------------------------------------------

 POTCAR:    PAW_PBE Ag 02Apr2005                  
   VRHFIN =Ag : s1 d10                                                                              
   LEXCH  = PE                                                                                      
   EATOM  =  1037.2675 eV,   76.2370 Ry                                                             
                                                                                                    
   TITEL  = PAW_PBE Ag 02Apr2005                                                                    
   LULTRA =        F    use ultrasoft PP ?                                                          
   IUNSCR =        1    unscreen: 0-lin 1-nonlin 2-no                                               
   RPACOR =    2.000    partial core radius                                                         
   POMASS =  107.868; ZVAL   =   11.000    mass and valenz                                          
   RCORE  =    2.500    outmost cutoff radius                                                       
   RWIGS  =    2.840; RWIGS  =    1.503    wigner-seitz radius (au A)                               
   ENMAX  =  249.844; ENMIN  =  187.383 eV                                                          
   ICORE  =        3    local potential                                                             
   LCOR   =        T    correct aug charges                                                         
   LPAW   =        T    paw PP                                                                      
   EAUG   =  412.496                                                                                
   DEXC   =    0.000                                                                                
   RMAX   =    2.560    core radius for proj-oper                                                   
   RAUG   =    1.300    factor for augmentation sphere                                              
   RDEP   =    2.576    radius for radial grids                                                     
   RDEPT  =    2.072    core radius for aug-charge                                                  
                                                                                                    
   Atomic configuration                                                                             
   12 entries                                                                                       
     n  l   j            E        occ.                                                              
     1  0  0.50    -25324.9161   2.0000                                                             
     2  0  0.50     -3728.5341   2.0000                                                             
     2  1  1.50     -3344.0404   6.0000                                                             
     3  0  0.50      -683.5581   2.0000                                                             
     3  1  1.50      -557.3225   6.0000                                                             
     3  2  2.50      -358.3853  10.0000                                                             
     4  0  0.50       -95.0341   2.0000                                                             
     4  1  1.50       -58.5511   6.0000                                                             
     4  2  2.50        -7.4440  10.0000                                                             
     5  0  0.50        -4.4045   1.0000                                                             
     5  1  0.50        -1.3606   0.0000                                                             
     4  3  2.50        -1.3606   0.0000                                                             
   Description                                                                                      
     l       E           TYP  RCUT    TYP  RCUT                                                     
     2     -7.4439781     23  2.400                                                                 
     2     -8.8045607     23  2.400                                                                 
     0     -4.4044681     23  2.400                                                                 
     0      1.9520038     23  2.400                                                                 
     1     -1.3605826     23  2.500                                                                 
     1     27.2116520     23  2.500                                                                 
     3     -4.0817478     23  2.400                                                                 
  local pseudopotential read in
  partial core-charges read in
  partial kinetic energy density read in
  atomic valenz-charges read in
  non local Contribution for L=           2  read in
    real space projection operators read in
  non local Contribution for L=           2  read in
    real space projection operators read in
  non local Contribution for L=           0  read in
    real space projection operators read in
  non local Contribution for L=           0  read in
    real space projection operators read in
  non local Contribution for L=           1  read in
    real space projection operators read in
  non local Contribution for L=           1  read in
    real space projection operators read in
    PAW grid and wavefunctions read in
 
   number of l-projection  operators is LMAX  =           6
   number of lm-projection operators is LMMAX =          18
 
 POTCAR:    PAW_PBE Rh 04Feb2005                  
   VRHFIN =Rh: s1 d8                                                                                
   LEXCH  = PE                                                                                      
   EATOM  =   616.4198 eV,   45.3056 Ry                                                             
                                                                                                    
   TITEL  = PAW_PBE Rh 04Feb2005                                                                    
   LULTRA =        F    use ultrasoft PP ?                                                          
   IUNSCR =        1    unscreen: 0-lin 1-nonlin 2-no                                               
   RPACOR =    2.170    partial core radius                                                         
   POMASS =  102.906; ZVAL   =    9.000    mass and valenz                                          
   RCORE  =    2.700    outmost cutoff radius                                                       
   RWIGS  =    2.650; RWIGS  =    1.402    wigner-seitz radius (au A)                               
   ENMAX  =  228.996; ENMIN  =  171.747 eV                                                          
   ICORE  =        3    local potential                                                             
   LCOR   =        T    correct aug charges                                                         
   LPAW   =        T    paw PP                                                                      
   EAUG   =  374.513                                                                                
   DEXC   =    0.000                                                                                
   RMAX   =    2.752    core radius for proj-oper                                                   
   RAUG   =    1.300    factor for augmentation sphere                                              
   RDEP   =    2.703    radius for radial grids                                                     
   RDEPT  =    2.174    core radius for aug-charge                                                  
                                                                                                    
   Atomic configuration                                                                             
   12 entries                                                                                       
     n  l   j            E        occ.                                                              
     1  0  0.50    -23034.1986   2.0000                                                             
     2  0  0.50     -3339.2387   2.0000                                                             
     2  1  1.50     -2992.3290   6.0000                                                             
     3  0  0.50      -596.7249   2.0000                                                             
     3  1  1.50      -482.7183   6.0000                                                             
     3  2  2.50      -300.5356  10.0000                                                             
     4  0  0.50       -82.4809   2.0000                                                             
     4  1  0.50       -50.4082   6.0000                                                             
     4  2  2.50        -5.9408   8.0000                                                             
     5  0  0.50        -4.2999   1.0000                                                             
     5  1  1.50        -1.3606   0.0000                                                             
     4  3  2.50        -1.3606   0.0000                                                             
   Description                                                                                      
     l       E           TYP  RCUT    TYP  RCUT                                                     
     2     -5.9407964     23  2.500                                                                 
     2     -7.3013790     23  2.500                                                                 
     0     -4.2998518     23  2.400                                                                 
     0      6.0533315     23  2.400                                                                 
     1     -4.0817478     23  2.700                                                                 
     1     27.2116520     23  2.700                                                                 
     3     -4.0817478     23  2.500                                                                 
  local pseudopotential read in
  partial core-charges read in
  partial kinetic energy density read in
  atomic valenz-charges read in
  non local Contribution for L=           2  read in
    real space projection operators read in
  non local Contribution for L=           2  read in
    real space projection operators read in
  non local Contribution for L=           0  read in
    real space projection operators read in
  non local Contribution for L=           0  read in
    real space projection operators read in
  non local Contribution for L=           1  read in
    real space projection operators read in
  non local Contribution for L=           1  read in
    real space projection operators read in
    PAW grid and wavefunctions read in
 
   number of l-projection  operators is LMAX  =           6
   number of lm-projection operators is LMMAX =          18
 
 POTCAR:    PAW_PBE H 15Jun2001                   
   VRHFIN =H: ultrasoft test                                                                        
   LEXCH  = PE                                                                                      
   EATOM  =    12.4884 eV,    0.9179 Ry                                                             
                                                                                                    
   TITEL  = PAW_PBE H 15Jun2001                                                                     
   LULTRA =        F    use ultrasoft PP ?                                                          
   IUNSCR =        0    unscreen: 0-lin 1-nonlin 2-no                                               
   RPACOR =    0.000    partial core radius                                                         
   POMASS =    1.000; ZVAL   =    1.000    mass and valenz                                          
   RCORE  =    1.100    outmost cutoff radius                                                       
   RWIGS  =    0.700; RWIGS  =    0.370    wigner-seitz radius (au A)                               
   ENMAX  =  250.000; ENMIN  =  200.000 eV                                                          
   RCLOC  =    0.701    cutoff for local pot                                                        
   LCOR   =        T    correct aug charges                                                         
   LPAW   =        T    paw PP                                                                      
   EAUG   =  400.000                                                                                
   RMAX   =    1.123    core radius for proj-oper                                                   
   RAUG   =    1.200    factor for augmentation sphere                                              
   RDEP   =    1.112    radius for radial grids                                                     
   RDEPT  =    0.926    core radius for aug-charge                                                  
                                                                                                    
   Atomic configuration                                                                             
    2 entries                                                                                       
     n  l   j            E        occ.                                                              
     1  0  0.50        -6.4927   1.0000                                                             
     2  1  0.50        -3.4015   0.0000                                                             
   Description                                                                                      
     l       E           TYP  RCUT    TYP  RCUT                                                     
     0     -6.4927494     23  1.100                                                                 
     0      6.8029130     23  1.100                                                                 
     1     -4.0817478     23  1.100                                                                 
  local pseudopotential read in
  atomic valenz-charges read in
  non local Contribution for L=           0  read in
    real space projection operators read in
  non local Contribution for L=           0  read in
    real space projection operators read in
  non local Contribution for L=           1  read in
    real space projection operators read in
    PAW grid and wavefunctions read in
 
   number of l-projection  operators is LMAX  =           3
   number of lm-projection operators is LMMAX =           5
 
 Optimization of the real space projectors (new method)

 maximal supplied QI-value         = 15.12
 optimisation between [QCUT,QGAM] = [ 11.34, 22.83] = [ 36.00,145.93] Ry 
 Optimized for a Real-space Cutoff    1.43 Angstroem

   l    n(q)    QCUT    max X(q) W(low)/X(q) W(high)/X(q)  e(spline) 
   2      9    11.338    53.897    0.16E-03    0.20E-03    0.28E-06
   2      9    11.338    52.416    0.16E-03    0.20E-03    0.29E-06
   0     10    11.338   122.045    0.31E-04    0.76E-04    0.15E-06
   0     10    11.338    73.629    0.30E-04    0.72E-04    0.15E-06
   1      9    11.338    15.255    0.20E-03    0.19E-04    0.17E-06
   1      9    11.338     9.562    0.16E-03    0.15E-04    0.14E-06
 Optimization of the real space projectors (new method)

 maximal supplied QI-value         = 13.98
 optimisation between [QCUT,QGAM] = [ 11.33, 22.79] = [ 35.93,145.49] Ry 
 Optimized for a Real-space Cutoff    1.47 Angstroem

   l    n(q)    QCUT    max X(q) W(low)/X(q) W(high)/X(q)  e(spline) 
   2      9    11.327    59.645    0.31E-03    0.12E-04    0.28E-06
   2      9    11.327    58.460    0.31E-03    0.12E-04    0.29E-06
   0     10    11.327    97.683    0.32E-04    0.83E-04    0.31E-06
   0     10    11.327    53.223    0.30E-04    0.78E-04    0.29E-06
   1     10    11.327    13.596    0.49E-03    0.95E-03    0.55E-06
   1     10    11.327     7.885    0.36E-03    0.71E-03    0.41E-06
 Optimization of the real space projectors (new method)

 maximal supplied QI-value         = 34.20
 optimisation between [QCUT,QGAM] = [ 11.29, 22.57] = [ 35.68,142.71] Ry 
 Optimized for a Real-space Cutoff    1.16 Angstroem

   l    n(q)    QCUT    max X(q) W(low)/X(q) W(high)/X(q)  e(spline) 
   0      8    11.287    19.460    0.40E-03    0.73E-03    0.16E-06
   0      8    11.287    12.209    0.38E-03    0.70E-03    0.15E-06
   1      7    11.287     4.655    0.22E-03    0.25E-04    0.22E-06
  PAW_PBE Ag 02Apr2005                  :
 energy of atom  1       EATOM=-1037.2675
 kinetic energy error for atom=    0.0052 (will be added to EATOM!!)
  PAW_PBE Rh 04Feb2005                  :
 energy of atom  2       EATOM= -616.4198
 kinetic energy error for atom=    0.0030 (will be added to EATOM!!)
  PAW_PBE H 15Jun2001                   :
 energy of atom  3       EATOM=  -12.4884
 kinetic energy error for atom=    0.0020 (will be added to EATOM!!)
 
 
 POSCAR: Ag-Rh-H
  positions in direct lattice
  velocities in cartesian coordinates
 exchange correlation table for  LEXCH =        8
   RHO(1)=    0.500       N(1)  =     2000
   RHO(2)=  100.500       N(2)  =     4000

 VTST: version 3.2, (02/03/18)

 CHAIN: initializing optimizer
 
 OPT: Using VASP Conjugate-Gradient optimizer
 CHAIN: Read ICHAIN            0
 
 POSCAR: Ag-Rh-H
  positions in direct lattice
  velocities in cartesian coordinates
 


--------------------------------------------------------------------------------------------------------


 ion  position               nearest neighbor table
   1  0.000  0.000  0.238-   2 2.93   8 2.93   7 2.93   6 2.93   4 2.93  12 2.93  16 2.93  10 2.93
                             3 2.93
   2  0.333  0.000  0.238-   1 2.93   8 2.93   9 2.93   3 2.93   4 2.93   5 2.93  10 2.93  17 2.93
                            11 2.93
   3  0.667  0.000  0.238-   9 2.93   2 2.93   5 2.93  11 2.93   7 2.93  18 2.93   1 2.93   6 2.93
                            12 2.93
   4  0.000  0.333  0.238-   5 2.93   6 2.93   2 2.93   1 2.93   7 2.93  13 2.93  15 2.93   9 2.93
                            10 2.93
   5  0.333  0.333  0.238-   4 2.93   3 2.93   7 2.93   2 2.93   8 2.93  14 2.93  13 2.93  11 2.93
                             6 2.93
   6  0.667  0.333  0.238-   4 2.93   9 2.93   1 2.93  15 2.93   8 2.93  12 2.93   3 2.93   5 2.93
                            14 2.93
   7  0.000  0.667  0.238-   8 2.93   1 2.93   5 2.93   3 2.93   4 2.93  16 2.93  18 2.93  13 2.93
                             9 2.93
   8  0.333  0.667  0.238-   7 2.93   1 2.93   2 2.93   9 2.93   5 2.93  16 2.93   6 2.93  17 2.93
                            14 2.93
   9  0.667  0.667  0.238-   3 2.93   2 2.93   8 2.93   6 2.93  17 2.93   4 2.93  15 2.93   7 2.93
                            18 2.93
  10  0.111  0.111  0.346-  20 2.90  19 2.93  26 2.93  12 2.93  16 2.93  15 2.93  17 2.93  13 2.93
                            11 2.93   2 2.93   1 2.93   4 2.93
  11  0.444  0.111  0.346-  21 2.90  20 2.90  27 2.92  14 2.93  17 2.93  18 2.93   3 2.93  12 2.93
                            13 2.93  10 2.93   5 2.93   2 2.93
  12  0.778  0.111  0.346-  21 2.90  25 2.93  19 2.93  10 2.93  16 2.93  18 2.93  15 2.93  11 2.93
                             1 2.93  14 2.93   6 2.93   3 2.93
  13  0.111  0.444  0.346-  20 2.90  23 2.90  22 2.92  15 2.93  14 2.93  18 2.93  10 2.93  11 2.93
                            16 2.93   4 2.93   5 2.93   7 2.93
  14  0.444  0.444  0.346-  23 2.90  21 2.90  24 2.92  13 2.93  11 2.93  16 2.93   5 2.93  12 2.93
                            17 2.93   8 2.93  15 2.93   6 2.93
  15  0.778  0.444  0.346-  24 2.92  22 2.92  19 2.92  13 2.93  10 2.93  12 2.93  17 2.93  18 2.93
                             4 2.93   6 2.93   9 2.93  14 2.93
  16  0.111  0.778  0.346-  23 2.90  26 2.93  25 2.93  18 2.93  12 2.93  10 2.93  14 2.93  17 2.93
                            13 2.93   7 2.93   8 2.93   1 2.93
  17  0.444  0.778  0.346-  27 2.92  24 2.92  26 2.92  11 2.93  10 2.93   9 2.93  18 2.93  15 2.93
                            16 2.93   2 2.93  14 2.93   8 2.93
  18  0.778  0.778  0.346-  22 2.92  27 2.92  25 2.92  16 2.93  12 2.93  13 2.93  11 2.93  17 2.93
                            15 2.93   7 2.93   3 2.93   9 2.93
  19  0.889  0.223  0.454-  28 2.91  15 2.92  10 2.93  12 2.93  24 2.93  22 2.93  32 2.93  31 2.93
                            20 2.93  21 2.93  26 2.94  25 2.94
  20  0.222  0.222  0.452-  36 2.78  13 2.90  11 2.90  10 2.90  31 2.91  29 2.91  21 2.92  23 2.92
                            27 2.93  22 2.93  19 2.93  26 2.93
  21  0.555  0.222  0.452-  36 2.78  11 2.90  14 2.90  12 2.90  30 2.91  32 2.91  20 2.92  23 2.92
                            27 2.93  24 2.93  25 2.93  19 2.93
  22  0.889  0.556  0.453-  35 2.90  18 2.92  15 2.92  13 2.92  33 2.92  31 2.92  25 2.93  19 2.93
                            24 2.93  27 2.93  23 2.93  20 2.93
  23  0.222  0.555  0.452-  36 2.78  14 2.90  13 2.90  16 2.90  34 2.91  33 2.91  21 2.92  20 2.92
                            22 2.93  24 2.93  26 2.93  25 2.93
  24  0.556  0.556  0.453-  35 2.90  15 2.92  17 2.92  14 2.92  32 2.92  34 2.92  19 2.93  26 2.93
                            27 2.93  22 2.93  23 2.93  21 2.93
  25  0.889  0.889  0.454-  28 2.91  18 2.92  16 2.93  12 2.93  22 2.93  27 2.93  33 2.93  30 2.93
                            23 2.93  21 2.93  26 2.94  19 2.94
  26  0.223  0.889  0.454-  28 2.91  17 2.92  16 2.93  10 2.93  27 2.93  24 2.93  34 2.93  29 2.93
                            23 2.93  20 2.93  25 2.94  19 2.94
  27  0.556  0.889  0.453-  35 2.90  17 2.92  18 2.92  11 2.92  29 2.92  30 2.92  26 2.93  25 2.93
                            24 2.93  22 2.93  20 2.93  21 2.93
  28  0.000  0.000  0.560-  26 2.91  25 2.91  19 2.91  29 2.95  34 2.95  33 2.95  32 2.95  31 2.95
                            30 2.95
  29  0.333  0.005  0.560-  31 2.88  30 2.89  36 2.89  20 2.91  27 2.92  26 2.93  28 2.95  35 2.95
                            34 3.02
  30  0.662  0.005  0.560-  32 2.88  29 2.89  36 2.89  21 2.91  27 2.92  25 2.93  28 2.95  35 2.95
                            33 3.02
  31  0.005  0.333  0.560-  29 2.88  33 2.89  36 2.89  20 2.91  22 2.92  19 2.93  28 2.95  35 2.95
                            32 3.02
  32  0.662  0.333  0.560-  30 2.88  34 2.89  36 2.89  21 2.91  24 2.92  19 2.93  28 2.95  35 2.95
                            31 3.02
  33  0.005  0.662  0.560-  34 2.88  31 2.89  36 2.89  23 2.91  22 2.92  25 2.93  28 2.95  35 2.95
                            30 3.02
  34  0.333  0.662  0.560-  33 2.88  32 2.89  36 2.89  23 2.91  24 2.92  26 2.93  28 2.95  35 2.95
                            29 3.02
  35  0.667  0.667  0.560-  24 2.90  27 2.90  22 2.90  30 2.95  32 2.95  29 2.95  34 2.95  31 2.95
                            33 2.95
  36  0.333  0.333  0.552-  37 1.57  21 2.78  20 2.78  23 2.78  31 2.89  30 2.89  33 2.89  29 2.89
                            34 2.89  32 2.89
  37  0.333  0.333  0.623-  36 1.57
 
  LATTYP: Found a hexagonal cell.
 ALAT       =     8.7913665772
 C/A-ratio  =     2.5227160501
  
  Lattice vectors:
  
 A1 = (  -4.3956832886,  -7.6135467898,   0.0000000000)
 A2 = (   8.7913665771,   0.0000000000,   0.0000000000)
 A3 = (   0.0000000000,   0.0000000000,  22.1781215668)


Analysis of symmetry for initial positions (statically):
=====================================================================
 Subroutine PRICEL returns:
 Original cell was already a primitive cell.
 

 Routine SETGRP: Setting up the symmetry group for a 
 hexagonal supercell.


 Subroutine GETGRP returns: Found  6 space group operations
 (whereof  6 operations were pure point group operations)
 out of a pool of 24 trial point group operations.


The static configuration has the point symmetry C_3v.


Analysis of symmetry for dynamics (positions and initial velocities):
=====================================================================
 Subroutine PRICEL returns:
 Original cell was already a primitive cell.
 

 Routine SETGRP: Setting up the symmetry group for a 
 hexagonal supercell.


 Subroutine GETGRP returns: Found  6 space group operations
 (whereof  6 operations were pure point group operations)
 out of a pool of 24 trial point group operations.


The dynamic configuration has the point symmetry C_3v.


Analysis of constrained symmetry for selective dynamics:
=====================================================================
 Subroutine PRICEL returns:
 Original cell was already a primitive cell.
 

 Routine SETGRP: Setting up the symmetry group for a 
 hexagonal supercell.


 Subroutine GETGRP returns: Found  6 space group operations
 (whereof  6 operations were pure point group operations)
 out of a pool of 24 trial point group operations.


The constrained configuration has the point symmetry C_3v.


 Subroutine INISYM returns: Found  6 space group operations
 (whereof  6 operations are pure point group operations),
 and found     1 'primitive' translations


----------------------------------------------------------------------------------------

                                     Primitive cell                                     

  volume of cell :    1484.4589

  direct lattice vectors                    reciprocal lattice vectors
     8.791366577  0.000000000  0.000000000     0.113747958 -0.065672414  0.000000000
     4.395683289  7.613546790  0.000000000     0.000000000  0.131344829  0.000000000
     0.000000000  0.000000000 22.178121567     0.000000000  0.000000000  0.045089481

  length of vectors
     8.791366577  8.791366577 22.178121567     0.131344829  0.131344829  0.045089481

  position of ions in fractional coordinates (direct lattice)
     0.000000000  0.000000000  0.238171124
     0.333333313  0.000000000  0.238171124
     0.666666627  0.000000000  0.238171124
     0.000000000  0.333333343  0.238171124
     0.333333313  0.333333343  0.238171124
     0.666666687  0.333333343  0.238171124
     0.000000000  0.666666687  0.238171124
     0.333333313  0.666666687  0.238171124
     0.666666627  0.666666687  0.238171124
     0.111111104  0.111111112  0.346057051
     0.444444448  0.111111112  0.346057051
     0.777777791  0.111111112  0.346057051
     0.111111097  0.444444448  0.346057051
     0.444444418  0.444444448  0.346057051
     0.777777791  0.444444448  0.346057051
     0.111111104  0.777777791  0.346057051
     0.444444448  0.777777791  0.346057051
     0.777777791  0.777777791  0.346057051
     0.888609664  0.222780689  0.453622681
     0.222430726  0.222430741  0.452355854
     0.555138488  0.222430741  0.452355854
     0.888744334  0.555627863  0.453241121
     0.222430741  0.555138548  0.452355854
     0.555627863  0.555627863  0.453241121
     0.888609664  0.888609664  0.453622681
     0.222780659  0.888609664  0.453622681
     0.555627803  0.888744334  0.453241121
     0.000000000  0.000000000  0.560097234
     0.333144422  0.005093285  0.560395766
     0.661762233  0.005093285  0.560395766
     0.005093285  0.333144452  0.560395766
     0.661762293  0.333144452  0.560395766
     0.005093285  0.661762293  0.560395766
     0.333144422  0.661762293  0.560395766
     0.666666627  0.666666687  0.559701535
     0.333333313  0.333333343  0.551753294
     0.333333313  0.333333343  0.622615878

  ion indices of the primitive-cell ions
   primitive index   ion index
                 1           1
                 2           2
                 3           3
                 4           4
                 5           5
                 6           6
                 7           7
                 8           8
                 9           9
                10          10
                11          11
                12          12
                13          13
                14          14
                15          15
                16          16
                17          17
                18          18
                19          19
                20          20
                21          21
                22          22
                23          23
                24          24
                25          25
                26          26
                27          27
                28          28
                29          29
                30          30
                31          31
                32          32
                33          33
                34          34
                35          35
                36          36
                37          37

----------------------------------------------------------------------------------------

 
 
 KPOINTS: Automatic mesh                          

Automatic generation of k-mesh.
 Grid dimensions read from file:
 generate k-points for:    8    8    1

 Generating k-lattice:

  Cartesian coordinates                     Fractional coordinates (reciprocal lattice)
     0.014218495 -0.008209052  0.000000000     0.125000000  0.000000000  0.000000000
     0.000000000  0.016418104  0.000000000     0.000000000  0.125000000  0.000000000
     0.000000000  0.000000000  0.045089481     0.000000000  0.000000000  1.000000000

  Length of vectors
     0.016418104  0.016418104  0.045089481

  Shift w.r.t. Gamma in fractional coordinates (k-lattice)
     0.000000000  0.000000000  0.000000000

 TETIRR: Found     36 inequivalent tetrahedra from      384
 
 Subroutine IBZKPT returns following result:
 ===========================================
 
 Found     10 irreducible k-points:
 
 Following reciprocal coordinates:
            Coordinates               Weight
  0.000000  0.000000  0.000000      1.000000
  0.125000 -0.000000  0.000000      6.000000
  0.250000 -0.000000  0.000000      6.000000
  0.375000 -0.000000  0.000000      6.000000
  0.500000 -0.000000  0.000000      3.000000
  0.250000  0.125000  0.000000      6.000000
  0.375000  0.125000  0.000000     12.000000
  0.500000  0.125000  0.000000     12.000000
  0.500000  0.250000  0.000000      6.000000
 -0.375000  0.250000  0.000000      6.000000
 
 Following cartesian coordinates:
            Coordinates               Weight
  0.000000  0.000000  0.000000      1.000000
  0.014218 -0.008209  0.000000      6.000000
  0.028437 -0.016418  0.000000      6.000000
  0.042655 -0.024627  0.000000      6.000000
  0.056874 -0.032836  0.000000      3.000000
  0.028437 -0.000000  0.000000      6.000000
  0.042655 -0.008209  0.000000     12.000000
  0.056874 -0.016418  0.000000     12.000000
  0.056874 -0.000000  0.000000      6.000000
 -0.042655  0.057463  0.000000      6.000000
 


--------------------------------------------------------------------------------------------------------




 Dimension of arrays:
   k-points           NKPTS =     10   k-points in BZ     NKDIM =     10   number of bands    NBANDS=    252
   number of dos      NEDOS =    301   number of ions     NIONS =     37
   non local maximal  LDIM  =      6   non local SUM 2l+1 LMDIM =     18
   total plane-waves  NPLWV = 290304
   max r-space proj   IRMAX =   2675   max aug-charges    IRDMAX=  11313
   dimension x,y,z NGX =    48 NGY =   48 NGZ =  126
   dimension x,y,z NGXF=    96 NGYF=   96 NGZF=  252
   support grid    NGXF=    96 NGYF=   96 NGZF=  252
   ions per type =              35   1   1
   NGX,Y,Z   is equivalent  to a cutoff of   9.08,  9.08,  9.44 a.u.
   NGXF,Y,Z  is equivalent  to a cutoff of  18.15, 18.15, 18.89 a.u.

 SYSTEM =  unknown system                          
 POSCAR =  Ag-Rh-H                                 

 Startparameter for this run:
   NWRITE =      2    write-flag & timer
   PREC   = normal    normal or accurate (medium, high low for compatibility)
   ISTART =      0    job   : 0-new  1-cont  2-samecut
   ICHARG =     11    charge: 1-file 2-atom 10-const
   ISPIN  =      1    spin polarized calculation?
   LNONCOLLINEAR =      F non collinear calculations
   LSORBIT =      F    spin-orbit coupling
   INIWAV =      1    electr: 0-lowe 1-rand  2-diag
   LASPH  =      F    aspherical Exc in radial PAW
   METAGGA=      F    non-selfconsistent MetaGGA calc.

 Electronic Relaxation 1
   ENCUT  =  500.0 eV  36.75 Ry    6.06 a.u.  16.03 16.03 40.44*2*pi/ulx,y,z
   ENINI  =  500.0     initial cutoff
   ENAUG  =  412.5 eV  augmentation charge cutoff
   NELM   =    150;   NELMIN=  2; NELMDL= -5     # of ELM steps 
   EDIFF  = 0.1E-04   stopping-criterion for ELM
   LREAL  =      T    real-space projection
   NLSPLINE    = F    spline interpolate recip. space projectors
   LCOMPAT=      F    compatible to vasp.4.4
   GGA_COMPAT  = T    GGA compatible to vasp.4.4-vasp.4.6
   LMAXPAW     = -100 max onsite density
   LMAXMIX     =    2 max onsite mixed and CHGCAR
   VOSKOWN=      0    Vosko Wilk Nusair interpolation
   ROPT   =   -0.00050  -0.00050  -0.00050
 Ionic relaxation
   EDIFFG = -.1E-01   stopping-criterion for IOM
   NSW    =      0    number of steps for IOM
   NBLOCK =      1;   KBLOCK =      1    inner block; outer block 
   IBRION =     -1    ionic relax: 0-MD 1-quasi-New 2-CG
   NFREE  =      1    steps in history (QN), initial steepest desc. (CG)
   ISIF   =      2    stress and relaxation
   IWAVPR =     10    prediction:  0-non 1-charg 2-wave 3-comb
   ISYM   =      2    0-nonsym 1-usesym 2-fastsym
   LCORR  =      T    Harris-Foulkes like correction to forces

   POTIM  = 0.5000    time-step for ionic-motion
   TEIN   =    0.0    initial temperature
   TEBEG  =    0.0;   TEEND  =   0.0 temperature during run
   SMASS  =  -3.00    Nose mass-parameter (am)
   estimated Nose-frequenzy (Omega)   =  0.10E-29 period in steps = 0.13E+47 mass=  -0.177E-26a.u.
   SCALEE = 1.0000    scale energy and forces
   NPACO  =    256;   APACO  = 16.0  distance and # of slots for P.C.
   PSTRESS=    0.0 pullay stress

  Mass of Ions in am
   POMASS = 107.87102.91  1.00
  Ionic Valenz
   ZVAL   =  11.00  9.00  1.00
  Atomic Wigner-Seitz radii
   RWIGS  =  -1.00 -1.00 -1.00
  virtual crystal weights 
   VCA    =   1.00  1.00  1.00
   NELECT =     395.0000    total number of electrons
   NUPDOWN=      -1.0000    fix difference up-down

 DOS related values:
   EMIN   =  10.00;   EMAX   =-10.00  energy-range for DOS
   EFERMI =   0.00
   ISMEAR =    -5;   SIGMA  =   0.10  broadening in eV -4-tet -1-fermi 0-gaus

 Electronic relaxation 2 (details)
   IALGO  =     68    algorithm
   LDIAG  =      T    sub-space diagonalisation (order eigenvalues)
   LSUBROT=      F    optimize rotation matrix (better conditioning)
   TURBO    =      0    0=normal 1=particle mesh
   IRESTART =      0    0=no restart 2=restart with 2 vectors
   NREBOOT  =      0    no. of reboots
   NMIN     =      0    reboot dimension
   EREF     =   0.00    reference energy to select bands
   IMIX   =      4    mixing-type and parameters
     AMIX     =   0.40;   BMIX     =  1.00
     AMIX_MAG =   1.60;   BMIX_MAG =  1.00
     AMIN     =   0.10
     WC   =   100.;   INIMIX=   1;  MIXPRE=   1;  MAXMIX= -45

 Intra band minimization:
   WEIMIN = 0.0000     energy-eigenvalue tresh-hold
   EBREAK =  0.99E-08  absolut break condition
   DEPER  =   0.30     relativ break condition  

   TIME   =   0.40     timestep for ELM

  volume/ion in A,a.u.               =      40.12       270.75
  Fermi-wavevector in a.u.,A,eV,Ry     =   1.052974  1.989833 15.085528  1.108755
  Thomas-Fermi vector in A             =   2.188078
 
 Write flags
   LWAVE        =      F    write WAVECAR
   LDOWNSAMPLE  =      F    k-point downsampling of WAVECAR
   LCHARG       =      F    write CHGCAR
   LVTOT        =      F    write LOCPOT, total local potential
   LVHAR        =      F    write LOCPOT, Hartree potential only
   LELF         =      F    write electronic localiz. function (ELF)
   LORBIT       =     10    0 simple, 1 ext, 2 COOP (PROOUT), +10 PAW based schemes


 Dipole corrections
   LMONO  =      F    monopole corrections only (constant potential shift)
   LDIPOL =      F    correct potential (dipole corrections)
   IDIPOL =      0    1-x, 2-y, 3-z, 4-all directions 
   EPSILON=  1.0000000 bulk dielectric constant

 Exchange correlation treatment:
   GGA     =    --    GGA type
   LEXCH   =     8    internal setting for exchange type
   VOSKOWN=      0    Vosko Wilk Nusair interpolation
   LHFCALC =     F    Hartree Fock is set to
   LHFONE  =     F    Hartree Fock one center treatment
   AEXX    =    0.0000 exact exchange contribution

 Linear response parameters
   LEPSILON=     F    determine dielectric tensor
   LRPA    =     F    only Hartree local field effects (RPA)
   LNABLA  =     F    use nabla operator in PAW spheres
   LVEL    =     F    velocity operator in full k-point grid
   LINTERFAST=   F  fast interpolation
   KINTER  =     0    interpolate to denser k-point grid
   CSHIFT  =0.1000    complex shift for real part using Kramers Kronig
   OMEGAMAX=  -1.0    maximum frequency
   DEG_THRESHOLD= 0.2000000E-02 threshold for treating states as degnerate
   RTIME   =   -0.100 relaxation time in fs
  (WPLASMAI=    0.000 imaginary part of plasma frequency in eV, 0.658/RTIME)
   DFIELD  = 0.0000000 0.0000000 0.0000000 field for delta impulse in time
 
 Orbital magnetization related:
   ORBITALMAG=     F  switch on orbital magnetization
   LCHIMAG   =     F  perturbation theory with respect to B field
   DQ        =  0.001000  dq finite difference perturbation B field
   LLRAUG    =     F  two centre corrections for induced B field



--------------------------------------------------------------------------------------------------------


 Static calculation
 charge density and potential remain constant during run
 non-spin polarized calculation
 RMM-DIIS sequential band-by-band and
  variant of blocked Davidson during initial phase
 perform sub-space diagonalisation
    before iterative eigenvector-optimisation
 no mixing
 using additional bands           54
 real space projection scheme for non local part
 use partial core corrections
 calculate Harris-corrections to forces 
   (improved forces if not selfconsistent)
 use gradient corrections 
 WARNING: stress and forces are not correct
  (second derivative of E(xc) not defined)
 use of overlap-Matrix (Vanderbilt PP)
 Fermi weights with tetrahedron method with Bloechl corrections


--------------------------------------------------------------------------------------------------------


  energy-cutoff  :      500.00
  volume of cell :     1484.46
      direct lattice vectors                 reciprocal lattice vectors
     8.791366577  0.000000000  0.000000000     0.113747958 -0.065672414  0.000000000
     4.395683289  7.613546790  0.000000000     0.000000000  0.131344829  0.000000000
     0.000000000  0.000000000 22.178121567     0.000000000  0.000000000  0.045089481

  length of vectors
     8.791366577  8.791366577 22.178121567     0.131344829  0.131344829  0.045089481


 
 k-points in units of 2pi/SCALE and weight: Automatic mesh                          
   0.00000000  0.00000000  0.00000000       0.016
   0.01421849 -0.00820905  0.00000000       0.094
   0.02843699 -0.01641810  0.00000000       0.094
   0.04265548 -0.02462716  0.00000000       0.094
   0.05687398 -0.03283621  0.00000000       0.047
   0.02843699 -0.00000000  0.00000000       0.094
   0.04265548 -0.00820905  0.00000000       0.188
   0.05687398 -0.01641810  0.00000000       0.188
   0.05687398 -0.00000000  0.00000000       0.094
  -0.04265548  0.05746336  0.00000000       0.094
 
 k-points in reciprocal lattice and weights: Automatic mesh                          
   0.00000000  0.00000000  0.00000000       0.016
   0.12500000 -0.00000000  0.00000000       0.094
   0.25000000 -0.00000000  0.00000000       0.094
   0.37500000 -0.00000000  0.00000000       0.094
   0.50000000 -0.00000000  0.00000000       0.047
   0.25000000  0.12500000  0.00000000       0.094
   0.37500000  0.12500000  0.00000000       0.188
   0.50000000  0.12500000  0.00000000       0.188
   0.50000000  0.25000000  0.00000000       0.094
  -0.37500000  0.25000000  0.00000000       0.094
 
 position of ions in fractional coordinates (direct lattice) 
   0.00000000  0.00000000  0.23817112
   0.33333331  0.00000000  0.23817112
   0.66666663  0.00000000  0.23817112
   0.00000000  0.33333334  0.23817112
   0.33333331  0.33333334  0.23817112
   0.66666669  0.33333334  0.23817112
   0.00000000  0.66666669  0.23817112
   0.33333331  0.66666669  0.23817112
   0.66666663  0.66666669  0.23817112
   0.11111110  0.11111111  0.34605705
   0.44444445  0.11111111  0.34605705
   0.77777779  0.11111111  0.34605705
   0.11111110  0.44444445  0.34605705
   0.44444442  0.44444445  0.34605705
   0.77777779  0.44444445  0.34605705
   0.11111110  0.77777779  0.34605705
   0.44444445  0.77777779  0.34605705
   0.77777779  0.77777779  0.34605705
   0.88860966  0.22278069  0.45362268
   0.22243073  0.22243074  0.45235585
   0.55513849  0.22243074  0.45235585
   0.88874433  0.55562786  0.45324112
   0.22243074  0.55513855  0.45235585
   0.55562786  0.55562786  0.45324112
   0.88860966  0.88860966  0.45362268
   0.22278066  0.88860966  0.45362268
   0.55562780  0.88874433  0.45324112
   0.00000000  0.00000000  0.56009723
   0.33314442  0.00509329  0.56039577
   0.66176223  0.00509329  0.56039577
   0.00509329  0.33314445  0.56039577
   0.66176229  0.33314445  0.56039577
   0.00509329  0.66176229  0.56039577
   0.33314442  0.66176229  0.56039577
   0.66666663  0.66666669  0.55970153
   0.33333331  0.33333334  0.55175329
   0.33333331  0.33333334  0.62261588
 
 position of ions in cartesian coordinates  (Angst):
   0.00000000  0.00000000  5.28218814
   2.93045535  0.00000000  5.28218814
   5.86091070  0.00000000  5.28218814
   1.46522781  2.53784900  5.28218814
   4.39568315  2.53784900  5.28218814
   7.32613904  2.53784900  5.28218814
   2.93045562  5.07569801  5.28218814
   5.86091096  5.07569801  5.28218814
   8.79136632  5.07569801  5.28218814
   1.46522770  0.84594965  7.67489535
   4.39568332  0.84594965  7.67489535
   7.32613893  0.84594965  7.67489535
   2.93045542  3.38379860  7.67489535
   5.86091083  3.38379860  7.67489535
   8.79136671  3.38379860  7.67489535
   4.39568328  5.92164760  7.67489535
   7.32613890  5.92164760  7.67489535
  10.25659451  5.92164760  7.67489535
   8.79136665  1.69615120 10.06049895
   2.93320514  1.69348685 10.03240313
   5.85816104  1.69348685 10.03240313
  10.25564135  4.23029873 10.05203667
   4.39568342  4.22657331 10.03240313
   7.32709233  4.23029873 10.05203667
  11.71813994  6.76547125 10.06049895
   5.86459309  6.76547125 10.06049895
   8.79136631  6.76649657 10.05203667
   0.00000000  0.00000000 12.42190454
   2.95118320  0.03877797 12.42852542
   5.84018285  0.03877797 12.42852542
   1.50917444  2.53641087 12.42852542
   7.28219240  2.53641087 12.42852542
   2.95367439  5.03835818 12.42852542
   5.83769219  5.03835818 12.42852542
   8.79136632  5.07569801 12.41312868
   4.39568315  2.53784900 12.23685164
   4.39568315  2.53784900 13.80845063
 


--------------------------------------------------------------------------------------------------------


 k-point   1 :   0.0000 0.0000 0.0000  plane waves:   37683
 k-point   2 :   0.1250-0.0000 0.0000  plane waves:   37658
 k-point   3 :   0.2500-0.0000 0.0000  plane waves:   37682
 k-point   4 :   0.3750-0.0000 0.0000  plane waves:   37686
 k-point   5 :   0.5000-0.0000 0.0000  plane waves:   37668
 k-point   6 :   0.2500 0.1250 0.0000  plane waves:   37666
 k-point   7 :   0.3750 0.1250 0.0000  plane waves:   37708
 k-point   8 :   0.5000 0.1250 0.0000  plane waves:   37726
 k-point   9 :   0.5000 0.2500 0.0000  plane waves:   37706
 k-point  10 :  -0.3750 0.2500 0.0000  plane waves:   37686

 maximum and minimum number of plane-waves per node :     37726    37658

 maximum number of plane-waves:     37726
 maximum index in each direction: 
   IXMAX=   16   IYMAX=   16   IZMAX=   40
   IXMIN=  -16   IYMIN=  -16   IZMIN=  -40


 serial   3D FFT for wavefunctions
 parallel 3D FFT for charge:
    minimum data exchange during FFTs selected (reduces bandwidth)


 total amount of memory used by VASP MPI-rank0   123115. kBytes
=======================================================================

   base      :      30000. kBytes
   nonlr-proj:      15012. kBytes
   fftplans  :       4330. kBytes
   grid      :      17879. kBytes
   one-center:        575. kBytes
   wavefun   :      55319. kBytes
 
     INWAV:  cpu time    0.0000: real time    0.0000
 initial charge density was supplied:
 number of electron     394.9999837 magnetization 
 keeping initial charge density in first step


--------------------------------------------------------------------------------------------------------


 Maximum index for non-local projection operator         2548
 Maximum index for augmentation-charges          702 (set IRDMAX)


--------------------------------------------------------------------------------------------------------


 First call to EWALD:  gamma=   0.155
 Maximum number of real-space cells 4x 4x 2
 Maximum number of reciprocal cells 2x 2x 5

    FEWALD:  cpu time    0.0013: real time    0.0014


--------------------------------------- Iteration      1(   1)  ---------------------------------------


    POTLOK:  cpu time    0.0567: real time    0.0570
    SETDIJ:  cpu time    0.0046: real time    0.0047
     EDDAV:  cpu time    7.1726: real time    7.1741
 BZINTS: Fermi energy:    9.253386;  395.000000 electrons
         Band energy: 0.121544E+04;  BLOECHL correction:   -0.013552
       DOS:  cpu time    0.0098: real time    0.0099
    --------------------------------------------
      LOOP:  cpu time    7.2437: real time    7.2457

 eigenvalue-minimisations  :  5040
 total energy-change (2. order) : 0.2386553E+04  (-0.1822437E+05)
 number of electron     394.9999837 magnetization 
 augmentation part      394.9999837 magnetization 

 Free energy of the ion-electron system (eV)
  ---------------------------------------------------
  alpha Z        PSCENC =       737.18886949
  Ewald energy   TEWEN  =     98686.59903111
  -Hartree energ DENC   =   -136359.18205333
  -exchange      EXHF   =         0.00000000
  -V(xc)+E(xc)   XCENC  =      -403.81640712
  PAW double counting   =     39060.81663205   -37483.57241230
  entropy T*S    EENTRO =         0.00000000
  eigenvalues    EBANDS =      1215.43557743
  atomic energy  EATOM  =     36933.08408606
  Solvation  Ediel_sol  =         0.00000000
  ---------------------------------------------------
  free energy    TOTEN  =      2386.55332340 eV

  energy without entropy =     2386.55332340  energy(sigma->0) =     2386.55332340


--------------------------------------------------------------------------------------------------------




--------------------------------------- Iteration      1(   2)  ---------------------------------------


     EDDAV:  cpu time    7.4666: real time    7.4697
 BZINTS: Fermi energy:    1.130513;  395.000000 electrons
         Band energy:-0.119607E+04;  BLOECHL correction:   -0.050723
       DOS:  cpu time    0.0098: real time    0.0098
    --------------------------------------------
      LOOP:  cpu time    7.4764: real time    7.4795

 eigenvalue-minimisations  :  5320
 total energy-change (2. order) :-0.2411505E+04  (-0.2287655E+04)
 number of electron     394.9999837 magnetization 
 augmentation part      394.9999837 magnetization 

 Free energy of the ion-electron system (eV)
  ---------------------------------------------------
  alpha Z        PSCENC =       737.18886949
  Ewald energy   TEWEN  =     98686.59903111
  -Hartree energ DENC   =   -136359.18205333
  -exchange      EXHF   =         0.00000000
  -V(xc)+E(xc)   XCENC  =      -403.81640712
  PAW double counting   =     39060.81663205   -37483.57241230
  entropy T*S    EENTRO =         0.00000000
  eigenvalues    EBANDS =     -1196.06973175
  atomic energy  EATOM  =     36933.08408606
  Solvation  Ediel_sol  =         0.00000000
  ---------------------------------------------------
  free energy    TOTEN  =       -24.95198578 eV

  energy without entropy =      -24.95198578  energy(sigma->0) =      -24.95198578


--------------------------------------------------------------------------------------------------------




--------------------------------------- Iteration      1(   3)  ---------------------------------------


     EDDAV:  cpu time    7.9271: real time    7.9274
 BZINTS: Fermi energy:    0.750663;  395.000000 electrons
         Band energy:-0.126916E+04;  BLOECHL correction:   -0.053950
       DOS:  cpu time    0.0099: real time    0.0099
    --------------------------------------------
      LOOP:  cpu time    7.9370: real time    7.9373

 eigenvalue-minimisations  :  5712
 total energy-change (2. order) :-0.7309145E+02  (-0.7188556E+02)
 number of electron     394.9999837 magnetization 
 augmentation part      394.9999837 magnetization 

 Free energy of the ion-electron system (eV)
  ---------------------------------------------------
  alpha Z        PSCENC =       737.18886949
  Ewald energy   TEWEN  =     98686.59903111
  -Hartree energ DENC   =   -136359.18205333
  -exchange      EXHF   =         0.00000000
  -V(xc)+E(xc)   XCENC  =      -403.81640712
  PAW double counting   =     39060.81663205   -37483.57241230
  entropy T*S    EENTRO =         0.00000000
  eigenvalues    EBANDS =     -1269.16117833
  atomic energy  EATOM  =     36933.08408606
  Solvation  Ediel_sol  =         0.00000000
  ---------------------------------------------------
  free energy    TOTEN  =       -98.04343237 eV

  energy without entropy =      -98.04343237  energy(sigma->0) =      -98.04343237


--------------------------------------------------------------------------------------------------------




--------------------------------------- Iteration      1(   4)  ---------------------------------------


     EDDAV:  cpu time    8.3902: real time    8.3903
 BZINTS: Fermi energy:    0.745700;  395.000000 electrons
         Band energy:-0.127000E+04;  BLOECHL correction:   -0.053588
       DOS:  cpu time    0.0097: real time    0.0097
    --------------------------------------------
      LOOP:  cpu time    8.3998: real time    8.4000

 eigenvalue-minimisations  :  6132
 total energy-change (2. order) :-0.8377467E+00  (-0.8374949E+00)
 number of electron     394.9999837 magnetization 
 augmentation part      394.9999837 magnetization 

 Free energy of the ion-electron system (eV)
  ---------------------------------------------------
  alpha Z        PSCENC =       737.18886949
  Ewald energy   TEWEN  =     98686.59903111
  -Hartree energ DENC   =   -136359.18205333
  -exchange      EXHF   =         0.00000000
  -V(xc)+E(xc)   XCENC  =      -403.81640712
  PAW double counting   =     39060.81663205   -37483.57241230
  entropy T*S    EENTRO =         0.00000000
  eigenvalues    EBANDS =     -1269.99892508
  atomic energy  EATOM  =     36933.08408606
  Solvation  Ediel_sol  =         0.00000000
  ---------------------------------------------------
  free energy    TOTEN  =       -98.88117911 eV

  energy without entropy =      -98.88117911  energy(sigma->0) =      -98.88117911


--------------------------------------------------------------------------------------------------------




--------------------------------------- Iteration      1(   5)  ---------------------------------------


     EDDAV:  cpu time    8.8240: real time    8.8243
 BZINTS: Fermi energy:    0.745546;  395.000000 electrons
         Band energy:-0.127002E+04;  BLOECHL correction:   -0.053590
       DOS:  cpu time    0.0101: real time    0.0101
    --------------------------------------------
      LOOP:  cpu time    8.8341: real time    8.8344

 eigenvalue-minimisations  :  6524
 total energy-change (2. order) :-0.1790046E-01  (-0.1789204E-01)
 number of electron     394.9999837 magnetization 
 augmentation part      394.9999837 magnetization 

 Free energy of the ion-electron system (eV)
  ---------------------------------------------------
  alpha Z        PSCENC =       737.18886949
  Ewald energy   TEWEN  =     98686.59903111
  -Hartree energ DENC   =   -136359.18205333
  -exchange      EXHF   =         0.00000000
  -V(xc)+E(xc)   XCENC  =      -403.81640712
  PAW double counting   =     39060.81663205   -37483.57241230
  entropy T*S    EENTRO =         0.00000000
  eigenvalues    EBANDS =     -1270.01682554
  atomic energy  EATOM  =     36933.08408606
  Solvation  Ediel_sol  =         0.00000000
  ---------------------------------------------------
  free energy    TOTEN  =       -98.89907958 eV

  energy without entropy =      -98.89907958  energy(sigma->0) =      -98.89907958


--------------------------------------------------------------------------------------------------------




--------------------------------------- Iteration      1(   6)  ---------------------------------------


    EDDIAG:  cpu time    1.3929: real time    1.3932
  RMM-DIIS:  cpu time    3.9334: real time    3.9334
    ORTHCH:  cpu time    0.2589: real time    0.2589
 BZINTS: Fermi energy:    0.745545;  395.000000 electrons
         Band energy:-0.127002E+04;  BLOECHL correction:   -0.053590
       DOS:  cpu time    0.0100: real time    0.0100
    --------------------------------------------
      LOOP:  cpu time    5.5952: real time    5.5956

 eigenvalue-minimisations  :  4985
 total energy-change (2. order) :-0.3890887E-03  (-0.3885924E-03)
 number of electron     394.9999837 magnetization 
 augmentation part      394.9999837 magnetization 

 Free energy of the ion-electron system (eV)
  ---------------------------------------------------
  alpha Z        PSCENC =       737.18886949
  Ewald energy   TEWEN  =     98686.59903111
  -Hartree energ DENC   =   -136359.18205333
  -exchange      EXHF   =         0.00000000
  -V(xc)+E(xc)   XCENC  =      -403.81640712
  PAW double counting   =     39060.81663205   -37483.57241230
  entropy T*S    EENTRO =         0.00000000
  eigenvalues    EBANDS =     -1270.01721463
  atomic energy  EATOM  =     36933.08408606
  Solvation  Ediel_sol  =         0.00000000
  ---------------------------------------------------
  free energy    TOTEN  =       -98.89946867 eV

  energy without entropy =      -98.89946867  energy(sigma->0) =      -98.89946867


--------------------------------------------------------------------------------------------------------




--------------------------------------- Iteration      1(   7)  ---------------------------------------


    EDDIAG:  cpu time    1.3945: real time    1.3946
  RMM-DIIS:  cpu time    5.2122: real time    5.2123
    ORTHCH:  cpu time    0.2588: real time    0.2589
 BZINTS: Fermi energy:    0.745545;  395.000000 electrons
         Band energy:-0.127002E+04;  BLOECHL correction:   -0.053590
       DOS:  cpu time    0.0101: real time    0.0101
    --------------------------------------------
      LOOP:  cpu time    6.8756: real time    6.8758

 eigenvalue-minimisations  :  6653
 total energy-change (2. order) :-0.1353015E-03  (-0.1349260E-03)
 number of electron     394.9999837 magnetization 
 augmentation part      394.9999837 magnetization 

 Free energy of the ion-electron system (eV)
  ---------------------------------------------------
  alpha Z        PSCENC =       737.18886949
  Ewald energy   TEWEN  =     98686.59903111
  -Hartree energ DENC   =   -136359.18205333
  -exchange      EXHF   =         0.00000000
  -V(xc)+E(xc)   XCENC  =      -403.81640712
  PAW double counting   =     39060.81663205   -37483.57241230
  entropy T*S    EENTRO =         0.00000000
  eigenvalues    EBANDS =     -1270.01734993
  atomic energy  EATOM  =     36933.08408606
  Solvation  Ediel_sol  =         0.00000000
  ---------------------------------------------------
  free energy    TOTEN  =       -98.89960397 eV

  energy without entropy =      -98.89960397  energy(sigma->0) =      -98.89960397


--------------------------------------------------------------------------------------------------------




--------------------------------------- Iteration      1(   8)  ---------------------------------------


    EDDIAG:  cpu time    1.3965: real time    1.3968
  RMM-DIIS:  cpu time    3.6420: real time    3.6421
    ORTHCH:  cpu time    0.2590: real time    0.2590
 BZINTS: Fermi energy:    0.745545;  395.000000 electrons
         Band energy:-0.127002E+04;  BLOECHL correction:   -0.053590
       DOS:  cpu time    0.0096: real time    0.0096
    --------------------------------------------
      LOOP:  cpu time    5.3071: real time    5.3074

 eigenvalue-minimisations  :  4115
 total energy-change (2. order) :-0.6781309E-05  (-0.6676261E-05)
 number of electron     394.9999837 magnetization 
 augmentation part      394.9999837 magnetization 

 Free energy of the ion-electron system (eV)
  ---------------------------------------------------
  alpha Z        PSCENC =       737.18886949
  Ewald energy   TEWEN  =     98686.59903111
  -Hartree energ DENC   =   -136359.18205333
  -exchange      EXHF   =         0.00000000
  -V(xc)+E(xc)   XCENC  =      -403.81640712
  PAW double counting   =     39060.81663205   -37483.57241230
  entropy T*S    EENTRO =         0.00000000
  eigenvalues    EBANDS =     -1270.01735672
  atomic energy  EATOM  =     36933.08408606
  Solvation  Ediel_sol  =         0.00000000
  ---------------------------------------------------
  free energy    TOTEN  =       -98.89961075 eV

  energy without entropy =      -98.89961075  energy(sigma->0) =      -98.89961075


--------------------------------------------------------------------------------------------------------




 average (electrostatic) potential at core
  the test charge radii are     1.1249  1.1806  0.5201
  (the norm of the test charge is              1.0000)
       1 -78.1064       2 -78.0811       3 -78.0811       4 -78.0811       5 -78.0668
       6 -78.0808       7 -78.0811       8 -78.0808       9 -78.1057      10 -78.3258
      11 -78.3026      12 -78.3255      13 -78.3025      14 -78.3023      15 -78.3213
      16 -78.3255      17 -78.3214      18 -78.3213      19 -78.3080      20 -78.2683
      21 -78.2681      22 -78.3067      23 -78.2681      24 -78.3066      25 -78.3078
      26 -78.3081      27 -78.3067      28 -78.0502      29 -77.9448      30 -77.9447
      31 -77.9448      32 -77.9446      33 -77.9447      34 -77.9446      35 -78.0533
      36 -71.4484      37 -35.2229
 
 
 
 E-fermi :   0.7455     XC(G=0):  -5.8989     alpha+bet : -5.6029

 Fermi energy:         0.7455450007

 k-point     1 :       0.0000    0.0000    0.0000
  band No.  band energies     occupation 
      1      -6.3135      2.00000
      2      -5.4407      2.00000
      3      -5.1520      2.00000
      4      -5.0449      2.00000
      5      -5.0343      2.00000
      6      -5.0339      2.00000
      7      -5.0339      2.00000
      8      -5.0291      2.00000
      9      -5.0291      2.00000
     10      -4.9987      2.00000
     11      -4.9935      2.00000
     12      -4.9879      2.00000
     13      -4.9879      2.00000
     14      -4.9806      2.00000
     15      -4.9806      2.00000
     16      -4.9317      2.00000
     17      -4.8239      2.00000
     18      -4.8205      2.00000
     19      -4.8204      2.00000
     20      -4.8185      2.00000
     21      -4.8111      2.00000
     22      -4.8111      2.00000
     23      -4.6278      2.00000
     24      -4.6278      2.00000
     25      -4.6251      2.00000
     26      -4.6134      2.00000
     27      -4.6025      2.00000
     28      -4.5955      2.00000
     29      -4.5937      2.00000
     30      -4.5937      2.00000
     31      -4.5694      2.00000
     32      -4.5694      2.00000
     33      -4.5654      2.00000
     34      -4.5653      2.00000
     35      -4.4463      2.00000
     36      -4.4463      2.00000
     37      -4.4456      2.00000
     38      -4.4062      2.00000
     39      -4.3264      2.00000
     40      -4.3264      2.00000
     41      -4.2427      2.00000
     42      -4.2427      2.00000
     43      -4.2296      2.00000
     44      -4.2296      2.00000
     45      -4.2269      2.00000
     46      -4.1997      2.00000
     47      -4.1994      2.00000
     48      -4.1994      2.00000
     49      -4.1494      2.00000
     50      -4.1494      2.00000
     51      -4.0900      2.00000
     52      -4.0818      2.00000
     53      -4.0732      2.00000
     54      -4.0409      2.00000
     55      -3.8475      2.00000
     56      -3.8369      2.00000
     57      -3.8369      2.00000
     58      -3.8362      2.00000
     59      -3.8283      2.00000
     60      -3.8283      2.00000
     61      -3.8175      2.00000
     62      -3.8066      2.00000
     63      -3.8066      2.00000
     64      -3.7787      2.00000
     65      -3.7787      2.00000
     66      -3.6817      2.00000
     67      -3.6817      2.00000
     68      -3.6581      2.00000
     69      -3.6547      2.00000
     70      -3.6547      2.00000
     71      -3.6424      2.00000
     72      -3.6323      2.00000
     73      -3.6323      2.00000
     74      -3.6108      2.00000
     75      -3.6108      2.00000
     76      -3.6009      2.00000
     77      -3.6002      2.00000
     78      -3.6002      2.00000
     79      -3.5997      2.00000
     80      -3.5694      2.00000
     81      -3.5550      2.00000
     82      -3.5550      2.00000
     83      -3.5329      2.00000
     84      -3.5329      2.00000
     85      -3.4637      2.00000
     86      -3.4465      2.00000
     87      -3.4464      2.00000
     88      -3.4150      2.00000
     89      -3.4150      2.00000
     90      -3.3897      2.00000
     91      -3.3897      2.00000
     92      -3.3788      2.00000
     93      -3.3586      2.00000
     94      -3.3586      2.00000
     95      -3.3368      2.00000
     96      -3.3368      2.00000
     97      -3.2216      2.00000
     98      -3.2216      2.00000
     99      -3.1508      2.00000
    100      -3.1267      2.00000
    101      -3.1267      2.00000
    102      -3.1086      2.00000
    103      -3.1030      2.00000
    104      -3.0863      2.00000
    105      -3.0862      2.00000
    106      -3.0621      2.00000
    107      -3.0621      2.00000
    108      -3.0474      2.00000
    109      -3.0323      2.00000
    110      -3.0323      2.00000
    111      -2.9981      2.00000
    112      -2.9960      2.00000
    113      -2.9366      2.00000
    114      -2.9365      2.00000
    115      -2.8655      2.00000
    116      -2.8655      2.00000
    117      -2.8487      2.00000
    118      -2.8487      2.00000
    119      -2.7745      2.00000
    120      -2.7694      2.00000
    121      -2.7694      2.00000
    122      -2.7557      2.00000
    123      -2.7557      2.00000
    124      -2.7392      2.00000
    125      -2.7392      2.00000
    126      -2.7385      2.00000
    127      -2.7261      2.00000
    128      -2.7261      2.00000
    129      -2.7246      2.00000
    130      -2.7138      2.00000
    131      -2.7104      2.00000
    132      -2.7104      2.00000
    133      -2.6154      2.00000
    134      -2.5978      2.00000
    135      -2.5978      2.00000
    136      -2.5394      2.00000
    137      -2.5265      2.00000
    138      -2.5264      2.00000
    139      -2.5259      2.00000
    140      -2.5182      2.00000
    141      -2.5181      2.00000
    142      -2.5120      2.00000
    143      -2.5059      2.00000
    144      -2.5059      2.00000
    145      -2.4968      2.00000
    146      -2.4772      2.00000
    147      -2.4771      2.00000
    148      -2.4322      2.00000
    149      -2.4253      2.00000
    150      -2.4253      2.00000
    151      -2.4209      2.00000
    152      -2.4136      2.00000
    153      -2.4099      2.00000
    154      -2.4098      2.00000
    155      -2.3921      2.00000
    156      -2.3640      2.00000
    157      -2.3639      2.00000
    158      -2.3293      2.00000
    159      -2.3293      2.00000
    160      -2.3273      2.00000
    161      -2.3231      2.00000
    162      -2.3166      2.00000
    163      -2.3166      2.00000
    164      -2.2861      2.00000
    165      -2.2861      2.00000
    166      -2.2639      2.00000
    167      -2.2634      2.00000
    168      -2.2633      2.00000
    169      -2.2464      2.00000
    170      -2.2318      2.00000
    171      -2.2116      2.00000
    172      -2.2030      2.00000
    173      -2.2030      2.00000
    174      -2.1637      2.00000
    175      -2.1637      2.00000
    176      -2.1275      2.00000
    177      -2.1274      2.00000
    178      -2.0906      2.00000
    179      -2.0831      2.00000
    180      -2.0401      2.00000
    181      -2.0257      2.00000
    182      -2.0256      2.00000
    183      -2.0001      2.00000
    184      -2.0000      2.00000
    185      -1.8735      2.00000
    186      -1.2888      2.00000
    187      -1.2888      2.00000
    188      -1.2580      2.00000
    189      -1.2072      2.00000
    190      -1.2072      2.00000
    191      -0.9698      2.00000
    192      -0.2035      2.00000
    193      -0.2035      2.00000
    194      -0.1173      2.00000
    195       0.0568      2.00000
    196       0.0568      2.00000
    197       0.2424      2.00000
    198       0.4785      2.00000
    199       0.5462      2.00000
    200       0.5462      2.61823
    201       0.6001      1.25679
    202       0.6001      0.70330
    203       1.1907      0.00000
    204       2.1890      0.00000
    205       2.6942      0.00000
    206       2.7480      0.00000
    207       2.7480      0.00000
    208       2.8976      0.00000
    209       2.8976      0.00000
    210       4.0695      0.00000
    211       4.1280      0.00000
    212       4.2551      0.00000
    213       4.2551      0.00000
    214       4.2885      0.00000
    215       4.2886      0.00000
    216       4.5445      0.00000
    217       4.9779      0.00000
    218       5.0595      0.00000
    219       5.0716      0.00000
    220       5.0716      0.00000
    221       5.1106      0.00000
    222       5.1106      0.00000
    223       5.1294      0.00000
    224       5.1444      0.00000
    225       5.1445      0.00000
    226       5.2549      0.00000
    227       5.2550      0.00000
    228       5.3726      0.00000
    229       5.4754      0.00000
    230       6.2713      0.00000
    231       6.5065      0.00000
    232       6.6710      0.00000
    233       6.6710      0.00000
    234       6.7117      0.00000
    235       6.8364      0.00000
    236       6.8365      0.00000
    237       6.8814      0.00000
    238       7.0249      0.00000
    239       7.0599      0.00000
    240       7.0599      0.00000
    241       7.0739      0.00000
    242       7.0788      0.00000
    243       7.0789      0.00000
    244       7.3013      0.00000
    245       7.3681      0.00000
    246       7.3778      0.00000
    247       7.3792      0.00000
    248       7.4124      0.00000
    249       7.4144      0.00000
    250       7.4826      0.00000
    251       7.7564      0.00000
    252       7.7884      0.00000

 k-point     2 :       0.1250   -0.0000    0.0000
  band No.  band energies     occupation 
      1      -6.2675      2.00000
      2      -5.4006      2.00000
      3      -5.1192      2.00000
      4      -5.0920      2.00000
      5      -5.0606      2.00000
      6      -5.0358      2.00000
      7      -5.0313      2.00000
      8      -5.0295      2.00000
      9      -5.0087      2.00000
     10      -5.0011      2.00000
     11      -4.9980      2.00000
     12      -4.9922      2.00000
     13      -4.9337      2.00000
     14      -4.9202      2.00000
     15      -4.9150      2.00000
     16      -4.9048      2.00000
     17      -4.8909      2.00000
     18      -4.8648      2.00000
     19      -4.8643      2.00000
     20      -4.7563      2.00000
     21      -4.7517      2.00000
     22      -4.7045      2.00000
     23      -4.6948      2.00000
     24      -4.6889      2.00000
     25      -4.6833      2.00000
     26      -4.6294      2.00000
     27      -4.6291      2.00000
     28      -4.5875      2.00000
     29      -4.5870      2.00000
     30      -4.5488      2.00000
     31      -4.5448      2.00000
     32      -4.5335      2.00000
     33      -4.4920      2.00000
     34      -4.4840      2.00000
     35      -4.4719      2.00000
     36      -4.4321      2.00000
     37      -4.4293      2.00000
     38      -4.3599      2.00000
     39      -4.3142      2.00000
     40      -4.3138      2.00000
     41      -4.3046      2.00000
     42      -4.2977      2.00000
     43      -4.2744      2.00000
     44      -4.2487      2.00000
     45      -4.2416      2.00000
     46      -4.2295      2.00000
     47      -4.2193      2.00000
     48      -4.1719      2.00000
     49      -4.1472      2.00000
     50      -4.1311      2.00000
     51      -4.0797      2.00000
     52      -4.0540      2.00000
     53      -4.0317      2.00000
     54      -4.0269      2.00000
     55      -3.8685      2.00000
     56      -3.8634      2.00000
     57      -3.8559      2.00000
     58      -3.8456      2.00000
     59      -3.8415      2.00000
     60      -3.8345      2.00000
     61      -3.8219      2.00000
     62      -3.8080      2.00000
     63      -3.8007      2.00000
     64      -3.7966      2.00000
     65      -3.7614      2.00000
     66      -3.7066      2.00000
     67      -3.6917      2.00000
     68      -3.6862      2.00000
     69      -3.6789      2.00000
     70      -3.6774      2.00000
     71      -3.6498      2.00000
     72      -3.6406      2.00000
     73      -3.6297      2.00000
     74      -3.6237      2.00000
     75      -3.6219      2.00000
     76      -3.6075      2.00000
     77      -3.6035      2.00000
     78      -3.5914      2.00000
     79      -3.5853      2.00000
     80      -3.5815      2.00000
     81      -3.5617      2.00000
     82      -3.5591      2.00000
     83      -3.5474      2.00000
     84      -3.5190      2.00000
     85      -3.5152      2.00000
     86      -3.5125      2.00000
     87      -3.5007      2.00000
     88      -3.4591      2.00000
     89      -3.4574      2.00000
     90      -3.3887      2.00000
     91      -3.3798      2.00000
     92      -3.3566      2.00000
     93      -3.3369      2.00000
     94      -3.2731      2.00000
     95      -3.2615      2.00000
     96      -3.2604      2.00000
     97      -3.2326      2.00000
     98      -3.2106      2.00000
     99      -3.2087      2.00000
    100      -3.1704      2.00000
    101      -3.1577      2.00000
    102      -3.1470      2.00000
    103      -3.1337      2.00000
    104      -3.1216      2.00000
    105      -3.0961      2.00000
    106      -3.0771      2.00000
    107      -3.0664      2.00000
    108      -3.0424      2.00000
    109      -3.0358      2.00000
    110      -3.0142      2.00000
    111      -2.9900      2.00000
    112      -2.9895      2.00000
    113      -2.9394      2.00000
    114      -2.9386      2.00000
    115      -2.9147      2.00000
    116      -2.8970      2.00000
    117      -2.8934      2.00000
    118      -2.8690      2.00000
    119      -2.8563      2.00000
    120      -2.8484      2.00000
    121      -2.8251      2.00000
    122      -2.8242      2.00000
    123      -2.8059      2.00000
    124      -2.7915      2.00000
    125      -2.7909      2.00000
    126      -2.7444      2.00000
    127      -2.7388      2.00000
    128      -2.7311      2.00000
    129      -2.7204      2.00000
    130      -2.6959      2.00000
    131      -2.6958      2.00000
    132      -2.6892      2.00000
    133      -2.6831      2.00000
    134      -2.6598      2.00000
    135      -2.6538      2.00000
    136      -2.6355      2.00000
    137      -2.6164      2.00000
    138      -2.5992      2.00000
    139      -2.5811      2.00000
    140      -2.5532      2.00000
    141      -2.5409      2.00000
    142      -2.5302      2.00000
    143      -2.5146      2.00000
    144      -2.4978      2.00000
    145      -2.4978      2.00000
    146      -2.4700      2.00000
    147      -2.4685      2.00000
    148      -2.4479      2.00000
    149      -2.4446      2.00000
    150      -2.4413      2.00000
    151      -2.4275      2.00000
    152      -2.4180      2.00000
    153      -2.4016      2.00000
    154      -2.3948      2.00000
    155      -2.3864      2.00000
    156      -2.3821      2.00000
    157      -2.3732      2.00000
    158      -2.3701      2.00000
    159      -2.3607      2.00000
    160      -2.3495      2.00000
    161      -2.3377      2.00000
    162      -2.3180      2.00000
    163      -2.3056      2.00000
    164      -2.2883      2.00000
    165      -2.2858      2.00000
    166      -2.2692      2.00000
    167      -2.2677      2.00000
    168      -2.2507      2.00000
    169      -2.2291      2.00000
    170      -2.2290      2.00000
    171      -2.2055      2.00000
    172      -2.1838      2.00000
    173      -2.1748      2.00000
    174      -2.1623      2.00000
    175      -2.1524      2.00000
    176      -2.1459      2.00000
    177      -2.1333      2.00000
    178      -2.1203      2.00000
    179      -2.0981      2.00000
    180      -2.0834      2.00000
    181      -2.0642      2.00000
    182      -2.0222      2.00000
    183      -1.7696      2.00000
    184      -1.5813      2.00000
    185      -1.5575      2.00000
    186      -1.4536      2.00000
    187      -1.4094      2.00000
    188      -1.2536      2.00000
    189      -0.8694      2.00000
    190      -0.7387      2.00000
    191      -0.5102      2.00000
    192      -0.2500      2.00000
    193      -0.2093      2.00000
    194      -0.1562      2.00000
    195      -0.0070      2.00000
    196       0.0919      2.00000
    197       0.1318      2.00000
    198       0.2734      2.00000
    199       0.3434      2.00000
    200       0.7885      0.24070
    201       0.9374     -0.02348
    202       1.1152     -0.03748
    203       1.2955      0.00000
    204       2.0578      0.00000
    205       2.3349      0.00000
    206       2.5886      0.00000
    207       2.9541      0.00000
    208       3.1408      0.00000
    209       3.2020      0.00000
    210       3.2127      0.00000
    211       3.2692      0.00000
    212       4.1000      0.00000
    213       4.1008      0.00000
    214       4.3074      0.00000
    215       4.3469      0.00000
    216       4.3812      0.00000
    217       4.6206      0.00000
    218       4.8455      0.00000
    219       5.0101      0.00000
    220       5.1336      0.00000
    221       5.1418      0.00000
    222       5.1703      0.00000
    223       5.2255      0.00000
    224       5.2752      0.00000
    225       5.3135      0.00000
    226       5.4759      0.00000
    227       5.5595      0.00000
    228       5.7694      0.00000
    229       5.7916      0.00000
    230       6.0983      0.00000
    231       6.3537      0.00000
    232       6.4377      0.00000
    233       6.5397      0.00000
    234       6.5539      0.00000
    235       6.6448      0.00000
    236       6.7102      0.00000
    237       6.7237      0.00000
    238       6.7546      0.00000
    239       6.8341      0.00000
    240       6.8996      0.00000
    241       6.9103      0.00000
    242       7.0336      0.00000
    243       7.1275      0.00000
    244       7.1369      0.00000
[...]
  0.000   0.000   0.000   0.000   0.000   0.000   0.000   0.000   0.000   0.000   0.000   0.000   0.000   0.000   0.000   0.000
  0.000   0.000   0.000   0.000   0.000   0.000   0.000   0.000   0.000   0.000   0.000   0.000   0.000   0.000   0.000   0.000
  0.000   0.000   0.000   0.000   0.000   0.000   0.000   0.000   0.000   0.000   0.000   0.000   0.000   0.000   0.000   0.000
  0.000   0.000   0.000   0.000   0.000   0.000   0.000   0.000   0.000   0.000   0.000   0.000   0.000   0.000   0.000   0.000
  0.000   0.000   0.000   0.000   0.000   0.000   0.000   0.000   0.000   0.000   0.000   0.000   0.000   0.000   0.000   0.000
  0.000   0.000   0.000   0.000   0.000   0.000   0.000   0.000   0.000   0.000   1.000   0.000   0.000   0.000   0.000   0.000
  0.000   0.000   0.000   0.000   0.000   0.000   0.000   0.000   0.000   0.000   0.000   0.000   0.000   0.000   0.000   0.000
  0.000   0.000   0.000   0.000   0.000   0.000   0.000   0.000   0.000   0.000   0.000   0.000   0.000   0.000   0.000   0.000
  0.000   0.000   0.000   0.000   0.000   0.000   0.000   0.000   0.000   0.000   0.000   0.000   0.000   0.000   0.000   0.000
  0.000   0.000   0.000   0.000   0.000   0.000   0.000   0.000   0.000   0.000   0.000   0.000   0.000   0.000   0.000   0.000
  0.000   0.000   0.000   0.000   0.000   0.000   0.000   0.000   0.000   0.000   0.000   0.000   0.000   0.000   0.000   0.000
  0.000   0.000   0.000   0.000   0.000   0.000   0.000   0.000   0.000   0.000   0.000   0.000   0.000   0.000   0.000   0.000
  0.000   0.000   0.000   0.000   0.000   0.000   0.000   0.000   0.000   0.000   0.000   0.000   0.000   0.000   0.000   0.000


------------------------ aborting loop because EDIFF is reached ----------------------------------------





 total charge

# of ion       s       p       d       tot
------------------------------------------
    1        0.417   0.201   9.179   9.797
    2        0.417   0.202   9.178   9.797
    3        0.417   0.202   9.178   9.797
    4        0.417   0.202   9.178   9.797
    5        0.420   0.203   9.175   9.798
    6        0.417   0.202   9.178   9.797
    7        0.417   0.202   9.178   9.797
    8        0.417   0.202   9.178   9.797
    9        0.413   0.202   9.180   9.795
   10        0.407   0.268   9.165   9.839
   11        0.409   0.267   9.168   9.844
   12        0.407   0.268   9.165   9.839
   13        0.409   0.267   9.168   9.844
   14        0.409   0.267   9.168   9.844
   15        0.403   0.269   9.165   9.837
   16        0.407   0.268   9.165   9.839
   17        0.403   0.269   9.165   9.837
   18        0.403   0.269   9.165   9.837
   19        0.403   0.268   9.166   9.836
   20        0.426   0.282   9.158   9.866
   21        0.426   0.282   9.158   9.866
   22        0.398   0.273   9.167   9.838
   23        0.426   0.282   9.158   9.866
   24        0.398   0.273   9.167   9.838
   25        0.403   0.268   9.166   9.836
   26        0.403   0.268   9.166   9.836
   27        0.398   0.273   9.167   9.838
   28        0.414   0.195   9.183   9.792
   29        0.411   0.206   9.176   9.794
   30        0.411   0.206   9.176   9.794
   31        0.411   0.206   9.176   9.794
   32        0.411   0.206   9.176   9.794
   33        0.411   0.206   9.176   9.794
   34        0.411   0.206   9.176   9.794
   35        0.407   0.198   9.184   9.788
   36        0.432   0.355   7.547   8.333
   37        0.508   0.020   0.000   0.528
--------------------------------------------------
tot         15.318   8.704 328.538 352.560
 
    CHARGE:  cpu time    0.3309: real time    0.3309
    FORLOC:  cpu time    0.0100: real time    0.0100
    FORNL :  cpu time    1.4822: real time    1.4824
    STRESS:  cpu time    4.4343: real time    4.4346
    FORCOR:  cpu time    0.0445: real time    0.0446
    FORHAR:  cpu time    0.0172: real time    0.0173
    OFIELD:  cpu time    0.0002: real time    0.0002

  FORCE on cell =-STRESS in cart. coord.  units (eV):
  Direction    XX          YY          ZZ          XY          YZ          ZX
  --------------------------------------------------------------------------------------
  Alpha Z   737.18887   737.18887   737.18887
  Ewald  121459.07170121459.07169************     0.00001    -0.00000    -0.00001
  Hartree131612.45840131612.45840************     0.00000    -0.00000    -0.00000
  E(xc)   -2075.01990 -2075.01988 -2080.55541    -0.00002    -0.00000    -0.00000
  Local  ************************264568.66873     0.00021    -0.00003    -0.00006
  n-local  -337.31055  -315.03259  -324.56234    12.09790    -0.52494     0.73614
  augment  3280.03617  3280.03638  3286.49716    -0.00018    -0.00002    -0.00002
  Kinetic  4886.35022  4894.21216  4911.22099     5.81181     0.77189    -0.16952
  Fock        0.00000     0.00000     0.00000     0.00000     0.00000     0.00000
  -------------------------------------------------------------------------------------
  Total      -8.34625    -8.34625     0.86316    -0.00000     0.00000    -0.00000
  in kB      -9.00811    -9.00811     0.93161    -0.00000     0.00000    -0.00000
  external pressure =       -5.69 kB  Pullay stress =        0.00 kB


 VOLUME and BASIS-vectors are now :
 -----------------------------------------------------------------------------
  energy-cutoff  :      500.00
  volume of cell :     1484.46
      direct lattice vectors                 reciprocal lattice vectors
     8.791366577  0.000000000  0.000000000     0.113747958 -0.065672414  0.000000000
     4.395683289  7.613546790  0.000000000     0.000000000  0.131344829  0.000000000
     0.000000000  0.000000000 22.178121567     0.000000000  0.000000000  0.045089481

  length of vectors
     8.791366577  8.791366577 22.178121567     0.131344829  0.131344829  0.045089481


 FORCES acting on ions
    electron-ion (+dipol)            ewald-force                    non-local-force                 convergence-correction
 -----------------------------------------------------------------------------------------------
   0.459E-04 -.283E-04 0.250E+04   -.954E-04 0.593E-04 -.250E+04   0.895E-18 0.548E-19 -.214E+01   -.171E-03 -.165E-03 -.323E-01
   0.284E+00 0.371E+00 0.250E+04   -.353E+00 -.379E+00 -.250E+04   0.670E-01 0.104E+00 -.158E+01   0.113E-01 -.772E-01 0.629E-02
   -.284E+00 0.371E+00 0.250E+04   0.353E+00 -.379E+00 -.250E+04   -.670E-01 0.104E+00 -.158E+01   -.118E-01 -.753E-01 0.712E-02
   0.463E+00 0.602E-01 0.250E+04   -.505E+00 -.116E+00 -.250E+04   0.123E+00 0.614E-02 -.158E+01   -.611E-01 0.486E-01 0.635E-02
   -.806E-05 -.202E-04 0.250E+04   0.981E-04 -.199E-05 -.250E+04   -.195E-18 0.200E-18 -.127E+01   0.625E-02 0.382E-02 0.719E-01
   -.463E+00 0.602E-01 0.250E+04   0.505E+00 -.116E+00 -.250E+04   -.123E+00 0.614E-02 -.158E+01   0.597E-01 0.494E-01 0.722E-02
   0.179E+00 -.431E+00 0.250E+04   -.152E+00 0.496E+00 -.250E+04   0.564E-01 -.110E+00 -.158E+01   -.707E-01 0.280E-01 0.712E-02
   -.179E+00 -.431E+00 0.250E+04   0.152E+00 0.495E+00 -.250E+04   -.564E-01 -.110E+00 -.158E+01   0.723E-01 0.270E-01 0.717E-02
   0.364E-04 -.129E-04 0.250E+04   0.792E-04 -.643E-04 -.250E+04   0.888E-17 0.158E-17 -.202E+01   -.661E-02 -.343E-02 -.114E+00
   0.409E+01 0.236E+01 0.834E+03   -.380E+01 -.219E+01 -.833E+03   -.288E+00 -.166E+00 -.717E+00   -.144E-01 -.810E-02 0.514E-01
   -.290E-04 0.384E+01 0.839E+03   0.413E-04 -.387E+01 -.839E+03   0.903E-12 0.138E+00 -.302E+00   0.660E-02 -.128E+00 0.690E-01
   -.409E+01 0.236E+01 0.834E+03   0.380E+01 -.219E+01 -.833E+03   0.288E+00 -.166E+00 -.717E+00   0.125E-01 -.711E-02 0.521E-01
   0.332E+01 -.192E+01 0.839E+03   -.335E+01 0.193E+01 -.839E+03   0.119E+00 -.688E-01 -.302E+00   -.108E+00 0.699E-01 0.694E-01
   -.332E+01 -.192E+01 0.839E+03   0.335E+01 0.193E+01 -.839E+03   -.119E+00 -.688E-01 -.302E+00   0.119E+00 0.685E-01 0.681E-01
   0.162E-04 0.594E+00 0.834E+03   -.108E-03 -.740E+00 -.834E+03   0.480E-12 0.731E-01 -.780E+00   -.170E-02 0.506E-01 0.314E-01
   -.804E-05 -.472E+01 0.834E+03   0.206E-04 0.438E+01 -.833E+03   0.218E-11 0.332E+00 -.717E+00   -.238E-03 0.146E-01 0.515E-01
   0.514E+00 -.297E+00 0.834E+03   -.641E+00 0.370E+00 -.834E+03   0.633E-01 -.365E-01 -.780E+00   0.432E-01 -.269E-01 0.311E-01
   -.514E+00 -.297E+00 0.834E+03   0.641E+00 0.370E+00 -.834E+03   -.633E-01 -.365E-01 -.780E+00   -.427E-01 -.247E-01 0.327E-01
   0.414E-04 0.139E+01 -.862E+03   -.128E-03 -.146E+01 0.861E+03   0.280E-12 0.426E-01 0.643E+00   -.656E-02 0.381E-01 0.615E-02
   0.936E+01 0.541E+01 -.839E+03   -.815E+01 -.471E+01 0.840E+03   -.110E+01 -.634E+00 -.907E+00   -.167E+00 -.959E-01 -.146E+00
   -.936E+01 0.541E+01 -.839E+03   0.815E+01 -.471E+01 0.840E+03   0.110E+01 -.634E+00 -.907E+00   0.169E+00 -.973E-01 -.147E+00
   0.221E+01 -.128E+01 -.854E+03   -.232E+01 0.134E+01 0.853E+03   0.197E+00 -.114E+00 0.416E+00   -.674E-01 0.407E-01 -.621E-01
   -.560E-04 -.108E+02 -.839E+03   0.429E-04 0.941E+01 0.840E+03   0.832E-11 0.127E+01 -.907E+00   -.545E-02 0.186E+00 -.147E+00
   -.221E+01 -.128E+01 -.854E+03   0.232E+01 0.134E+01 0.853E+03   -.197E+00 -.114E+00 0.416E+00   0.690E-01 0.392E-01 -.615E-01
   -.120E+01 -.693E+00 -.862E+03   0.127E+01 0.732E+00 0.861E+03   -.369E-01 -.213E-01 0.643E+00   -.406E-01 -.228E-01 0.624E-02
   0.120E+01 -.693E+00 -.862E+03   -.127E+01 0.732E+00 0.861E+03   0.369E-01 -.213E-01 0.643E+00   0.298E-01 -.237E-01 0.620E-02
   0.200E-04 0.255E+01 -.854E+03   0.110E-03 -.268E+01 0.853E+03   0.150E-11 0.228E+00 0.416E+00   0.989E-03 -.793E-01 -.621E-01
   0.542E-04 -.374E-04 -.251E+04   -.115E-03 0.777E-04 0.251E+04   -.352E-17 0.634E-19 0.217E+01   -.147E-02 -.697E-03 0.101E+00
   0.480E+01 0.882E+01 -.252E+04   -.417E+01 -.800E+01 0.252E+04   -.515E+00 -.659E+00 0.188E+01   -.955E-01 -.139E+00 -.148E-01
   -.480E+01 0.882E+01 -.252E+04   0.417E+01 -.800E+01 0.252E+04   0.515E+00 -.659E+00 0.188E+01   0.106E+00 -.138E+00 -.158E-01
   0.100E+02 -.255E+00 -.252E+04   -.901E+01 0.391E+00 0.252E+04   -.829E+00 -.117E+00 0.188E+01   -.168E+00 -.129E-01 -.150E-01
   -.100E+02 -.255E+00 -.252E+04   0.901E+01 0.391E+00 0.252E+04   0.829E+00 -.117E+00 0.188E+01   0.178E+00 -.126E-01 -.157E-01
   0.524E+01 -.857E+01 -.252E+04   -.485E+01 0.761E+01 0.252E+04   -.313E+00 0.776E+00 0.188E+01   -.665E-01 0.161E+00 -.158E-01
   -.524E+01 -.857E+01 -.252E+04   0.485E+01 0.761E+01 0.252E+04   0.313E+00 0.776E+00 0.188E+01   0.779E-01 0.160E+00 -.150E-01
   0.241E-04 -.126E-04 -.251E+04   0.105E-03 -.657E-04 0.251E+04   0.194E-17 -.363E-18 0.225E+01   -.741E-02 -.398E-02 0.545E-01
   -.181E-04 -.184E-04 -.195E+04   0.860E-04 0.106E-04 0.195E+04   -.107E-17 -.167E-18 -.511E+01   0.189E-02 0.141E-02 -.602E-01
   0.532E-05 -.430E-05 -.294E+03   0.530E-05 0.910E-07 0.296E+03   0.211E-18 0.136E-18 -.245E+01   0.641E-04 0.422E-04 0.263E-01
 -----------------------------------------------------------------------------------------------
   0.335E-03 -.719E-03 0.119E+02   0.201E-13 0.113E-12 0.176E-11   -.221E-15 -.395E-18 -.117E+02   0.188E-01 0.897E-02 -.154E+00
 
 
 POSITION                                       TOTAL-FORCE (eV/Angst)
 -----------------------------------------------------------------------------------
      0.00000      0.00000      5.28219         0.000000      0.000000     -0.006615
      2.93046      0.00000      5.28219         0.009410      0.019423      0.033608
      5.86091      0.00000      5.28219        -0.009410      0.019423      0.033608
      1.46523      2.53785      5.28219         0.021525     -0.001562      0.033608
      4.39568      2.53785      5.28219         0.000000      0.000000      0.006614
      7.32614      2.53785      5.28219        -0.021525     -0.001562      0.033608
      2.93046      5.07570      5.28219         0.012115     -0.017861      0.033608
      5.86091      5.07570      5.28219        -0.012115     -0.017861      0.033608
      8.79137      5.07570      5.28219         0.000000      0.000000      0.021538
      1.46523      0.84595      7.67490        -0.011525     -0.006654     -0.013406
      4.39568      0.84595      7.67490        -0.000000     -0.023055     -0.050793
      7.32614      0.84595      7.67490         0.011525     -0.006654     -0.013406
      2.93046      3.38380      7.67490        -0.019966      0.011528     -0.050793
      5.86091      3.38380      7.67490         0.019966      0.011528     -0.050793
      8.79137      3.38380      7.67490        -0.000000     -0.023120     -0.021222
      4.39568      5.92165      7.67490         0.000000      0.013308     -0.013406
      7.32614      5.92165      7.67490        -0.020022      0.011560     -0.021222
     10.25659      5.92165      7.67490         0.020022      0.011560     -0.021222
      8.79137      1.69615     10.06050         0.000000      0.006011      0.016958
      2.93321      1.69349     10.03240        -0.050238     -0.029005     -0.153210
      5.85816      1.69349     10.03240         0.050238     -0.029005     -0.153210
     10.25564      4.23030     10.05204         0.015500     -0.008949     -0.011681
      4.39568      4.22657     10.03240         0.000000      0.058010     -0.153210
      7.32709      4.23030     10.05204        -0.015500     -0.008949     -0.011681
     11.71814      6.76547     10.06050        -0.005206     -0.003006      0.016958
      5.86459      6.76547     10.06050         0.005206     -0.003006      0.016958
      8.79137      6.76650     10.05204         0.000000      0.017897     -0.011681
      0.00000      0.00000     12.42190         0.000000      0.000000     -0.004826
      2.95118      0.03878     12.42853         0.015449      0.020536      0.045417
      5.84018      0.03878     12.42853        -0.015449      0.020536      0.045417
      1.50917      2.53641     12.42853         0.025509      0.003111      0.045417
      7.28219      2.53641     12.42853        -0.025509      0.003111      0.045417
      2.95367      5.03836     12.42853         0.010060     -0.023647      0.045417
      5.83769      5.03836     12.42853        -0.010060     -0.023647      0.045417
      8.79137      5.07570     12.41313         0.000000      0.000000     -0.001504
      4.39568      2.53785     12.23685         0.000000      0.000000      0.206615
      4.39568      2.53785     13.80845         0.000000      0.000000      0.004091
 -----------------------------------------------------------------------------------
    total drift:                                0.019141      0.008249      0.082156


--------------------------------------------------------------------------------------------------------



  FREE ENERGIE OF THE ION-ELECTRON SYSTEM (eV)
  ---------------------------------------------------
  free  energy   TOTEN  =       -98.89961075 eV

  energy  without entropy=      -98.89961075  energy(sigma->0) =      -98.89961075
 


--------------------------------------------------------------------------------------------------------


    POTLOK:  cpu time    0.0437: real time    0.0437


--------------------------------------------------------------------------------------------------------


 stress matrix after NEB project (eV)
     -8.34625     -0.00000     -0.00000
     -0.00000     -8.34625      0.00000
      0.00000      0.00000      0.86316
  FORCES: max atom, RMS     0.004091    0.000673
  FORCE total and by dimension    0.004091    0.004091
  Stress total and by dimension   11.834898    8.346249
     LOOP+:  cpu time   64.0797: real time   64.0917
 -----------------------------------------------------------------------------
|                                                                             |
|           W    W    AA    RRRRR   N    N  II  N    N   GGGG   !!!           |
|           W    W   A  A   R    R  NN   N  II  NN   N  G    G  !!!           |
|           W    W  A    A  R    R  N N  N  II  N N  N  G       !!!           |
|           W WW W  AAAAAA  RRRRR   N  N N  II  N  N N  G  GGG   !            |
|           WW  WW  A    A  R   R   N   NN  II  N   NN  G    G                |
|           W    W  A    A  R    R  N    N  II  N    N   GGGG   !!!           |
|                                                                             |
|     Tetrahedron method does not include variations of the Fermi             |
|     occupations, so forces and stress will be inaccurate. We suggest        |
|     using a different smearing scheme ISMEAR = 1 or 2 for metals in         |
|     relaxations.                                                            |
|                                                                             |
 -----------------------------------------------------------------------------

    4ORBIT:  cpu time    0.0000: real time    0.0000



 total charge

# of ion       s       p       d       tot
------------------------------------------
    1        0.417   0.201   9.179   9.797
    2        0.417   0.202   9.178   9.797
    3        0.417   0.202   9.178   9.797
    4        0.417   0.202   9.178   9.797
    5        0.420   0.203   9.175   9.798
    6        0.417   0.202   9.178   9.797
    7        0.417   0.202   9.178   9.797
    8        0.417   0.202   9.178   9.797
    9        0.413   0.202   9.180   9.795
   10        0.407   0.268   9.165   9.839
   11        0.409   0.267   9.168   9.844
   12        0.407   0.268   9.165   9.839
   13        0.409   0.267   9.168   9.844
   14        0.409   0.267   9.168   9.844
   15        0.403   0.269   9.165   9.837
   16        0.407   0.268   9.165   9.839
   17        0.403   0.269   9.165   9.837
   18        0.403   0.269   9.165   9.837
   19        0.403   0.268   9.166   9.836
   20        0.426   0.282   9.158   9.866
   21        0.426   0.282   9.158   9.866
   22        0.398   0.273   9.167   9.838
   23        0.426   0.282   9.158   9.866
   24        0.398   0.273   9.167   9.838
   25        0.403   0.268   9.166   9.836
   26        0.403   0.268   9.166   9.836
   27        0.398   0.273   9.167   9.838
   28        0.414   0.195   9.183   9.792
   29        0.411   0.206   9.176   9.794
   30        0.411   0.206   9.176   9.794
   31        0.411   0.206   9.176   9.794
   32        0.411   0.206   9.176   9.794
   33        0.411   0.206   9.176   9.794
   34        0.411   0.206   9.176   9.794
   35        0.407   0.198   9.184   9.788
   36        0.432   0.355   7.547   8.333
   37        0.508   0.020   0.000   0.528
--------------------------------------------------
tot         15.318   8.704 328.538 352.560
 
 BZINTS: Fermi energy:    0.745545;  395.000000 electrons
         Band energy:-0.127002E+04;  BLOECHL correction:   -0.053590

 total amount of memory used by VASP MPI-rank0   123115. kBytes
=======================================================================

   base      :      30000. kBytes
   nonlr-proj:      15012. kBytes
   fftplans  :       4330. kBytes
   grid      :      17879. kBytes
   one-center:        575. kBytes
   wavefun   :      55319. kBytes
 
  
  
 General timing and accounting informations for this job:
 ========================================================
  
                  Total CPU time used (sec):       71.377
                            User time (sec):       68.653
                          System time (sec):        2.724
                         Elapsed time (sec):       71.781
  
                   Maximum memory used (kb):      379736.
                   Average memory used (kb):          N/A
  
                          Minor page faults:        65385
                          Major page faults:            0
                 Voluntary context switches:         4750
