PROCAR new format
# of k-points:   10         # of bands:  252         # of ions:   37

 k-point     1 :    0.00000000 0.00000000 0.00000000     weight = 0.01562500

band     1 # energy   -6.31351494 # occ.  2.00000000
 
ion      s      p      d    tot
    1  0.006  0.001  0.000  0.007
    2  0.006  0.001  0.000  0.007
    3  0.006  0.001  0.000  0.007
    4  0.006  0.001  0.000  0.007
    5  0.006  0.001  0.000  0.007
    6  0.006  0.001  0.000  0.007
    7  0.006  0.001  0.000  0.007
    8  0.006  0.001  0.000  0.007
    9  0.006  0.001  0.000  0.007
   10  0.024  0.000  0.000  0.024
   11  0.024  0.000  0.000  0.025
   12  0.024  0.000  0.000  0.024
   13  0.024  0.000  0.000  0.025
   14  0.024  0.000  0.000  0.025
   15  0.024  0.000  0.000  0.024
   16  0.024  0.000  0.000  0.024
   17  0.024  0.000  0.000  0.024
   18  0.024  0.000  0.000  0.024
   19  0.023  0.000  0.000  0.023
   20  0.023  0.000  0.000  0.024
   21  0.023  0.000  0.000  0.024
   22  0.023  0.000  0.000  0.023
   23  0.023  0.000  0.000  0.024
   24  0.023  0.000  0.000  0.023
   25  0.023  0.000  0.000  0.023
   26  0.023  0.000  0.000  0.023
   27  0.023  0.000  0.000  0.023
   28  0.005  0.001  0.000  0.006
   29  0.005  0.001  0.000  0.006
   30  0.005  0.001  0.000  0.006
   31  0.005  0.001  0.000  0.006
   32  0.005  0.001  0.000  0.006
   33  0.005  0.001  0.000  0.006
   34  0.005  0.001  0.000  0.006
   35  0.005  0.001  0.000  0.006
   36  0.006  0.000  0.000  0.007
   37  0.001  0.000  0.000  0.001
tot    0.525  0.013  0.007  0.545
 
band     2 # energy   -5.44074116 # occ.  2.00000000
 
ion      s      p      d    tot
    1  0.008  0.000  0.000  0.008
    2  0.008  0.000  0.000  0.008
    3  0.008  0.000  0.000  0.008
    4  0.008  0.000  0.000  0.008
    5  0.007  0.000  0.000  0.008
    6  0.008  0.000  0.000  0.008
    7  0.008  0.000  0.000  0.008
    8  0.008  0.000  0.000  0.008
    9  0.008  0.000  0.000  0.008
   10  0.010  0.001  0.016  0.027
   11  0.010  0.001  0.015  0.026
   12  0.010  0.001  0.016  0.027
   13  0.010  0.001  0.015  0.026
   14  0.010  0.001  0.015  0.026
   15  0.010  0.001  0.015  0.026
   16  0.010  0.001  0.016  0.027
   17  0.010  0.001  0.015  0.026
   18  0.010  0.001  0.015  0.026
   19  0.013  0.001  0.018  0.032
   20  0.013  0.001  0.019  0.032
   21  0.013  0.001  0.019  0.032
   22  0.012  0.001  0.017  0.030
   23  0.013  0.001  0.019  0.032
   24  0.012  0.001  0.017  0.030
   25  0.013  0.001  0.018  0.032
   26  0.013  0.001  0.018  0.032
   27  0.012  0.001  0.017  0.030
   28  0.007  0.000  0.000  0.007
   29  0.006  0.000  0.000  0.007
   30  0.006  0.000  0.000  0.007
   31  0.006  0.000  0.000  0.007
   32  0.006  0.000  0.000  0.007
   33  0.006  0.000  0.000  0.007
   34  0.006  0.000  0.000  0.007
   35  0.006  0.000  0.000  0.007
   36  0.008  0.000  0.001  0.009
   37  0.001  0.000  0.000  0.001
tot    0.335  0.024  0.301  0.660
 
band     3 # energy   -5.15204333 # occ.  2.00000000
 
ion      s      p      d    tot
    1  0.017  0.000  0.028  0.045
    2  0.017  0.000  0.027  0.044
    3  0.017  0.000  0.027  0.044
    4  0.017  0.000  0.027  0.044
    5  0.016  0.000  0.027  0.043
    6  0.017  0.000  0.027  0.044
    7  0.017  0.000  0.027  0.044
    8  0.017  0.000  0.027  0.044
    9  0.017  0.000  0.028  0.045
   10  0.001  0.001  0.022  0.023
   11  0.001  0.001  0.023  0.025
   12  0.001  0.001  0.022  0.023
   13  0.001  0.001  0.023  0.025
   14  0.001  0.001  0.023  0.025
   15  0.001  0.001  0.023  0.025
   16  0.001  0.001  0.022  0.023
   17  0.001  0.001  0.023  0.025
   18  0.001  0.001  0.023  0.025
   19  0.000  0.000  0.007  0.007
   20  0.000  0.000  0.007  0.007
   21  0.000  0.000  0.007  0.007
   22  0.000  0.000  0.009  0.009
   23  0.000  0.000  0.007  0.007
   24  0.000  0.000  0.009  0.009
   25  0.000  0.000  0.007  0.007
   26  0.000  0.000  0.007  0.007
   27  0.000  0.000  0.009  0.009
   28  0.005  0.000  0.005  0.010
   29  0.004  0.000  0.004  0.009
   30  0.004  0.000  0.004  0.009
   31  0.004  0.000  0.004  0.009
   32  0.004  0.000  0.004  0.009
   33  0.004  0.000  0.004  0.009
   34  0.004  0.000  0.004  0.009
   35  0.005  0.000  0.006  0.011
   36  0.004  0.000  0.000  0.004
   37  0.000  0.000  0.000  0.000
tot    0.198  0.006  0.557  0.761
 
band     4 # energy   -5.04488133 # occ.  2.00000000
 
ion      s      p      d    tot
    1  0.005  0.001  0.005  0.010
    2  0.000  0.000  0.005  0.005
    3  0.000  0.000  0.005  0.005
    4  0.000  0.000  0.005  0.005
    5  0.000  0.000  0.001  0.001
    6  0.000  0.000  0.005  0.005
    7  0.000  0.000  0.005  0.005
    8  0.000  0.000  0.005  0.005
    9  0.002  0.001  0.003  0.006
   10  0.006  0.000  0.058  0.064
   11  0.001  0.001  0.025  0.027
   12  0.006  0.000  0.058  0.064
   13  0.001  0.001  0.025  0.027
   14  0.001  0.001  0.025  0.027
   15  0.013  0.001  0.012  0.026
   16  0.006  0.000  0.058  0.064
   17  0.013  0.001  0.012  0.026
   18  0.013  0.001  0.012  0.026
   19  0.000  0.001  0.031  0.032
   20  0.007  0.000  0.057  0.064
   21  0.007  0.000  0.057  0.064
   22  0.013  0.001  0.009  0.023
   23  0.007  0.000  0.057  0.064
   24  0.013  0.001  0.009  0.023
   25  0.000  0.001  0.031  0.032
   26  0.000  0.001  0.031  0.032
   27  0.013  0.001  0.009  0.023
   28  0.000  0.000  0.002  0.002
   29  0.000  0.000  0.004  0.004
   30  0.000  0.000  0.004  0.004
   31  0.000  0.000  0.004  0.004
   32  0.000  0.000  0.004  0.004
   33  0.000  0.000  0.004  0.004
   34  0.000  0.000  0.004  0.004
   35  0.002  0.001  0.002  0.005
   36  0.007  0.001  0.007  0.015
   37  0.002  0.000  0.000  0.002
tot    0.137  0.016  0.650  0.803
 
band     5 # energy   -5.03428848 # occ.  2.00000000
 
ion      s      p      d    tot
    1  0.001  0.000  0.000  0.001
    2  0.000  0.000  0.006  0.006
    3  0.000  0.000  0.006  0.006
    4  0.000  0.000  0.006  0.006
    5  0.005  0.001  0.005  0.011
    6  0.000  0.000  0.005  0.005
    7  0.000  0.000  0.006  0.006
    8  0.000  0.000  0.005  0.005
    9  0.002  0.000  0.004  0.006
   10  0.008  0.001  0.005  0.014
   11  0.014  0.001  0.041  0.056
   12  0.008  0.001  0.004  0.013
   13  0.014  0.001  0.041  0.056
   14  0.011  0.001  0.042  0.054
   15  0.001  0.000  0.055  0.056
   16  0.008  0.001  0.004  0.013
   17  0.001  0.000  0.055  0.056
   18  0.000  0.000  0.061  0.062
   19  0.011  0.001  0.028  0.040
   20  0.006  0.001  0.013  0.020
   21  0.005  0.001  0.011  0.017
   22  0.002  0.000  0.050  0.052
   23  0.005  0.001  0.011  0.017
   24  0.001  0.000  0.054  0.054
   25  0.010  0.001  0.027  0.038
   26  0.012  0.001  0.028  0.040
   27  0.002  0.000  0.050  0.052
   28  0.004  0.001  0.004  0.009
   29  0.000  0.000  0.004  0.004
   30  0.000  0.000  0.003  0.003
   31  0.000  0.000  0.004  0.004
   32  0.000  0.000  0.003  0.003
   33  0.000  0.000  0.003  0.003
   34  0.000  0.000  0.003  0.003
   35  0.002  0.001  0.005  0.008
   36  0.000  0.000  0.000  0.000
   37  0.000  0.000  0.000  0.000
tot    0.131  0.017  0.653  0.801
 
band     6 # energy   -5.03389706 # occ.  2.00000000
 
ion      s      p      d    tot
    1  0.000  0.000  0.000  0.000
    2  0.000  0.000  0.002  0.002
    3  0.001  0.001  0.005  0.007
    4  0.001  0.000  0.005  0.006
    5  0.000  0.000  0.008  0.008
    6  0.001  0.001  0.005  0.006
    7  0.001  0.000  0.005  0.007
    8  0.000  0.000  0.003  0.003
    9  0.000  0.000  0.007  0.007
   10  0.000  0.000  0.030  0.030
   11  0.012  0.001  0.037  0.049
   12  0.000  0.001  0.039  0.040
   13  0.000  0.000  0.092  0.092
   14  0.019  0.001  0.017  0.038
   15  0.014  0.001  0.031  0.046
   16  0.000  0.001  0.033  0.034
   17  0.000  0.001  0.024  0.026
   18  0.019  0.001  0.026  0.045
   19  0.005  0.000  0.028  0.033
   20  0.002  0.000  0.027  0.030
   21  0.000  0.001  0.017  0.019
   22  0.000  0.001  0.040  0.041
   23  0.002  0.001  0.026  0.029
   24  0.020  0.001  0.018  0.039
   25  0.008  0.001  0.017  0.026
   26  0.000  0.000  0.062  0.062
   27  0.014  0.001  0.027  0.041
   28  0.000  0.000  0.004  0.004
   29  0.001  0.000  0.004  0.005
   30  0.000  0.000  0.002  0.003
   31  0.000  0.000  0.002  0.003
   32  0.001  0.000  0.002  0.003
   33  0.000  0.000  0.002  0.003
   34  0.001  0.000  0.004  0.006
   35  0.000  0.000  0.008  0.008
   36  0.000  0.000  0.000  0.000
   37  0.000  0.000  0.000  0.000
tot    0.125  0.017  0.661  0.803
 
band     7 # energy   -5.03389210 # occ.  2.00000000
 
ion      s      p      d    tot
    1  0.000  0.000  0.000  0.000
    2  0.002  0.001  0.006  0.008
    3  0.000  0.000  0.003  0.004
    4  0.001  0.000  0.003  0.004
    5  0.000  0.000  0.008  0.008
    6  0.001  0.000  0.004  0.005
    7  0.000  0.000  0.003  0.003
    8  0.002  0.001  0.006  0.008
    9  0.000  0.000  0.007  0.007
   10  0.000  0.001  0.038  0.039
   11  0.008  0.000  0.061  0.070
   12  0.000  0.000  0.029  0.029
   13  0.020  0.001  0.006  0.026
   14  0.004  0.000  0.080  0.083
   15  0.008  0.001  0.025  0.034
   16  0.000  0.001  0.036  0.036
   17  0.021  0.000  0.032  0.054
   18  0.003  0.001  0.024  0.029
   19  0.003  0.000  0.043  0.047
   20  0.000  0.001  0.019  0.021
   21  0.003  0.000  0.030  0.034
   22  0.022  0.001  0.018  0.040
   23  0.001  0.001  0.022  0.024
   24  0.004  0.001  0.036  0.041
   25  0.002  0.000  0.055  0.056
   26  0.008  0.001  0.009  0.018
   27  0.008  0.001  0.031  0.040
   28  0.000  0.000  0.004  0.004
   29  0.000  0.000  0.002  0.002
   30  0.001  0.000  0.004  0.005
   31  0.001  0.000  0.003  0.004
   32  0.001  0.000  0.003  0.004
   33  0.001  0.000  0.004  0.005
   34  0.000  0.000  0.002  0.002
   35  0.000  0.000  0.008  0.008
   36  0.000  0.000  0.000  0.000
   37  0.000  0.000  0.000  0.000
tot    0.125  0.017  0.661  0.803
 
band     8 # energy   -5.02907477 # occ.  2.00000000
 
ion      s      p      d    tot
    1  0.000  0.000  0.010  0.010
    2  0.001  0.001  0.006  0.008
    3  0.000  0.000  0.003  0.004
    4  0.001  0.000  0.003  0.004
    5  0.000  0.000  0.002  0.002
    6  0.000  0.000  0.004  0.004
    7  0.001  0.000  0.003  0.004
    8  0.001  0.001  0.006  0.008
    9  0.000  0.000  0.004  0.004
   10  0.023  0.001  0.027  0.051
   11  0.005  0.001  0.032  0.037
   12  0.000  0.001  0.065  0.066
   13  0.000  0.002  0.011  0.013
   14  0.005  0.001  0.034  0.040
   15  0.006  0.000  0.036  0.042
   16  0.021  0.001  0.030  0.052
   17  0.000  0.000  0.096  0.096
   18  0.006  0.000  0.030  0.036
   19  0.008  0.001  0.025  0.033
   20  0.013  0.001  0.017  0.031
   21  0.000  0.000  0.050  0.050
   22  0.000  0.000  0.043  0.044
   23  0.012  0.001  0.019  0.032
   24  0.000  0.000  0.026  0.027
   25  0.009  0.001  0.025  0.034
   26  0.000  0.001  0.018  0.020
   27  0.000  0.000  0.028  0.028
   28  0.000  0.000  0.005  0.005
   29  0.000  0.000  0.002  0.002
   30  0.001  0.000  0.003  0.004
   31  0.001  0.000  0.003  0.004
   32  0.001  0.000  0.002  0.003
   33  0.001  0.000  0.003  0.004
   34  0.000  0.000  0.002  0.002
   35  0.000  0.000  0.001  0.001
   36  0.000  0.000  0.002  0.002
   37  0.000  0.000  0.000  0.000
tot    0.116  0.016  0.675  0.807
 
band     9 # energy   -5.02906587 # occ.  2.00000000
 
ion      s      p      d    tot
    1  0.000  0.000  0.010  0.010
    2  0.000  0.000  0.003  0.003
    3  0.001  0.001  0.005  0.007
    4  0.001  0.000  0.005  0.006
    5  0.000  0.000  0.002  0.002
    6  0.001  0.001  0.005  0.007
    7  0.001  0.000  0.006  0.007
    8  0.000  0.000  0.003  0.003
    9  0.000  0.000  0.004  0.004
   10  0.006  0.001  0.055  0.062
   11  0.002  0.001  0.019  0.023
   12  0.029  0.001  0.017  0.047
   13  0.007  0.000  0.040  0.047
   14  0.001  0.001  0.017  0.020
   15  0.002  0.000  0.072  0.075
   16  0.008  0.001  0.051  0.060
   17  0.008  0.001  0.011  0.020
   18  0.002  0.000  0.078  0.080
   19  0.003  0.001  0.021  0.025
   20  0.004  0.000  0.041  0.045
   21  0.017  0.001  0.007  0.025
   22  0.001  0.000  0.021  0.022
   23  0.005  0.000  0.038  0.043
   24  0.000  0.000  0.038  0.039
   25  0.002  0.001  0.020  0.024
   26  0.011  0.001  0.027  0.038
   27  0.000  0.000  0.037  0.037
   28  0.000  0.000  0.005  0.005
   29  0.001  0.000  0.003  0.005
   30  0.000  0.000  0.002  0.003
   31  0.000  0.000  0.002  0.002
   32  0.000  0.000  0.002  0.003
   33  0.000  0.000  0.002  0.002
   34  0.001  0.000  0.003  0.005
   35  0.000  0.000  0.001  0.001
   36  0.000  0.000  0.002  0.002
   37  0.000  0.000  0.000  0.000
tot    0.116  0.016  0.675  0.807
 
band    10 # energy   -4.99869753 # occ.  2.00000000
 
ion      s      p      d    tot
    1  0.001  0.000  0.018  0.018
    2  0.000  0.000  0.010  0.011
    3  0.000  0.000  0.010  0.011
    4  0.000  0.000  0.010  0.011
    5  0.001  0.000  0.001  0.002
    6  0.000  0.000  0.010  0.011
    7  0.000  0.000  0.010  0.011
    8  0.000  0.000  0.010  0.011
    9  0.006  0.001  0.000  0.007
   10  0.003  0.000  0.056  0.059
   11  0.001  0.000  0.045  0.047
   12  0.003  0.000  0.056  0.059
   13  0.001  0.000  0.045  0.047
   14  0.001  0.000  0.045  0.046
   15  0.003  0.000  0.005  0.008
   16  0.003  0.000  0.056  0.059
   17  0.003  0.000  0.005  0.008
   18  0.003  0.000  0.005  0.008
   19  0.001  0.000  0.020  0.021
   20  0.000  0.000  0.050  0.050
   21  0.000  0.000  0.050  0.050
   22  0.004  0.000  0.030  0.035
   23  0.000  0.000  0.050  0.050
   24  0.004  0.000  0.030  0.035
   25  0.001  0.000  0.020  0.021
   26  0.001  0.000  0.020  0.021
   27  0.004  0.000  0.030  0.035
   28  0.008  0.000  0.004  0.012
   29  0.001  0.000  0.008  0.010
   30  0.001  0.000  0.008  0.010
   31  0.001  0.000  0.008  0.010
   32  0.001  0.000  0.008  0.010
   33  0.001  0.000  0.008  0.010
   34  0.001  0.000  0.008  0.010
   35  0.000  0.001  0.016  0.017
   36  0.000  0.000  0.002  0.002
   37  0.000  0.000  0.000  0.000
tot    0.063  0.007  0.772  0.842
 
band    11 # energy   -4.99349637 # occ.  2.00000000
 
ion      s      p      d    tot
    1  0.005  0.001  0.000  0.006
    2  0.000  0.000  0.011  0.011
    3  0.000  0.000  0.011  0.011
    4  0.000  0.000  0.011  0.011
    5  0.001  0.000  0.004  0.005
    6  0.000  0.000  0.011  0.011
    7  0.000  0.000  0.011  0.011
    8  0.000  0.000  0.011  0.011
    9  0.002  0.000  0.008  0.010
   10  0.002  0.000  0.023  0.026
   11  0.003  0.000  0.019  0.022
   12  0.002  0.000  0.023  0.026
   13  0.003  0.000  0.019  0.022
   14  0.003  0.000  0.019  0.022
   15  0.000  0.000  0.063  0.063
   16  0.002  0.000  0.023  0.026
   17  0.000  0.000  0.063  0.063
   18  0.000  0.000  0.063  0.064
   19  0.002  0.000  0.054  0.056
   20  0.004  0.000  0.010  0.015
   21  0.004  0.000  0.010  0.015
   22  0.000  0.000  0.053  0.053
   23  0.004  0.000  0.010  0.015
   24  0.000  0.000  0.053  0.053
   25  0.002  0.000  0.054  0.056
   26  0.002  0.000  0.054  0.056
   27  0.000  0.000  0.053  0.053
   28  0.000  0.000  0.009  0.010
   29  0.000  0.000  0.006  0.006
   30  0.000  0.000  0.006  0.006
   31  0.000  0.000  0.006  0.006
   32  0.000  0.000  0.006  0.006
   33  0.000  0.000  0.006  0.006
   34  0.000  0.000  0.006  0.006
   35  0.002  0.000  0.005  0.007
   36  0.004  0.001  0.002  0.007
   37  0.001  0.000  0.000  0.001
tot    0.050  0.007  0.794  0.851
 
band    12 # energy   -4.98786442 # occ.  2.00000000
 
ion      s      p      d    tot
    1  0.000  0.000  0.018  0.018
    2  0.003  0.000  0.006  0.010
    3  0.004  0.000  0.006  0.010
    4  0.001  0.000  0.008  0.009
    5  0.000  0.000  0.004  0.005
    6  0.002  0.001  0.007  0.009
    7  0.000  0.000  0.009  0.010
    8  0.001  0.000  0.009  0.010
    9  0.000  0.000  0.013  0.013
   10  0.000  0.000  0.028  0.028
   11  0.005  0.000  0.018  0.023
   12  0.000  0.000  0.024  0.024
   13  0.001  0.000  0.035  0.036
   14  0.002  0.000  0.031  0.033
   15  0.005  0.000  0.014  0.020
   16  0.000  0.000  0.040  0.040
   17  0.001  0.000  0.047  0.048
   18  0.002  0.000  0.039  0.041
   19  0.013  0.000  0.017  0.030
   20  0.003  0.000  0.050  0.053
   21  0.001  0.000  0.063  0.064
   22  0.000  0.000  0.015  0.016
   23  0.007  0.000  0.014  0.021
   24  0.000  0.000  0.023  0.024
   25  0.005  0.000  0.056  0.061
   26  0.002  0.000  0.071  0.073
   27  0.001  0.000  0.045  0.046
   28  0.000  0.000  0.010  0.011
   29  0.000  0.000  0.007  0.008
   30  0.000  0.000  0.008  0.008
   31  0.002  0.001  0.005  0.008
   32  0.001  0.001  0.007  0.008
   33  0.002  0.000  0.004  0.006
   34  0.002  0.000  0.004  0.006
   35  0.000  0.000  0.008  0.008
   36  0.000  0.000  0.001  0.001
   37  0.000  0.000  0.000  0.000
tot    0.067  0.008  0.764  0.839
 
band    13 # energy   -4.98785437 # occ.  2.00000000
 
ion      s      p      d    tot
    1  0.000  0.000  0.018  0.018
    2  0.000  0.000  0.009  0.009
    3  0.000  0.000  0.009  0.010
    4  0.003  0.000  0.007  0.010
    5  0.000  0.000  0.004  0.005
    6  0.002  0.000  0.008  0.010
    7  0.003  0.001  0.006  0.010
    8  0.003  0.001  0.006  0.010
    9  0.000  0.000  0.013  0.013
   10  0.000  0.000  0.033  0.033
   11  0.000  0.000  0.038  0.038
   12  0.000  0.000  0.037  0.038
   13  0.005  0.000  0.021  0.025
   14  0.003  0.000  0.025  0.029
   15  0.000  0.000  0.052  0.053
   16  0.000  0.000  0.021  0.021
   17  0.005  0.000  0.019  0.024
   18  0.003  0.000  0.028  0.032
   19  0.000  0.000  0.079  0.079
   20  0.004  0.000  0.035  0.039
   21  0.006  0.000  0.021  0.028
   22  0.001  0.000  0.040  0.041
   23  0.000  0.000  0.071  0.071
   24  0.001  0.000  0.032  0.033
   25  0.009  0.000  0.039  0.048
   26  0.012  0.000  0.025  0.037
   27  0.000  0.000  0.010  0.011
   28  0.000  0.000  0.010  0.011
   29  0.002  0.001  0.004  0.007
   30  0.002  0.001  0.004  0.007
   31  0.001  0.000  0.006  0.007
   32  0.001  0.000  0.005  0.006
   33  0.000  0.000  0.008  0.008
   34  0.001  0.000  0.008  0.009
   35  0.000  0.000  0.008  0.008
   36  0.000  0.000  0.001  0.001
   37  0.000  0.000  0.000  0.000
tot    0.067  0.008  0.764  0.839
 
band    14 # energy   -4.98056902 # occ.  2.00000000
 
ion      s      p      d    tot
    1  0.000  0.000  0.006  0.007
    2  0.003  0.000  0.007  0.010
    3  0.003  0.000  0.007  0.010
    4  0.001  0.000  0.007  0.009
    5  0.000  0.000  0.019  0.020
    6  0.001  0.000  0.008  0.009
    7  0.000  0.000  0.010  0.011
    8  0.000  0.000  0.010  0.011
    9  0.000  0.000  0.010  0.010
   10  0.006  0.000  0.020  0.026
   11  0.000  0.000  0.047  0.047
   12  0.005  0.000  0.024  0.029
   13  0.003  0.000  0.037  0.040
   14  0.003  0.000  0.037  0.040
   15  0.000  0.000  0.017  0.017
   16  0.000  0.000  0.069  0.069
   17  0.000  0.000  0.034  0.035
   18  0.000  0.000  0.035  0.036
   19  0.000  0.000  0.022  0.022
   20  0.005  0.000  0.035  0.040
   21  0.005  0.000  0.035  0.040
   22  0.007  0.000  0.029  0.036
   23  0.000  0.000  0.039  0.039
   24  0.008  0.000  0.024  0.032
   25  0.000  0.000  0.031  0.032
   26  0.000  0.000  0.030  0.031
   27  0.000  0.000  0.092  0.092
   28  0.000  0.000  0.004  0.004
   29  0.000  0.000  0.006  0.006
   30  0.000  0.000  0.005  0.005
   31  0.001  0.000  0.005  0.007
   32  0.001  0.000  0.005  0.007
   33  0.001  0.000  0.002  0.004
   34  0.001  0.000  0.002  0.004
   35  0.000  0.000  0.005  0.006
   36  0.000  0.000  0.002  0.003
   37  0.000  0.000  0.000  0.000
tot    0.057  0.007  0.780  0.845
 
band    15 # energy   -4.98056295 # occ.  2.00000000
 
ion      s      p      d    tot
    1  0.000  0.000  0.006  0.007
    2  0.000  0.000  0.010  0.010
    3  0.000  0.000  0.010  0.010
    4  0.002  0.000  0.009  0.011
    5  0.000  0.000  0.019  0.020
    6  0.002  0.000  0.009  0.011
    7  0.003  0.001  0.006  0.009
    8  0.003  0.001  0.006  0.010
    9  0.000  0.000  0.010  0.011
   10  0.002  0.000  0.055  0.057
   11  0.004  0.000  0.034  0.038
   12  0.002  0.000  0.052  0.054
   13  0.001  0.000  0.043  0.045
   14  0.001  0.000  0.044  0.045
   15  0.001  0.000  0.041  0.042
   16  0.007  0.000  0.006  0.014
   17  0.000  0.000  0.023  0.024
   18  0.000  0.000  0.022  0.022
   19  0.000  0.000  0.034  0.034
   20  0.001  0.000  0.037  0.039
   21  0.002  0.000  0.037  0.039
   22  0.003  0.000  0.068  0.071
   23  0.006  0.000  0.034  0.040
   24  0.002  0.000  0.072  0.075
   25  0.000  0.000  0.025  0.025
   26  0.000  0.000  0.025  0.026
   27  0.010  0.000  0.004  0.015
   28  0.000  0.000  0.004  0.004
   29  0.002  0.000  0.003  0.005
   30  0.002  0.000  0.003  0.005
   31  0.001  0.000  0.003  0.004
   32  0.000  0.000  0.004  0.004
   33  0.000  0.000  0.006  0.007
   34  0.000  0.000  0.006  0.007
   35  0.000  0.000  0.006  0.006
   36  0.000  0.000  0.002  0.003
   37  0.000  0.000  0.000  0.000
tot    0.057  0.007  0.780  0.845
 
band    16 # energy   -4.93171388 # occ.  2.00000000
 
ion      s      p      d    tot
    1  0.002  0.000  0.003  0.005
    2  0.002  0.000  0.010  0.011
    3  0.002  0.000  0.010  0.011
    4  0.002  0.000  0.010  0.011
    5  0.005  0.000  0.010  0.015
    6  0.002  0.000  0.010  0.011
    7  0.002  0.000  0.010  0.011
    8  0.002  0.000  0.009  0.011
    9  0.000  0.000  0.011  0.012
   10  0.000  0.000  0.005  0.006
   11  0.001  0.000  0.015  0.016
   12  0.000  0.000  0.006  0.006
   13  0.001  0.000  0.015  0.016
   14  0.001  0.000  0.015  0.016
   15  0.003  0.000  0.008  0.011
   16  0.000  0.000  0.006  0.006
   17  0.003  0.000  0.008  0.011
   18  0.003  0.000  0.008  0.011
   19  0.002  0.000  0.019  0.021
   20  0.001  0.001  0.023  0.026
   21  0.001  0.001  0.023  0.026
   22  0.000  0.001  0.022  0.023
   23  0.001  0.001  0.023  0.026
   24  0.000  0.001  0.022  0.023
   25  0.002  0.000  0.019  0.021
   26  0.002  0.000  0.019  0.021
   27  0.000  0.001  0.022  0.023
   28  0.011  0.000  0.036  0.048
   29  0.014  0.000  0.028  0.042
   30  0.014  0.000  0.028  0.042
   31  0.014  0.000  0.028  0.042
   32  0.014  0.000  0.028  0.042
   33  0.014  0.000  0.028  0.042
   34  0.014  0.000  0.028  0.042
   35  0.024  0.000  0.025  0.049
   36  0.012  0.000  0.004  0.016
   37  0.001  0.000  0.000  0.001
tot    0.176  0.009  0.591  0.776
 
band    17 # energy   -4.82389214 # occ.  2.00000000
 
ion      s      p      d    tot
    1  0.002  0.001  0.000  0.003
    2  0.000  0.000  0.009  0.010
    3  0.000  0.000  0.009  0.009
    4  0.000  0.000  0.009  0.009
    5  0.000  0.000  0.012  0.012
    6  0.000  0.000  0.009  0.009
    7  0.000  0.000  0.009  0.009
    8  0.000  0.000  0.009  0.009
    9  0.002  0.001  0.008  0.010
   10  0.000  0.000  0.015  0.015
   11  0.001  0.000  0.052  0.053
   12  0.000  0.000  0.014  0.014
   13  0.001  0.000  0.052  0.053
   14  0.001  0.000  0.051  0.052
   15  0.001  0.001  0.055  0.057
   16  0.000  0.000  0.014  0.015
   17  0.001  0.001  0.056  0.057
   18  0.001  0.001  0.055  0.056
   19  0.000  0.000  0.023  0.024
   20  0.001  0.000  0.055  0.056
   21  0.001  0.000  0.054  0.055
   22  0.002  0.000  0.029  0.031
   23  0.001  0.000  0.054  0.055
   24  0.002  0.000  0.028  0.031
   25  0.000  0.000  0.023  0.023
   26  0.000  0.000  0.023  0.024
   27  0.002  0.000  0.029  0.031
   28  0.007  0.001  0.000  0.008
   29  0.000  0.000  0.009  0.010
   30  0.000  0.000  0.009  0.010
   31  0.000  0.000  0.009  0.010
   32  0.000  0.000  0.009  0.010
   33  0.000  0.000  0.009  0.010
   34  0.000  0.000  0.009  0.010
   35  0.000  0.000  0.001  0.001
   36  0.001  0.000  0.007  0.009
   37  0.001  0.000  0.000  0.001
tot    0.031  0.015  0.818  0.863
 
band    18 # energy   -4.82046424 # occ.  2.00000000
 
ion      s      p      d    tot
    1  0.000  0.001  0.019  0.020
    2  0.000  0.000  0.011  0.012
    3  0.001  0.001  0.009  0.011
    4  0.001  0.000  0.005  0.006
    5  0.000  0.000  0.004  0.004
    6  0.002  0.001  0.007  0.009
    7  0.001  0.000  0.006  0.007
    8  0.000  0.000  0.010  0.010
    9  0.000  0.000  0.007  0.007
   10  0.001  0.000  0.054  0.056
   11  0.001  0.001  0.031  0.033
   12  0.000  0.000  0.059  0.060
   13  0.000  0.000  0.002  0.002
   14  0.000  0.001  0.021  0.022
   15  0.000  0.000  0.030  0.031
   16  0.002  0.000  0.052  0.054
   17  0.000  0.000  0.076  0.077
   18  0.000  0.000  0.046  0.047
   19  0.001  0.000  0.031  0.031
   20  0.000  0.001  0.017  0.018
   21  0.000  0.000  0.006  0.006
   22  0.000  0.000  0.040  0.041
   23  0.001  0.001  0.023  0.024
   24  0.002  0.000  0.044  0.046
   25  0.000  0.000  0.045  0.046
   26  0.000  0.000  0.072  0.073
   27  0.003  0.000  0.046  0.050
   28  0.000  0.000  0.007  0.008
   29  0.000  0.000  0.007  0.008
   30  0.000  0.000  0.005  0.005
   31  0.001  0.001  0.004  0.006
   32  0.001  0.000  0.004  0.005
   33  0.001  0.001  0.005  0.007
   34  0.000  0.000  0.008  0.008
   35  0.000  0.001  0.017  0.017
   36  0.000  0.000  0.000  0.000
   37  0.000  0.000  0.000  0.000
tot    0.021  0.014  0.830  0.866
 
band    19 # energy   -4.82044706 # occ.  2.00000000
 
ion      s      p      d    tot
    1  0.000  0.001  0.019  0.020
    2  0.001  0.001  0.005  0.007
    3  0.000  0.000  0.007  0.008
    4  0.000  0.001  0.011  0.012
    5  0.000  0.000  0.004  0.004
    6  0.000  0.000  0.009  0.009
    7  0.001  0.001  0.010  0.012
    8  0.002  0.001  0.006  0.008
    9  0.000  0.000  0.007  0.007
   10  0.001  0.000  0.056  0.057
   11  0.000  0.000  0.005  0.005
   12  0.002  0.000  0.051  0.054
   13  0.001  0.001  0.034  0.036
   14  0.000  0.001  0.015  0.015
   15  0.000  0.000  0.071  0.072
   16  0.000  0.000  0.059  0.059
   17  0.000  0.000  0.025  0.026
   18  0.000  0.000  0.056  0.057
   19  0.000  0.000  0.068  0.068
   20  0.000  0.001  0.013  0.014
   21  0.001  0.001  0.025  0.026
   22  0.003  0.000  0.047  0.050
   23  0.000  0.000  0.008  0.008
   24  0.001  0.000  0.043  0.044
   25  0.000  0.000  0.054  0.055
   26  0.001  0.000  0.026  0.027
   27  0.000  0.000  0.041  0.042
   28  0.000  0.000  0.007  0.008
   29  0.001  0.001  0.003  0.005
   30  0.001  0.001  0.006  0.008
   31  0.000  0.000  0.007  0.007
   32  0.001  0.000  0.007  0.008
   33  0.000  0.000  0.006  0.006
   34  0.001  0.000  0.003  0.005
   35  0.000  0.001  0.017  0.017
   36  0.000  0.000  0.000  0.000
   37  0.000  0.000  0.000  0.000
tot    0.021  0.014  0.830  0.866
 
band    20 # energy   -4.81846172 # occ.  2.00000000
 
ion      s      p      d    tot
    1  0.001  0.000  0.011  0.012
    2  0.000  0.000  0.009  0.010
    3  0.000  0.000  0.009  0.010
    4  0.000  0.000  0.009  0.010
    5  0.003  0.001  0.004  0.008
    6  0.000  0.000  0.009  0.010
    7  0.000  0.000  0.009  0.010
    8  0.000  0.000  0.009  0.010
    9  0.001  0.000  0.003  0.004
   10  0.001  0.001  0.068  0.069
   11  0.000  0.001  0.031  0.031
   12  0.001  0.001  0.067  0.069
   13  0.000  0.001  0.031  0.031
   14  0.000  0.000  0.031  0.032
   15  0.001  0.000  0.027  0.028
   16  0.001  0.001  0.067  0.069
   17  0.001  0.000  0.027  0.028
   18  0.001  0.000  0.026  0.027
   19  0.002  0.001  0.049  0.052
   20  0.001  0.000  0.019  0.021
   21  0.001  0.000  0.019  0.020
   22  0.000  0.000  0.038  0.039
   23  0.001  0.000  0.019  0.020
   24  0.000  0.000  0.038  0.039
   25  0.002  0.001  0.048  0.051
   26  0.002  0.001  0.049  0.052
   27  0.000  0.000  0.038  0.038
   28  0.001  0.000  0.004  0.005
   29  0.000  0.000  0.008  0.008
   30  0.000  0.000  0.008  0.008
   31  0.000  0.000  0.008  0.008
   32  0.000  0.000  0.008  0.008
   33  0.000  0.000  0.007  0.008
   34  0.000  0.000  0.008  0.008
   35  0.002  0.001  0.006  0.009
   36  0.002  0.000  0.001  0.003
   37  0.000  0.000  0.000  0.000
tot    0.025  0.015  0.822  0.863
 
band    21 # energy   -4.81106546 # occ.  2.00000000
 
ion      s      p      d    tot
    1  0.000  0.000  0.001  0.001
    2  0.000  0.000  0.011  0.012
    3  0.001  0.001  0.009  0.011
    4  0.001  0.001  0.005  0.007
    5  0.000  0.001  0.014  0.015
    6  0.002  0.001  0.007  0.009
    7  0.001  0.000  0.006  0.007
    8  0.000  0.000  0.010  0.011
    9  0.000  0.001  0.015  0.015
   10  0.000  0.001  0.029  0.030
   11  0.000  0.000  0.088  0.089
   12  0.000  0.001  0.024  0.025
   13  0.001  0.000  0.038  0.039
   14  0.001  0.000  0.069  0.069
   15  0.000  0.000  0.022  0.022
   16  0.000  0.000  0.033  0.033
   17  0.002  0.001  0.051  0.054
   18  0.001  0.000  0.033  0.035
   19  0.000  0.000  0.010  0.010
   20  0.001  0.000  0.053  0.054
   21  0.003  0.000  0.035  0.038
   22  0.000  0.001  0.019  0.020
   23  0.000  0.000  0.064  0.065
   24  0.000  0.000  0.033  0.033
   25  0.001  0.000  0.022  0.023
   26  0.003  0.001  0.040  0.043
   27  0.000  0.000  0.041  0.041
   28  0.000  0.000  0.010  0.011
   29  0.000  0.000  0.007  0.007
   30  0.000  0.000  0.005  0.005
   31  0.001  0.001  0.004  0.006
   32  0.001  0.000  0.004  0.005
   33  0.001  0.001  0.005  0.007
   34  0.000  0.000  0.007  0.008
   35  0.000  0.000  0.001  0.002
   36  0.000  0.001  0.003  0.004