PROCAR new format
# of k-points:   10         # of bands:  252         # of ions:   39

 k-point     1 :    0.00000000 0.00000000 0.00000000     weight = 0.01562500

band     1 # energy  -24.17773939 # occ.  2.00000000
 
ion      s      p      d    tot
    1  0.000  0.000  0.000  0.000
    2  0.000  0.000  0.000  0.000
    3  0.000  0.000  0.000  0.000
    4  0.000  0.000  0.000  0.000
    5  0.000  0.000  0.000  0.000
    6  0.000  0.000  0.000  0.000
    7  0.000  0.000  0.000  0.000
    8  0.000  0.000  0.000  0.000
    9  0.000  0.000  0.000  0.000
   10  0.000  0.000  0.000  0.000
   11  0.000  0.000  0.000  0.000
   12  0.000  0.000  0.000  0.000
   13  0.000  0.000  0.000  0.000
   14  0.000  0.000  0.000  0.000
   15  0.000  0.000  0.000  0.000
   16  0.000  0.000  0.000  0.000
   17  0.000  0.000  0.000  0.000
   18  0.000  0.000  0.000  0.000
   19  0.000  0.000  0.000  0.000
   20  0.000  0.000  0.000  0.000
   21  0.000  0.000  0.000  0.000
   22  0.000  0.000  0.000  0.000
   23  0.000  0.000  0.000  0.000
   24  0.000  0.000  0.000  0.000
   25  0.000  0.000  0.000  0.000
   26  0.000  0.000  0.000  0.000
   27  0.000  0.000  0.000  0.000
   28  0.000  0.000  0.000  0.000
   29  0.000  0.000  0.000  0.000
   30  0.000  0.000  0.000  0.000
   31  0.000  0.000  0.000  0.000
   32  0.000  0.000  0.000  0.000
   33  0.000  0.000  0.000  0.000
   34  0.000  0.000  0.000  0.000
   35  0.000  0.000  0.000  0.000
   36  0.000  0.000  0.000  0.000
   37  0.082  0.060  0.000  0.142
   38  0.724  0.009  0.000  0.733
   39  0.060  0.013  0.000  0.073
tot    0.866  0.082  0.000  0.948
 
band     2 # energy  -14.84392766 # occ.  2.00000000
 
ion      s      p      d    tot
    1  0.000  0.000  0.000  0.000
    2  0.000  0.000  0.000  0.000
    3  0.000  0.000  0.000  0.000
    4  0.000  0.000  0.000  0.000
    5  0.000  0.000  0.000  0.000
    6  0.000  0.000  0.000  0.000
    7  0.000  0.000  0.000  0.000
    8  0.000  0.000  0.000  0.000
    9  0.000  0.000  0.000  0.000
   10  0.000  0.000  0.000  0.000
   11  0.000  0.000  0.000  0.000
   12  0.000  0.000  0.000  0.000
   13  0.000  0.000  0.000  0.000
   14  0.000  0.000  0.000  0.000
   15  0.000  0.000  0.000  0.000
   16  0.000  0.000  0.000  0.000
   17  0.000  0.000  0.000  0.000
   18  0.000  0.000  0.000  0.000
   19  0.000  0.000  0.000  0.000
   20  0.000  0.000  0.000  0.000
   21  0.000  0.000  0.000  0.000
   22  0.000  0.000  0.000  0.000
   23  0.000  0.000  0.000  0.000
   24  0.000  0.000  0.000  0.000
   25  0.000  0.000  0.000  0.000
   26  0.000  0.000  0.000  0.000
   27  0.000  0.000  0.000  0.000
   28  0.000  0.000  0.000  0.000
   29  0.000  0.000  0.000  0.000
   30  0.000  0.000  0.000  0.000
   31  0.000  0.000  0.000  0.000
   32  0.000  0.000  0.000  0.000
   33  0.000  0.000  0.000  0.000
   34  0.000  0.000  0.000  0.000
   35  0.000  0.000  0.000  0.000
   36  0.003  0.002  0.004  0.009
   37  0.160  0.048  0.000  0.208
   38  0.020  0.523  0.000  0.543
   39  0.203  0.033  0.000  0.237
tot    0.387  0.607  0.004  0.998
 
band     3 # energy   -8.70118052 # occ.  2.00000000
 
ion      s      p      d    tot
    1  0.003  0.000  0.000  0.003
    2  0.003  0.000  0.000  0.003
    3  0.003  0.000  0.000  0.003
    4  0.003  0.000  0.000  0.003
    5  0.003  0.000  0.000  0.003
    6  0.003  0.000  0.000  0.003
    7  0.003  0.000  0.000  0.003
    8  0.003  0.000  0.000  0.003
    9  0.002  0.000  0.000  0.003
   10  0.013  0.000  0.000  0.013
   11  0.013  0.000  0.000  0.014
   12  0.013  0.000  0.000  0.013
   13  0.013  0.000  0.000  0.014
   14  0.013  0.000  0.000  0.014
   15  0.011  0.000  0.000  0.012
   16  0.013  0.000  0.000  0.013
   17  0.011  0.000  0.000  0.012
   18  0.011  0.000  0.000  0.012
   19  0.015  0.000  0.000  0.015
   20  0.030  0.001  0.003  0.033
   21  0.030  0.001  0.003  0.033
   22  0.015  0.000  0.000  0.016
   23  0.030  0.001  0.003  0.033
   24  0.015  0.000  0.000  0.016
   25  0.015  0.000  0.000  0.015
   26  0.015  0.000  0.000  0.015
   27  0.015  0.000  0.000  0.016
   28  0.004  0.000  0.000  0.004
   29  0.008  0.000  0.001  0.009
   30  0.008  0.000  0.001  0.009
   31  0.008  0.000  0.001  0.009
   32  0.008  0.000  0.001  0.009
   33  0.008  0.000  0.001  0.009
   34  0.008  0.000  0.001  0.009
   35  0.004  0.000  0.000  0.004
   36  0.090  0.007  0.059  0.157
   37  0.051  0.057  0.000  0.108
   38  0.003  0.018  0.000  0.021
   39  0.005  0.000  0.000  0.005
tot    0.521  0.091  0.073  0.686
 
band     4 # energy   -8.16986670 # occ.  2.00000000
 
ion      s      p      d    tot
    1  0.006  0.000  0.000  0.006
    2  0.006  0.000  0.000  0.007
    3  0.006  0.000  0.000  0.007
    4  0.006  0.000  0.000  0.007
    5  0.006  0.000  0.000  0.007
    6  0.006  0.000  0.000  0.007
    7  0.006  0.000  0.000  0.007
    8  0.006  0.000  0.000  0.007
    9  0.007  0.000  0.000  0.007
   10  0.016  0.000  0.001  0.017
   11  0.017  0.000  0.000  0.017
   12  0.016  0.000  0.001  0.017
   13  0.017  0.000  0.000  0.017
   14  0.017  0.000  0.000  0.017
   15  0.019  0.000  0.000  0.019
   16  0.016  0.000  0.001  0.017
   17  0.019  0.000  0.000  0.019
   18  0.019  0.000  0.000  0.020
   19  0.006  0.000  0.000  0.007
   20  0.001  0.002  0.005  0.008
   21  0.001  0.002  0.005  0.008
   22  0.008  0.000  0.000  0.008
   23  0.001  0.002  0.005  0.008
   24  0.008  0.000  0.000  0.008
   25  0.006  0.000  0.000  0.007
   26  0.006  0.000  0.000  0.007
   27  0.008  0.000  0.000  0.008
   28  0.000  0.000  0.000  0.001
   29  0.000  0.001  0.001  0.002
   30  0.000  0.001  0.001  0.002
   31  0.000  0.001  0.001  0.002
   32  0.000  0.001  0.001  0.002
   33  0.000  0.001  0.001  0.002
   34  0.000  0.001  0.001  0.002
   35  0.000  0.000  0.000  0.001
   36  0.078  0.027  0.111  0.216
   37  0.094  0.095  0.000  0.189
   38  0.006  0.027  0.000  0.033
   39  0.008  0.001  0.000  0.008
tot    0.446  0.165  0.140  0.751
 
band     5 # energy   -7.22680767 # occ.  2.00000000
 
ion      s      p      d    tot
    1  0.017  0.000  0.001  0.018
    2  0.015  0.000  0.001  0.016
    3  0.015  0.000  0.001  0.016
    4  0.015  0.000  0.001  0.016
    5  0.014  0.000  0.001  0.016
    6  0.015  0.000  0.001  0.016
    7  0.015  0.000  0.001  0.016
    8  0.015  0.000  0.001  0.016
    9  0.014  0.000  0.001  0.016
   10  0.008  0.001  0.002  0.011
   11  0.007  0.002  0.002  0.010
   12  0.008  0.001  0.002  0.011
   13  0.007  0.002  0.002  0.010
   14  0.007  0.002  0.002  0.010
   15  0.005  0.002  0.002  0.009
   16  0.008  0.001  0.002  0.011
   17  0.005  0.002  0.002  0.009
   18  0.005  0.002  0.002  0.009
   19  0.016  0.001  0.004  0.021
   20  0.011  0.001  0.006  0.017
   21  0.011  0.001  0.006  0.017
   22  0.020  0.001  0.004  0.025
   23  0.011  0.001  0.006  0.017
   24  0.020  0.001  0.004  0.025
   25  0.016  0.001  0.004  0.021
   26  0.016  0.001  0.004  0.021
   27  0.020  0.001  0.004  0.025
   28  0.014  0.001  0.000  0.015
   29  0.011  0.001  0.001  0.013
   30  0.011  0.001  0.001  0.013
   31  0.011  0.001  0.001  0.013
   32  0.011  0.001  0.001  0.013
   33  0.011  0.001  0.001  0.013
   34  0.011  0.001  0.001  0.013
   35  0.015  0.001  0.000  0.016
   36  0.001  0.010  0.041  0.051
   37  0.022  0.019  0.000  0.041
   38  0.001  0.004  0.000  0.006
   39  0.001  0.000  0.000  0.001
tot    0.456  0.063  0.119  0.637
 
band     6 # energy   -6.97920224 # occ.  2.00000000
 
ion      s      p      d    tot
    1  0.000  0.000  0.000  0.000
    2  0.000  0.000  0.000  0.000
    3  0.000  0.000  0.000  0.000
    4  0.000  0.000  0.000  0.000
    5  0.000  0.000  0.000  0.000
    6  0.000  0.000  0.000  0.000
    7  0.000  0.000  0.000  0.000
    8  0.000  0.000  0.000  0.000
    9  0.000  0.000  0.000  0.000
   10  0.000  0.000  0.000  0.000
   11  0.000  0.000  0.000  0.000
   12  0.000  0.000  0.000  0.000
   13  0.000  0.000  0.000  0.000
   14  0.000  0.000  0.000  0.000
   15  0.000  0.000  0.000  0.000
   16  0.000  0.000  0.000  0.000
   17  0.000  0.000  0.000  0.000
   18  0.000  0.000  0.000  0.000
   19  0.000  0.000  0.000  0.000
   20  0.000  0.000  0.001  0.001
   21  0.000  0.000  0.001  0.001
   22  0.000  0.000  0.000  0.000
   23  0.000  0.000  0.001  0.001
   24  0.000  0.000  0.000  0.000
   25  0.000  0.000  0.000  0.000
   26  0.000  0.000  0.000  0.000
   27  0.000  0.000  0.000  0.000
   28  0.000  0.000  0.000  0.000
   29  0.001  0.000  0.002  0.003
   30  0.000  0.000  0.001  0.001
   31  0.001  0.000  0.002  0.003
   32  0.001  0.000  0.002  0.003
   33  0.000  0.000  0.001  0.001
   34  0.001  0.000  0.002  0.003
   35  0.000  0.000  0.000  0.000
   36  0.000  0.003  0.026  0.028
   37  0.000  0.123  0.000  0.123
   38  0.000  0.503  0.000  0.503
   39  0.000  0.007  0.000  0.007
tot    0.005  0.637  0.037  0.679
 
band     7 # energy   -6.97903410 # occ.  2.00000000
 
ion      s      p      d    tot
    1  0.000  0.000  0.000  0.000
    2  0.000  0.000  0.000  0.000
    3  0.000  0.000  0.000  0.000
    4  0.000  0.000  0.000  0.000
    5  0.000  0.000  0.000  0.000
    6  0.000  0.000  0.000  0.000
    7  0.000  0.000  0.000  0.000
    8  0.000  0.000  0.000  0.000
    9  0.000  0.000  0.000  0.000
   10  0.000  0.000  0.000  0.000
   11  0.000  0.000  0.000  0.000
   12  0.000  0.000  0.000  0.000
   13  0.000  0.000  0.000  0.000
   14  0.000  0.000  0.000  0.000
   15  0.000  0.000  0.000  0.000
   16  0.000  0.000  0.000  0.000
   17  0.000  0.000  0.000  0.000
   18  0.000  0.000  0.000  0.000
   19  0.000  0.000  0.000  0.000
   20  0.000  0.000  0.000  0.000
   21  0.000  0.000  0.001  0.001
   22  0.000  0.000  0.000  0.000
   23  0.000  0.000  0.001  0.001
   24  0.000  0.000  0.000  0.000
   25  0.000  0.000  0.000  0.000
   26  0.000  0.000  0.000  0.000
   27  0.000  0.000  0.000  0.000
   28  0.000  0.000  0.000  0.000
   29  0.000  0.000  0.001  0.002
   30  0.001  0.000  0.002  0.004
   31  0.000  0.000  0.001  0.002
   32  0.000  0.000  0.001  0.001
   33  0.001  0.000  0.002  0.004
   34  0.000  0.000  0.001  0.001
   35  0.000  0.000  0.000  0.000
   36  0.000  0.003  0.026  0.028
   37  0.000  0.123  0.000  0.123
   38  0.000  0.503  0.000  0.503
   39  0.000  0.007  0.000  0.007
tot    0.005  0.637  0.037  0.679
 
band     8 # energy   -6.39948291 # occ.  2.00000000
 
ion      s      p      d    tot
    1  0.004  0.000  0.014  0.019
    2  0.012  0.000  0.011  0.022
    3  0.012  0.000  0.011  0.022
    4  0.012  0.000  0.011  0.022
    5  0.008  0.000  0.009  0.016
    6  0.012  0.000  0.011  0.022
    7  0.012  0.000  0.011  0.022
    8  0.012  0.000  0.011  0.022
    9  0.028  0.000  0.006  0.035
   10  0.010  0.001  0.011  0.021
   11  0.009  0.002  0.007  0.019
   12  0.010  0.001  0.011  0.021
   13  0.009  0.002  0.007  0.019
   14  0.009  0.002  0.007  0.019
   15  0.001  0.001  0.011  0.013
   16  0.010  0.001  0.011  0.021
   17  0.001  0.001  0.011  0.013
   18  0.001  0.001  0.011  0.013
   19  0.001  0.001  0.010  0.012
   20  0.016  0.002  0.010  0.028
   21  0.016  0.002  0.010  0.028
   22  0.002  0.001  0.004  0.007
   23  0.016  0.002  0.010  0.028
   24  0.002  0.001  0.004  0.007
   25  0.001  0.001  0.010  0.012
   26  0.001  0.001  0.010  0.012
   27  0.002  0.001  0.004  0.007
   28  0.013  0.000  0.004  0.017
   29  0.012  0.000  0.009  0.021
   30  0.012  0.000  0.009  0.021
   31  0.012  0.000  0.009  0.021
   32  0.012  0.000  0.009  0.021
   33  0.012  0.000  0.009  0.021
   34  0.012  0.000  0.009  0.021
   35  0.020  0.000  0.005  0.025
   36  0.002  0.003  0.010  0.014
   37  0.000  0.000  0.000  0.000
   38  0.000  0.000  0.000  0.000
   39  0.000  0.000  0.000  0.000
tot    0.334  0.027  0.323  0.685
 
band     9 # energy   -6.38710150 # occ.  2.00000000
 
ion      s      p      d    tot
    1  0.000  0.000  0.008  0.008
    2  0.003  0.001  0.003  0.007
    3  0.006  0.001  0.003  0.009
    4  0.003  0.001  0.003  0.007
    5  0.000  0.001  0.006  0.007
    6  0.000  0.000  0.002  0.003
    7  0.006  0.001  0.003  0.009
    8  0.000  0.000  0.002  0.003
    9  0.000  0.000  0.001  0.001
   10  0.000  0.000  0.033  0.033
   11  0.036  0.002  0.014  0.051
   12  0.027  0.002  0.012  0.041
   13  0.036  0.001  0.014  0.052
   14  0.000  0.004  0.024  0.028
   15  0.001  0.001  0.009  0.011
   16  0.026  0.002  0.012  0.041
   17  0.001  0.001  0.009  0.011
   18  0.000  0.003  0.005  0.008
   19  0.008  0.001  0.010  0.019
   20  0.000  0.002  0.036  0.038
   21  0.051  0.001  0.018  0.070
   22  0.012  0.001  0.010  0.023
   23  0.050  0.001  0.018  0.070
   24  0.000  0.000  0.027  0.027
   25  0.000  0.004  0.003  0.007
   26  0.008  0.001  0.011  0.019
   27  0.012  0.001  0.010  0.023
   28  0.000  0.000  0.001  0.001
   29  0.000  0.000  0.002  0.002
   30  0.005  0.001  0.003  0.010
   31  0.000  0.000  0.002  0.002
   32  0.005  0.001  0.004  0.011
   33  0.005  0.001  0.003  0.010
   34  0.005  0.001  0.004  0.010
   35  0.000  0.000  0.004  0.004
   36  0.000  0.003  0.009  0.012
   37  0.000  0.000  0.000  0.000
   38  0.000  0.001  0.000  0.001
   39  0.000  0.000  0.000  0.000
tot    0.307  0.045  0.341  0.693
 
band    10 # energy   -6.38707892 # occ.  2.00000000
 
ion      s      p      d    tot
    1  0.000  0.000  0.008  0.008
    2  0.003  0.001  0.002  0.006
    3  0.001  0.000  0.003  0.004
    4  0.003  0.001  0.002  0.006
    5  0.000  0.001  0.006  0.007
    6  0.006  0.001  0.003  0.010
    7  0.001  0.000  0.003  0.004
    8  0.006  0.001  0.003  0.010
    9  0.000  0.000  0.001  0.001
   10  0.036  0.002  0.005  0.043
   11  0.012  0.003  0.021  0.036
   12  0.009  0.001  0.026  0.035
   13  0.012  0.003  0.021  0.035
   14  0.048  0.001  0.011  0.060
   15  0.000  0.002  0.006  0.009
   16  0.009  0.001  0.026  0.035
   17  0.000  0.002  0.006  0.009
   18  0.001  0.000  0.011  0.012
   19  0.003  0.003  0.005  0.011
   20  0.068  0.001  0.012  0.080
   21  0.016  0.002  0.030  0.049
   22  0.004  0.001  0.021  0.026
   23  0.017  0.002  0.030  0.049
   24  0.016  0.002  0.005  0.022
   25  0.010  0.000  0.013  0.023
   26  0.002  0.003  0.005  0.011
   27  0.004  0.001  0.021  0.026
   28  0.000  0.000  0.001  0.001
   29  0.007  0.001  0.004  0.013
   30  0.002  0.001  0.003  0.005
   31  0.007  0.001  0.004  0.013
   32  0.002  0.000  0.002  0.005
   33  0.002  0.001  0.003  0.005
   34  0.002  0.000  0.002  0.005
   35  0.000  0.000  0.004  0.004
   36  0.000  0.003  0.009  0.012
   37  0.000  0.000  0.000  0.000
   38  0.000  0.001  0.000  0.001
   39  0.000  0.000  0.000  0.000
tot    0.307  0.045  0.341  0.693
 
band    11 # energy   -6.35214409 # occ.  2.00000000
 
ion      s      p      d    tot
    1  0.016  0.000  0.008  0.024
    2  0.008  0.000  0.010  0.018
    3  0.008  0.000  0.010  0.018
    4  0.008  0.000  0.010  0.018
    5  0.006  0.000  0.011  0.017
    6  0.008  0.000  0.010  0.018
    7  0.008  0.000  0.010  0.018
    8  0.008  0.000  0.010  0.018
    9  0.004  0.000  0.010  0.015
   10  0.001  0.000  0.028  0.029
   11  0.007  0.000  0.021  0.028
   12  0.001  0.000  0.028  0.029
   13  0.007  0.000  0.021  0.028
   14  0.007  0.000  0.021  0.028
   15  0.012  0.000  0.018  0.030
   16  0.001  0.000  0.028  0.029
   17  0.012  0.000  0.018  0.030
   18  0.012  0.000  0.018  0.030
   19  0.008  0.000  0.015  0.024
   20  0.008  0.000  0.028  0.036
   21  0.008  0.000  0.028  0.036
   22  0.000  0.000  0.018  0.019
   23  0.008  0.000  0.028  0.036
   24  0.000  0.000  0.018  0.019
   25  0.008  0.000  0.015  0.024
   26  0.008  0.000  0.015  0.024
   27  0.000  0.000  0.018  0.019
   28  0.002  0.000  0.004  0.006
   29  0.005  0.000  0.006  0.011
   30  0.005  0.000  0.006  0.011
   31  0.005  0.000  0.006  0.011
   32  0.005  0.000  0.006  0.011
   33  0.005  0.000  0.006  0.011
   34  0.005  0.000  0.006  0.011
   35  0.009  0.000  0.003  0.012
   36  0.002  0.002  0.007  0.011
   37  0.000  0.000  0.000  0.000
   38  0.000  0.000  0.000  0.000
   39  0.000  0.000  0.000  0.000
tot    0.223  0.007  0.527  0.756
 
band    12 # energy   -6.31968604 # occ.  2.00000000
 
ion      s      p      d    tot
    1  0.000  0.000  0.001  0.001
    2  0.002  0.001  0.007  0.009
    3  0.001  0.001  0.007  0.009
    4  0.002  0.001  0.007  0.009
    5  0.024  0.002  0.000  0.025
    6  0.002  0.001  0.007  0.009
    7  0.001  0.001  0.007  0.009
    8  0.002  0.001  0.007  0.009
    9  0.002  0.001  0.006  0.009
   10  0.007  0.002  0.013  0.023
   11  0.021  0.002  0.008  0.031
   12  0.007  0.002  0.013  0.023
   13  0.021  0.002  0.008  0.031
   14  0.021  0.002  0.008  0.031
   15  0.016  0.000  0.024  0.040
   16  0.007  0.002  0.013  0.023
   17  0.016  0.000  0.024  0.040
   18  0.016  0.000  0.024  0.040
   19  0.020  0.001  0.012  0.032
   20  0.012  0.002  0.012  0.025
   21  0.012  0.002  0.012  0.026
   22  0.000  0.001  0.020  0.022
   23  0.012  0.002  0.012  0.026
   24  0.000  0.001  0.020  0.022
   25  0.020  0.001  0.012  0.032
   26  0.020  0.001  0.012  0.032
   27  0.000  0.001  0.020  0.022
   28  0.002  0.001  0.005  0.008
   29  0.002  0.000  0.006  0.009
   30  0.002  0.000  0.006  0.009
   31  0.002  0.000  0.006  0.009
   32  0.002  0.000  0.006  0.009
   33  0.002  0.000  0.006  0.009
   34  0.002  0.000  0.006  0.009
   35  0.004  0.000  0.000  0.004
   36  0.005  0.004  0.015  0.024
   37  0.004  0.003  0.000  0.007
   38  0.000  0.001  0.000  0.001
   39  0.000  0.000  0.000  0.000
tot    0.293  0.044  0.370  0.707
 
band    13 # energy   -6.29513990 # occ.  2.00000000
 
ion      s      p      d    tot
    1  0.000  0.001  0.003  0.004
    2  0.004  0.001  0.004  0.010
    3  0.008  0.001  0.004  0.013
    4  0.005  0.001  0.004  0.010
    5  0.000  0.000  0.005  0.005
    6  0.001  0.000  0.003  0.004
    7  0.008  0.001  0.004  0.014
    8  0.001  0.000  0.003  0.004
    9  0.000  0.001  0.011  0.013
   10  0.026  0.000  0.016  0.042
   11  0.002  0.001  0.021  0.025
   12  0.006  0.004  0.007  0.016
   13  0.002  0.001  0.021  0.025
   14  0.009  0.001  0.007  0.017
   15  0.016  0.001  0.033  0.050
   16  0.006  0.003  0.007  0.016
   17  0.015  0.001  0.034  0.050
   18  0.065  0.002  0.006  0.072
   19  0.010  0.001  0.027  0.038
   20  0.000  0.001  0.014  0.015
   21  0.000  0.002  0.011  0.013
   22  0.009  0.003  0.015  0.028
   23  0.000  0.002  0.011  0.013
   24  0.034  0.001  0.012  0.047
   25  0.038  0.002  0.003  0.043
   26  0.010  0.001  0.027  0.038
   27  0.010  0.003  0.015  0.028
   28  0.000  0.000  0.006  0.006
   29  0.000  0.000  0.002  0.002
   30  0.002  0.000  0.002  0.004
   31  0.000  0.000  0.002  0.002
   32  0.004  0.001  0.002  0.007
   33  0.002  0.000  0.002  0.004
   34  0.004  0.001  0.002  0.007
   35  0.000  0.001  0.004  0.004
   36  0.000  0.000  0.001  0.001
   37  0.000  0.000  0.000  0.000
   38  0.000  0.002  0.000  0.002
   39  0.000  0.000  0.000  0.000
tot    0.297  0.043  0.353  0.693
 
band    14 # energy   -6.29510895 # occ.  2.00000000
 
ion      s      p      d    tot
    1  0.000  0.001  0.003  0.004
    2  0.004  0.001  0.003  0.009
    3  0.001  0.000  0.004  0.005
    4  0.004  0.001  0.003  0.009
    5  0.000  0.000  0.005  0.005
    6  0.008  0.001  0.004  0.014
    7  0.001  0.000  0.004  0.005
    8  0.008  0.001  0.004  0.014
    9  0.000  0.001  0.011  0.013
   10  0.000  0.005  0.003  0.008
   11  0.007  0.001  0.012  0.020
   12  0.019  0.001  0.013  0.033
   13  0.007  0.001  0.012  0.020
   14  0.000  0.001  0.025  0.027
   15  0.047  0.001  0.015  0.064
   16  0.018  0.001  0.013  0.033
   17  0.048  0.001  0.015  0.064
   18  0.000  0.001  0.043  0.044
   19  0.029  0.002  0.011  0.042
   20  0.000  0.002  0.010  0.013
   21  0.000  0.001  0.013  0.014
   22  0.027  0.001  0.013  0.041
   23  0.000  0.001  0.013  0.014
   24  0.000  0.004  0.017  0.021
   25  0.000  0.000  0.035  0.035
   26  0.029  0.002  0.011  0.042
   27  0.026  0.001  0.013  0.041
   28  0.000  0.000  0.006  0.006
   29  0.004  0.001  0.002  0.007
   30  0.002  0.000  0.003  0.005
   31  0.004  0.001  0.002  0.007
   32  0.000  0.000  0.001  0.002
   33  0.002  0.000  0.003  0.005
   34  0.000  0.000  0.001  0.002
   35  0.000  0.001  0.004  0.004
   36  0.000  0.000  0.001  0.001
   37  0.000  0.000  0.000  0.000
   38  0.000  0.002  0.000  0.002
   39  0.000  0.000  0.000  0.000
tot    0.297  0.043  0.353  0.693
 
band    15 # energy   -6.29484102 # occ.  2.00000000
 
ion      s      p      d    tot
    1  0.017  0.002  0.001  0.019
    2  0.000  0.000  0.005  0.005
    3  0.000  0.001  0.005  0.005
    4  0.000  0.000  0.005  0.005
    5  0.001  0.000  0.002  0.003
    6  0.000  0.001  0.005  0.006
    7  0.000  0.001  0.005  0.005
    8  0.000  0.001  0.005  0.006
    9  0.002  0.001  0.000  0.003
   10  0.020  0.001  0.012  0.032
   11  0.002  0.000  0.023  0.026
   12  0.021  0.001  0.011  0.033
   13  0.002  0.000  0.023  0.026
   14  0.002  0.000  0.024  0.027
   15  0.012  0.003  0.004  0.019
   16  0.021  0.001  0.011  0.033
   17  0.012  0.003  0.004  0.019
   18  0.011  0.003  0.004  0.018
   19  0.004  0.002  0.008  0.015
   20  0.000  0.001  0.025  0.026
   21  0.000  0.001  0.026  0.027
   22  0.026  0.002  0.010  0.038
   23  0.000  0.001  0.026  0.027
   24  0.028  0.002  0.010  0.040
   25  0.005  0.002  0.008  0.015
   26  0.004  0.002  0.008  0.014
   27  0.026  0.002  0.010  0.039
   28  0.020  0.000  0.004  0.025
   29  0.008  0.000  0.008  0.016
   30  0.008  0.000  0.008  0.016
   31  0.008  0.000  0.008  0.016
   32  0.008  0.000  0.008  0.016
   33  0.008  0.000  0.008  0.016
   34  0.008  0.000  0.008  0.016
   35  0.000  0.001  0.012  0.013
   36  0.002  0.003  0.022  0.028
   37  0.006  0.005  0.000  0.012
   38  0.000  0.001  0.000  0.001
   39  0.000  0.000  0.000  0.000
tot    0.296  0.044  0.369  0.708
 
band    16 # energy   -5.89717528 # occ.  2.00000000
 
ion      s      p      d    tot
    1  0.000  0.001  0.004  0.005
    2  0.001  0.001  0.005  0.007
    3  0.009  0.001  0.004  0.015
    4  0.001  0.001  0.005  0.007
    5  0.000  0.001  0.010  0.011
    6  0.004  0.001  0.004  0.009
    7  0.009  0.001  0.004  0.015
    8  0.004  0.001  0.004  0.009
    9  0.000  0.000  0.009  0.009
   10  0.000  0.001  0.050  0.051
   11  0.018  0.001  0.020  0.039
   12  0.007  0.001  0.019  0.027
   13  0.018  0.001  0.020  0.038
   14  0.000  0.000  0.049  0.049
   15  0.002  0.000  0.019  0.021
   16  0.007  0.001  0.019  0.028
   17  0.002  0.000  0.019  0.022
   18  0.000  0.001  0.011  0.013
   19  0.003  0.000  0.017  0.021
   20  0.000  0.000  0.081  0.081
   21  0.015  0.001  0.024  0.041
   22  0.003  0.001  0.018  0.023
   23  0.015  0.001  0.025  0.041
   24  0.000  0.001  0.032  0.033
   25  0.000  0.001  0.010  0.011
   26  0.004  0.000  0.017  0.021
   27  0.003  0.001  0.018  0.023
   28  0.000  0.000  0.007  0.008
   29  0.004  0.001  0.005  0.009
   30  0.009  0.001  0.005  0.015
   31  0.004  0.001  0.005  0.009
   32  0.001  0.001  0.004  0.005
   33  0.009  0.001  0.005  0.015
   34  0.001  0.001  0.004  0.005
   35  0.000  0.000  0.002  0.003
   36  0.000  0.003  0.009  0.012
   37  0.000  0.000  0.000  0.000
   38  0.000  0.000  0.000  0.000
   39  0.000  0.000  0.000  0.000
tot    0.155  0.031  0.563  0.749
 
band    17 # energy   -5.89717080 # occ.  2.00000000
 
ion      s      p      d    tot
    1  0.000  0.001  0.004  0.005
    2  0.009  0.001  0.004  0.014
    3  0.000  0.000  0.004  0.005
    4  0.009  0.001  0.004  0.014
    5  0.000  0.001  0.010  0.011
    6  0.005  0.001  0.005  0.012
    7  0.000  0.000  0.004  0.005
    8  0.006  0.001  0.005  0.012
    9  0.000  0.000  0.009  0.009
   10  0.009  0.002  0.008  0.020
   11  0.006  0.000  0.039  0.046
   12  0.002  0.001  0.040  0.043
   13  0.006  0.000  0.039  0.046
   14  0.024  0.001  0.010  0.035
   15  0.001  0.001  0.014  0.016
   16  0.002  0.001  0.039  0.043
   17  0.001  0.001  0.014  0.016
   18  0.002  0.000  0.022  0.025
   19  0.001  0.001  0.012  0.014
   20  0.020  0.001  0.006  0.027
   21  0.005  0.000  0.063  0.068
   22  0.001  0.001  0.027  0.029
   23  0.005  0.000  0.062  0.067
   24  0.004  0.001  0.014  0.020
   25  0.005  0.000  0.020  0.025
   26  0.001  0.001  0.012  0.014
   27  0.001  0.001  0.027  0.029
   28  0.000  0.000  0.007  0.008
   29  0.006  0.001  0.004  0.011
   30  0.000  0.000  0.004  0.005
   31  0.006  0.001  0.004  0.011
   32  0.008  0.001  0.005  0.014
   33  0.000  0.000  0.004  0.005
   34  0.008  0.001  0.005  0.014
   35  0.000  0.000  0.002  0.003
   36  0.000  0.003  0.009  0.012
   37  0.000  0.000  0.000  0.000
   38  0.000  0.000  0.000  0.000
   39  0.000  0.000  0.000  0.000
tot    0.155  0.031  0.563  0.749
 
band    18 # energy   -5.89128862 # occ.  2.00000000
 
ion      s      p      d    tot
    1  0.017  0.002  0.002  0.021
    2  0.000  0.001  0.007  0.008
    3  0.000  0.001  0.007  0.008
    4  0.000  0.001  0.007  0.008
    5  0.001  0.000  0.002  0.003
    6  0.000  0.001  0.007  0.008
    7  0.000  0.001  0.007  0.008
    8  0.000  0.001  0.007  0.008
    9  0.009  0.001  0.000  0.010
   10  0.008  0.001  0.010  0.020
   11  0.006  0.000  0.035  0.041
   12  0.008  0.001  0.010  0.020
   13  0.006  0.000  0.035  0.041
   14  0.006  0.000  0.035  0.041
   15  0.001  0.001  0.030  0.031
   16  0.008  0.001  0.010  0.020
   17  0.001  0.001  0.030  0.031
   18  0.001  0.001  0.029  0.031
   19  0.007  0.001  0.006  0.014
   20  0.000  0.000  0.051  0.051
   21  0.000  0.000  0.051  0.051
   22  0.010  0.001  0.029  0.040
   23  0.000  0.000  0.051  0.051
   24  0.010  0.001  0.029  0.040
   25  0.007  0.001  0.006  0.014
   26  0.007  0.001  0.006  0.014
   27  0.010  0.001  0.029  0.040
   28  0.017  0.001  0.000  0.018
   29  0.000  0.001  0.008  0.009
   30  0.000  0.001  0.008  0.009
   31  0.000  0.001  0.008  0.009
   32  0.000  0.001  0.008  0.009
   33  0.000  0.001  0.008  0.009
   34  0.000  0.001  0.008  0.009
   35  0.002  0.001  0.004  0.007
   36  0.003  0.001  0.003  0.006
   37  0.000  0.000  0.000  0.000
   38  0.000  0.000  0.000  0.000
   39  0.000  0.000  0.000  0.000
tot    0.146  0.028  0.582  0.756
 
band    19 # energy   -5.81801725 # occ.  2.00000000
 
ion      s      p      d    tot
    1  0.000  0.001  0.015  0.016
    2  0.001  0.001  0.005  0.007
    3  0.009  0.001  0.005  0.015
    4  0.000  0.000  0.005  0.006
    5  0.000  0.000  0.006  0.006
    6  0.005  0.001  0.005  0.010
    7  0.009  0.001  0.005  0.015
    8  0.006  0.001  0.005  0.011
    9  0.000  0.001  0.006  0.007
   10  0.011  0.000  0.018  0.029
   11  0.000  0.001  0.017  0.018
   12  0.003  0.001  0.029  0.032
   13  0.000  0.001  0.018  0.019
   14  0.000  0.001  0.021  0.022
   15  0.003  0.001  0.049  0.052
   16  0.002  0.001  0.030  0.033
   17  0.004  0.001  0.045  0.050
   18  0.013  0.002  0.006  0.022
   19  0.004  0.001  0.053  0.058
   20  0.000  0.000  0.025  0.025
   21  0.000  0.001  0.023  0.024
   22  0.006  0.001  0.026  0.033
   23  0.000  0.001  0.022  0.024
   24  0.022  0.001  0.017  0.040
   25  0.020  0.001  0.004  0.025
   26  0.006  0.001  0.049  0.055
   27  0.005  0.001  0.027  0.032
   28  0.000  0.001  0.005  0.006
   29  0.002  0.000  0.004  0.006
   30  0.007  0.001  0.002  0.010
   31  0.001  0.000  0.004  0.006
   32  0.002  0.001  0.005  0.008
   33  0.007  0.001  0.003  0.010
   34  0.002  0.001  0.005  0.008
   35  0.000  0.001  0.008  0.009
   36  0.000  0.000  0.003  0.003
   37  0.000  0.000  0.000  0.000
   38  0.000  0.000  0.000  0.000
   39  0.000  0.000  0.000  0.000
tot    0.149  0.029  0.572  0.750
 
band    20 # energy   -5.81801650 # occ.  2.00000000
 
ion      s      p      d    tot
    1  0.000  0.001  0.015  0.016
    2  0.009  0.001  0.004  0.015
    3  0.001  0.000  0.005  0.007
    4  0.010  0.001  0.004  0.015
    5  0.000  0.000  0.006  0.006
    6  0.005  0.001  0.005  0.011
    7  0.001  0.000  0.005  0.006
    8  0.004  0.001  0.005  0.010
    9  0.000  0.001  0.006  0.007
   10  0.000  0.001  0.033  0.034
   11  0.000  0.001  0.020  0.021
   12  0.008  0.000  0.022  0.030
   13  0.000  0.001  0.019  0.021
   14  0.000  0.001  0.016  0.017
   15  0.010  0.002  0.018  0.030
   16  0.009  0.000  0.021  0.030
   17  0.009  0.002  0.022  0.033
   18  0.000  0.000  0.061  0.061
   19  0.015  0.001  0.017  0.034
   20  0.000  0.002  0.022  0.023
   21  0.000  0.001  0.024  0.025
   22  0.016  0.001  0.021  0.037
   23  0.000  0.001  0.024  0.025
   24  0.000  0.001  0.029  0.030
   25  0.000  0.000  0.066  0.067
   26  0.014  0.001  0.022  0.037
   27  0.018  0.001  0.020  0.038
   28  0.000  0.001  0.005  0.006
   29  0.005  0.001  0.004  0.010
   30  0.000  0.000  0.005  0.006
   31  0.006  0.001  0.004  0.010
   32  0.005  0.001  0.003  0.008
   33  0.000  0.000  0.005  0.006
   34  0.004  0.001  0.003  0.008
   35  0.000  0.001  0.008  0.009
   36  0.000  0.000  0.003  0.003
   37  0.000  0.000  0.000  0.000
   38  0.000  0.000  0.000  0.000
   39  0.000  0.000  0.000  0.000