 vasp.6.2.0 18Jan21 (build Jun 12 2021 23:27:24) complex                        
  
 executed on             LinuxIFC date 2022.05.26  20:11:59
 running on   28 total cores
 distrk:  each k-point on   28 cores,    1 groups
 distr:  one band on NCORE=   1 cores,   28 groups


--------------------------------------------------------------------------------------------------------


 INCAR:
   ISMEAR = -5
   SIGMA = 0.1
   ISPIN = 1
   EDIFF = 1.d-5
   EDIFFG = -0.01
   NSW = 0
   NELM = 150
   ENCUT = 500
   ISIF = 2
   IBRION = 2
   LREAL = Auto
   ALGO = Fast
   ICHARG = 11
   LORBIT = 10
   LCHARG = .F.
   LWAVE = .F.

 POTCAR:    PAW_PBE Au 04Oct2007                  
 POTCAR:    PAW_PBE Fe 06Sep2000                  
 -----------------------------------------------------------------------------
|                                                                             |
|           W    W    AA    RRRRR   N    N  II  N    N   GGGG   !!!           |
|           W    W   A  A   R    R  NN   N  II  NN   N  G    G  !!!           |
|           W    W  A    A  R    R  N N  N  II  N N  N  G       !!!           |
|           W WW W  AAAAAA  RRRRR   N  N N  II  N  N N  G  GGG   !            |
|           WW  WW  A    A  R   R   N   NN  II  N   NN  G    G                |
|           W    W  A    A  R    R  N    N  II  N    N   GGGG   !!!           |
|                                                                             |
|     For optimal performance we recommend to set                             |
|       NCORE = 2 up to number-of-cores-per-socket                            |
|     NCORE specifies how many cores store one orbital (NPAR=cpu/NCORE).      |
|     This setting can greatly improve the performance of VASP for DFT.       |
|     The default, NCORE=1 might be grossly inefficient on modern             |
|     multi-core architectures or massively parallel machines. Do your        |
|     own testing! More info at https://www.vasp.at/wiki/index.php/NCORE      |
|     Unfortunately you need to use the default for GW and RPA                |
|     calculations (for HF NCORE is supported but not extensively tested      |
|     yet).                                                                   |
|                                                                             |
 -----------------------------------------------------------------------------

 POTCAR:    PAW_PBE Au 04Oct2007                  
   VRHFIN =Au: s1d10                                                                                
   LEXCH  = PE                                                                                      
   EATOM  =   926.0867 eV,   68.0654 Ry                                                             
                                                                                                    
   TITEL  = PAW_PBE Au 04Oct2007                                                                    
   LULTRA =        F    use ultrasoft PP ?                                                          
   IUNSCR =        1    unscreen: 0-lin 1-nonlin 2-no                                               
   RPACOR =    2.330    partial core radius                                                         
   POMASS =  196.966; ZVAL   =   11.000    mass and valenz                                          
   RCORE  =    2.500    outmost cutoff radius                                                       
   RWIGS  =    2.840; RWIGS  =    1.503    wigner-seitz radius (au A)                               
   ENMAX  =  229.943; ENMIN  =  172.457 eV                                                          
   ICORE  =        3    local potential                                                             
   LCOR   =        T    correct aug charges                                                         
   LPAW   =        T    paw PP                                                                      
   EAUG   =  356.670                                                                                
   DEXC   =    0.000                                                                                
   RMAX   =    2.562    core radius for proj-oper                                                   
   RAUG   =    1.300    factor for augmentation sphere                                              
   RDEP   =    2.598    radius for radial grids                                                     
   RDEPT  =    2.193    core radius for aug-charge                                                  
                                                                                                    
   Atomic configuration                                                                             
   16 entries                                                                                       
     n  l   j            E        occ.                                                              
     1  0  0.50    -80748.5001   2.0000                                                             
     2  0  0.50    -14244.7466   2.0000                                                             
     2  1  1.50    -12310.9591   6.0000                                                             
     3  0  0.50     -3362.1768   2.0000                                                             
     3  1  1.50     -2801.5463   6.0000                                                             
     3  2  2.50     -2203.8206  10.0000                                                             
     4  0  0.50      -729.8168   2.0000                                                             
     4  1  1.50      -546.0527   6.0000                                                             
     4  2  2.50      -325.7302  10.0000                                                             
     4  3  3.50       -81.1472  14.0000                                                             
     5  0  0.50      -108.3201   2.0000                                                             
     5  1  1.50       -59.7479   6.0000                                                             
     5  2  2.50        -6.8783  10.0000                                                             
     6  0  0.50        -5.7602   1.0000                                                             
     6  1  1.50        -6.8029   0.0000                                                             
     5  3  2.50        -1.3606   0.0000                                                             
   Description                                                                                      
     l       E           TYP  RCUT    TYP  RCUT                                                     
     2     -6.8782861     23  2.500                                                                 
     2     -8.2388687     23  2.500                                                                 
     0     -5.7601759     23  2.500                                                                 
     0     -0.8493231     23  2.500                                                                 
     1     -2.7211652     23  2.500                                                                 
     1     27.2116520     23  2.500                                                                 
     3     -1.3605826     23  2.500                                                                 
  local pseudopotential read in
  partial core-charges read in
  partial kinetic energy density read in
  atomic valenz-charges read in
  non local Contribution for L=           2  read in
    real space projection operators read in
  non local Contribution for L=           2  read in
    real space projection operators read in
  non local Contribution for L=           0  read in
    real space projection operators read in
  non local Contribution for L=           0  read in
    real space projection operators read in
  non local Contribution for L=           1  read in
    real space projection operators read in
  non local Contribution for L=           1  read in
    real space projection operators read in
    PAW grid and wavefunctions read in
 
   number of l-projection  operators is LMAX  =           6
   number of lm-projection operators is LMMAX =          18
 
 POTCAR:    PAW_PBE Fe 06Sep2000                  
   VRHFIN =Fe:  d7 s1                                                                               
   LEXCH  = PE                                                                                      
   EATOM  =   594.3153 eV,   43.6809 Ry                                                             
                                                                                                    
   TITEL  = PAW_PBE Fe 06Sep2000                                                                    
   LULTRA =        F    use ultrasoft PP ?                                                          
   IUNSCR =        1    unscreen: 0-lin 1-nonlin 2-no                                               
   RPACOR =    2.000    partial core radius                                                         
   POMASS =   55.847; ZVAL   =    8.000    mass and valenz                                          
   RCORE  =    2.300    outmost cutoff radius                                                       
   RWIGS  =    2.460; RWIGS  =    1.302    wigner-seitz radius (au A)                               
   ENMAX  =  267.882; ENMIN  =  200.911 eV                                                          
   RCLOC  =    1.701    cutoff for local pot                                                        
   LCOR   =        T    correct aug charges                                                         
   LPAW   =        T    paw PP                                                                      
   EAUG   =  511.368                                                                                
   DEXC   =    0.000                                                                                
   RMAX   =    2.356    core radius for proj-oper                                                   
   RAUG   =    1.300    factor for augmentation sphere                                              
   RDEP   =    2.442    radius for radial grids                                                     
   RDEPT  =    1.890    core radius for aug-charge                                                  
                                                                                                    
   Atomic configuration                                                                             
    9 entries                                                                                       
     n  l   j            E        occ.                                                              
     1  0  0.50     -6993.8440   2.0000                                                             
     2  0  0.50      -814.6047   2.0000                                                             
     2  1  1.50      -693.3689   6.0000                                                             
     3  0  0.50       -89.4732   2.0000                                                             
     3  1  1.50       -55.6373   6.0000                                                             
     3  2  2.50        -3.8151   7.0000                                                             
     4  0  0.50        -4.2551   1.0000                                                             
     4  1  1.50        -3.4015   0.0000                                                             
     4  3  2.50        -1.3606   0.0000                                                             
   Description                                                                                      
     l       E           TYP  RCUT    TYP  RCUT                                                     
     2     -3.8151135     23  2.300                                                                 
     2     -5.1756961     23  2.300                                                                 
     0     -4.2550963     23  2.300                                                                 
     0      7.2035603     23  2.300                                                                 
     1     -2.7211652     23  2.300                                                                 
     1     18.4316424     23  2.300                                                                 
  local pseudopotential read in
  partial core-charges read in
  partial kinetic energy density read in
  atomic valenz-charges read in
  non local Contribution for L=           2  read in
    real space projection operators read in
  non local Contribution for L=           2  read in
    real space projection operators read in
  non local Contribution for L=           0  read in
    real space projection operators read in
  non local Contribution for L=           0  read in
    real space projection operators read in
  non local Contribution for L=           1  read in
    real space projection operators read in
  non local Contribution for L=           1  read in
    real space projection operators read in
    PAW grid and wavefunctions read in
 
   number of l-projection  operators is LMAX  =           6
   number of lm-projection operators is LMMAX =          18
 
 Optimization of the real space projectors (new method)

 maximal supplied QI-value         = 15.12
 optimisation between [QCUT,QGAM] = [ 11.34, 22.83] = [ 36.00,145.93] Ry 
 Optimized for a Real-space Cutoff    1.39 Angstroem

   l    n(q)    QCUT    max X(q) W(low)/X(q) W(high)/X(q)  e(spline) 
   2      9    11.338    60.898    0.39E-03    0.42E-03    0.21E-06
   2      9    11.338    58.894    0.40E-03    0.42E-03    0.22E-06
   0      9    11.338   109.617    0.13E-03    0.20E-04    0.13E-06
   0      9    11.338    75.026    0.13E-03    0.20E-04    0.13E-06
   1      9    11.338    16.344    0.33E-04    0.24E-03    0.18E-06
   1      9    11.338    10.160    0.26E-04    0.19E-03    0.15E-06
 Optimization of the real space projectors (new method)

 maximal supplied QI-value         = 16.25
 optimisation between [QCUT,QGAM] = [ 11.38, 22.75] = [ 36.24,144.96] Ry 
 Optimized for a Real-space Cutoff    1.39 Angstroem

   l    n(q)    QCUT    max X(q) W(low)/X(q) W(high)/X(q)  e(spline) 
   2      8    11.376    80.901    0.45E-03    0.44E-04    0.21E-06
   2      8    11.376    75.754    0.45E-03    0.45E-04    0.22E-06
   0      9    11.376    58.752    0.65E-04    0.95E-04    0.17E-06
   0      9    11.376    30.679    0.59E-04    0.87E-04    0.16E-06
   1      9    11.376    17.977    0.38E-03    0.10E-03    0.14E-06
   1      9    11.376    13.559    0.31E-03    0.90E-04    0.12E-06
  PAW_PBE Au 04Oct2007                  :
 energy of atom  1       EATOM= -926.0867
 kinetic energy error for atom=    0.0042 (will be added to EATOM!!)
  PAW_PBE Fe 06Sep2000                  :
 energy of atom  2       EATOM= -594.3153
 kinetic energy error for atom=    0.0026 (will be added to EATOM!!)
 
 
 POSCAR: Au-Fe
  positions in direct lattice
  velocities in cartesian coordinates
 exchange correlation table for  LEXCH =        8
   RHO(1)=    0.500       N(1)  =     2000
   RHO(2)=  100.500       N(2)  =     4000

 VTST: version 3.2, (02/03/18)

 CHAIN: initializing optimizer
 
 OPT: Using VASP Conjugate-Gradient optimizer
 CHAIN: Read ICHAIN            0
 
 POSCAR: Au-Fe
  positions in direct lattice
  velocities in cartesian coordinates
 


--------------------------------------------------------------------------------------------------------


 ion  position               nearest neighbor table
   1  0.000  0.000  0.238-  16 2.94  12 2.94   6 2.94   8 2.94   7 2.94   3 2.94  10 2.94   4 2.94
                             2 2.94
   2  0.333  0.000  0.238-   9 2.94  11 2.94  17 2.94  10 2.94   8 2.94   4 2.94   5 2.94   1 2.94
                             3 2.94
   3  0.667  0.000  0.238-   7 2.94  18 2.94  12 2.94   1 2.94  11 2.94   5 2.94   6 2.94   9 2.94
                             2 2.94
   4  0.000  0.333  0.238-  10 2.94   6 2.94   5 2.94  13 2.94   2 2.94  15 2.94   9 2.94   1 2.94
                             7 2.94
   5  0.333  0.333  0.238-  13 2.94   7 2.94  11 2.94   4 2.94   2 2.94  14 2.94   3 2.94   8 2.94
                             6 2.94
   6  0.667  0.333  0.238-  15 2.94  14 2.94   1 2.94  12 2.94   4 2.94   9 2.94   8 2.94   3 2.94
                             5 2.94
   7  0.000  0.667  0.238-  18 2.94   3 2.94  16 2.94   5 2.94   1 2.94  13 2.94   8 2.94   4 2.94
                             9 2.94
   8  0.333  0.667  0.238-   9 2.94  17 2.94   1 2.94   2 2.94  14 2.94  16 2.94   6 2.94   7 2.94
                             5 2.94
   9  0.667  0.667  0.238-   2 2.94   8 2.94  17 2.94   6 2.94  15 2.94   4 2.94   3 2.94  18 2.94
                             7 2.94
  10  0.111  0.111  0.346-  20 2.93  26 2.94  19 2.94  11 2.94  17 2.94   2 2.94   4 2.94   1 2.94
                            12 2.94  16 2.94  13 2.94  15 2.94
  11  0.444  0.111  0.346-  20 2.91  21 2.91  27 2.93  13 2.94   2 2.94  10 2.94  17 2.94   5 2.94
                             3 2.94  18 2.94  14 2.94  12 2.94
  12  0.778  0.111  0.346-  21 2.93  25 2.94  19 2.94  16 2.94  18 2.94   1 2.94  14 2.94  15 2.94
                             3 2.94   6 2.94  10 2.94  11 2.94
  13  0.111  0.444  0.346-  23 2.91  20 2.91  22 2.93   5 2.94  18 2.94  11 2.94   7 2.94   4 2.94
                            16 2.94  10 2.94  14 2.94  15 2.94
  14  0.444  0.444  0.346-  21 2.91  23 2.91  24 2.93  15 2.94   6 2.94  12 2.94   8 2.94  17 2.94
                             5 2.94  16 2.94  13 2.94  11 2.94
  15  0.778  0.444  0.346-  24 2.92  22 2.92  19 2.94  14 2.94   6 2.94  17 2.94  12 2.94   9 2.94
                             4 2.94  10 2.94  13 2.94  18 2.94
  16  0.111  0.778  0.346-  23 2.93  25 2.94  26 2.94  18 2.94  12 2.94   7 2.94   1 2.94   8 2.94
                            13 2.94  10 2.94  14 2.94  17 2.94
  17  0.444  0.778  0.346-  27 2.92  24 2.92  26 2.94   9 2.94  15 2.94   2 2.94  10 2.94  11 2.94
                             8 2.94  14 2.94  16 2.94  18 2.94
  18  0.778  0.778  0.346-  22 2.92  27 2.92  25 2.94  16 2.94   7 2.94  13 2.94  12 2.94   3 2.94
                            11 2.94   9 2.94  15 2.94  17 2.94
  19  0.889  0.222  0.454-  10 2.94  12 2.94  15 2.94  26 2.94  25 2.94  24 2.94  22 2.94  28 2.95
                            21 2.95  20 2.95  32 2.98  31 2.98
  20  0.223  0.223  0.453-  36 2.70  23 2.91  21 2.91  11 2.91  13 2.91  29 2.92  31 2.92  10 2.93
                            27 2.95  22 2.95  26 2.95  19 2.95
  21  0.553  0.223  0.453-  36 2.70  20 2.91  23 2.91  14 2.91  11 2.91  30 2.92  32 2.92  12 2.93
                            27 2.95  24 2.95  25 2.95  19 2.95
  22  0.887  0.557  0.453-  24 2.91  27 2.91  18 2.92  15 2.92  13 2.93  25 2.94  19 2.94  33 2.95
                            31 2.95  23 2.95  20 2.95  35 2.95
  23  0.223  0.553  0.453-  36 2.70  20 2.91  21 2.91  13 2.91  14 2.91  33 2.92  34 2.92  16 2.93
                            22 2.95  24 2.95  25 2.95  26 2.95
  24  0.557  0.557  0.453-  27 2.91  22 2.91  15 2.92  17 2.92  14 2.93  26 2.94  19 2.94  32 2.95
                            34 2.95  21 2.95  23 2.95  35 2.95
  25  0.889  0.889  0.454-  16 2.94  12 2.94  18 2.94  19 2.94  26 2.94  22 2.94  27 2.94  28 2.95
                            23 2.95  21 2.95  33 2.98  30 2.98
  26  0.222  0.889  0.454-  10 2.94  16 2.94  17 2.94  19 2.94  25 2.94  27 2.94  24 2.94  28 2.95
                            20 2.95  23 2.95  29 2.98  34 2.98
  27  0.557  0.887  0.453-  24 2.91  22 2.91  17 2.92  18 2.92  11 2.93  26 2.94  25 2.94  29 2.95
                            30 2.95  20 2.95  21 2.95  35 2.95
  28  0.000  0.000  0.563-  25 2.95  19 2.95  26 2.95  34 2.98  32 2.98  33 2.98  30 2.98  31 2.98
                            29 2.98
  29  0.333  0.010  0.562-  30 2.85  31 2.85  36 2.87  20 2.92  27 2.95  26 2.98  35 2.98  28 2.98
                            34 3.11
  30  0.657  0.010  0.562-  29 2.85  32 2.85  36 2.87  21 2.92  27 2.95  25 2.98  35 2.98  28 2.98
                            33 3.11
  31  0.010  0.333  0.562-  33 2.85  29 2.85  36 2.87  20 2.92  22 2.95  19 2.98  35 2.98  28 2.98
                            32 3.11
  32  0.657  0.333  0.562-  34 2.85  30 2.85  36 2.87  21 2.92  24 2.95  19 2.98  35 2.98  28 2.98
                            31 3.11
  33  0.010  0.657  0.562-  31 2.85  34 2.85  36 2.87  23 2.92  22 2.95  25 2.98  35 2.98  28 2.98
                            30 3.11
  34  0.333  0.657  0.562-  32 2.85  33 2.85  36 2.87  23 2.92  24 2.95  26 2.98  35 2.98  28 2.98
                            29 3.11
  35  0.667  0.667  0.563-  24 2.95  27 2.95  22 2.95  29 2.98  34 2.98  32 2.98  31 2.98  30 2.98
                            33 2.98
  36  0.333  0.333  0.548-  20 2.70  23 2.70  21 2.70  33 2.87  31 2.87  29 2.87  30 2.87  34 2.87
                            32 2.87
 
  LATTYP: Found a hexagonal cell.
 ALAT       =     8.8135128021
 C/A-ratio  =     2.5184286595
  
  Lattice vectors:
  
 A1 = (  -4.4067569092,  -7.6327256898,   0.0000000000)
 A2 = (   8.8135128021,   0.0000000000,   0.0000000000)
 A3 = (   0.0000000000,   0.0000000000,  22.1962032318)


Analysis of symmetry for initial positions (statically):
=====================================================================
 Subroutine PRICEL returns:
 Original cell was already a primitive cell.
 

 Routine SETGRP: Setting up the symmetry group for a 
 hexagonal supercell.


 Subroutine GETGRP returns: Found  6 space group operations
 (whereof  6 operations were pure point group operations)
 out of a pool of 24 trial point group operations.


The static configuration has the point symmetry C_3v.


Analysis of symmetry for dynamics (positions and initial velocities):
=====================================================================
 Subroutine PRICEL returns:
 Original cell was already a primitive cell.
 

 Routine SETGRP: Setting up the symmetry group for a 
 hexagonal supercell.


 Subroutine GETGRP returns: Found  6 space group operations
 (whereof  6 operations were pure point group operations)
 out of a pool of 24 trial point group operations.


The dynamic configuration has the point symmetry C_3v.


Analysis of constrained symmetry for selective dynamics:
=====================================================================
 Subroutine PRICEL returns:
 Original cell was already a primitive cell.
 

 Routine SETGRP: Setting up the symmetry group for a 
 hexagonal supercell.


 Subroutine GETGRP returns: Found  6 space group operations
 (whereof  6 operations were pure point group operations)
 out of a pool of 24 trial point group operations.


The constrained configuration has the point symmetry C_3v.


 Subroutine INISYM returns: Found  6 space group operations
 (whereof  6 operations are pure point group operations),
 and found     1 'primitive' translations


----------------------------------------------------------------------------------------

                                     Primitive cell                                     

  volume of cell :    1493.1636

  direct lattice vectors                    reciprocal lattice vectors
     8.813512802  0.000000000  0.000000000     0.113462137 -0.065507406  0.000000000
     4.406756909  7.632725690  0.000000000     0.000000000  0.131014796  0.000000000
     0.000000000  0.000000000 22.196203232     0.000000000  0.000000000  0.045052750

  length of vectors
     8.813512802  8.813512802 22.196203232     0.131014796  0.131014796  0.045052750

  position of ions in fractional coordinates (direct lattice)
     0.000000000  0.000000000  0.237895638
     0.333333343  0.000000000  0.237895638
     0.666666687  0.000000000  0.237895638
     1.000000000  0.333333343  0.237895638
     0.333333313  0.333333343  0.237895638
     0.666666687  0.333333343  0.237895638
     1.000000000  0.666666687  0.237895638
     0.333333343  0.666666687  0.237895638
     0.666666627  0.666666687  0.237895638
     0.111111119  0.111111112  0.345965207
     0.444444418  0.111111112  0.345965207
     0.777777791  0.111111112  0.345965207
     0.111111127  0.444444448  0.345965207
     0.444444478  0.444444448  0.345965207
     0.777777731  0.444444448  0.345965207
     0.111111090  0.777777791  0.345965207
     0.444444448  0.777777791  0.345965207
     0.777777851  0.777777791  0.345965207
     0.888897724  0.222204568  0.453915194
     0.223341676  0.223341661  0.452810831
     0.553316708  0.223341661  0.452810831
     0.886702705  0.556648677  0.453283142
     0.223341631  0.553316708  0.452810831
     0.556648677  0.556648677  0.453283142
     0.888897724  0.888897724  0.453915194
     0.222204598  0.888897724  0.453915194
     0.556648617  0.886702705  0.453283142
     0.000000000  0.000000000  0.562572770
     0.333409010  0.009749430  0.561772089
     0.656841590  0.009749430  0.561772089
     0.009749430  0.333409010  0.561772089
     0.656841590  0.333409010  0.561772089
     0.009749430  0.656841590  0.561772089
     0.333409010  0.656841590  0.561772089
     0.666666627  0.666666687  0.562790780
     0.333333313  0.333333343  0.547862411

  ion indices of the primitive-cell ions
   primitive index   ion index
                 1           1
                 2           2
                 3           3
                 4           4
                 5           5
                 6           6
                 7           7
                 8           8
                 9           9
                10          10
                11          11
                12          12
                13          13
                14          14
                15          15
                16          16
                17          17
                18          18
                19          19
                20          20
                21          21
                22          22
                23          23
                24          24
                25          25
                26          26
                27          27
                28          28
                29          29
                30          30
                31          31
                32          32
                33          33
                34          34
                35          35
                36          36

----------------------------------------------------------------------------------------

 
 
 KPOINTS: Automatic mesh                          

Automatic generation of k-mesh.
 Grid dimensions read from file:
 generate k-points for:    8    8    1

 Generating k-lattice:

  Cartesian coordinates                     Fractional coordinates (reciprocal lattice)
     0.014182767 -0.008188426  0.000000000     0.125000000 -0.000000000  0.000000000
     0.000000000  0.016376850  0.000000000     0.000000000  0.125000000  0.000000000
     0.000000000  0.000000000  0.045052750     0.000000000  0.000000000  1.000000000

  Length of vectors
     0.016376850  0.016376850  0.045052750

  Shift w.r.t. Gamma in fractional coordinates (k-lattice)
     0.000000000  0.000000000  0.000000000

 TETIRR: Found     36 inequivalent tetrahedra from      384
 
 Subroutine IBZKPT returns following result:
 ===========================================
 
 Found     10 irreducible k-points:
 
 Following reciprocal coordinates:
            Coordinates               Weight
  0.000000  0.000000  0.000000      1.000000
  0.125000 -0.000000  0.000000      6.000000
  0.250000 -0.000000  0.000000      6.000000
  0.375000  0.000000  0.000000      6.000000
  0.500000 -0.000000  0.000000      3.000000
  0.250000  0.125000  0.000000      6.000000
  0.375000  0.125000  0.000000     12.000000
  0.500000  0.125000  0.000000     12.000000
  0.500000  0.250000  0.000000      6.000000
 -0.375000  0.250000  0.000000      6.000000
 
 Following cartesian coordinates:
            Coordinates               Weight
  0.000000  0.000000  0.000000      1.000000
  0.014183 -0.008188  0.000000      6.000000
  0.028366 -0.016377  0.000000      6.000000
  0.042548 -0.024565  0.000000      6.000000
  0.056731 -0.032754  0.000000      3.000000
  0.028366 -0.000000  0.000000      6.000000
  0.042548 -0.008188  0.000000     12.000000
  0.056731 -0.016377  0.000000     12.000000
  0.056731 -0.000000  0.000000      6.000000
 -0.042548  0.057319  0.000000      6.000000
 


--------------------------------------------------------------------------------------------------------




 Dimension of arrays:
   k-points           NKPTS =     10   k-points in BZ     NKDIM =     10   number of bands    NBANDS=    252
   number of dos      NEDOS =    301   number of ions     NIONS =     36
   non local maximal  LDIM  =      6   non local SUM 2l+1 LMDIM =     18
   total plane-waves  NPLWV = 290304
   max r-space proj   IRMAX =   2236   max aug-charges    IRDMAX=  12088
   dimension x,y,z NGX =    48 NGY =   48 NGZ =  126
   dimension x,y,z NGXF=    96 NGYF=   96 NGZF=  252
   support grid    NGXF=    96 NGYF=   96 NGZF=  252
   ions per type =              35   1
   NGX,Y,Z   is equivalent  to a cutoff of   9.05,  9.05,  9.44 a.u.
   NGXF,Y,Z  is equivalent  to a cutoff of  18.11, 18.11, 18.87 a.u.

 SYSTEM =  unknown system                          
 POSCAR =  Au-Fe                                   

 Startparameter for this run:
   NWRITE =      2    write-flag & timer
   PREC   = normal    normal or accurate (medium, high low for compatibility)
   ISTART =      0    job   : 0-new  1-cont  2-samecut
   ICHARG =     11    charge: 1-file 2-atom 10-const
   ISPIN  =      1    spin polarized calculation?
   LNONCOLLINEAR =      F non collinear calculations
   LSORBIT =      F    spin-orbit coupling
   INIWAV =      1    electr: 0-lowe 1-rand  2-diag
   LASPH  =      F    aspherical Exc in radial PAW
   METAGGA=      F    non-selfconsistent MetaGGA calc.

 Electronic Relaxation 1
   ENCUT  =  500.0 eV  36.75 Ry    6.06 a.u.  16.07 16.07 40.47*2*pi/ulx,y,z
   ENINI  =  500.0     initial cutoff
   ENAUG  =  511.4 eV  augmentation charge cutoff
   NELM   =    150;   NELMIN=  2; NELMDL= -5     # of ELM steps 
   EDIFF  = 0.1E-04   stopping-criterion for ELM
   LREAL  =      T    real-space projection
   NLSPLINE    = F    spline interpolate recip. space projectors
   LCOMPAT=      F    compatible to vasp.4.4
   GGA_COMPAT  = T    GGA compatible to vasp.4.4-vasp.4.6
   LMAXPAW     = -100 max onsite density
   LMAXMIX     =    2 max onsite mixed and CHGCAR
   VOSKOWN=      0    Vosko Wilk Nusair interpolation
   ROPT   =   -0.00050  -0.00050
 Ionic relaxation
   EDIFFG = -.1E-01   stopping-criterion for IOM
   NSW    =      0    number of steps for IOM
   NBLOCK =      1;   KBLOCK =      1    inner block; outer block 
   IBRION =     -1    ionic relax: 0-MD 1-quasi-New 2-CG
   NFREE  =      1    steps in history (QN), initial steepest desc. (CG)
   ISIF   =      2    stress and relaxation
   IWAVPR =     10    prediction:  0-non 1-charg 2-wave 3-comb
   ISYM   =      2    0-nonsym 1-usesym 2-fastsym
   LCORR  =      T    Harris-Foulkes like correction to forces

   POTIM  = 0.5000    time-step for ionic-motion
   TEIN   =    0.0    initial temperature
   TEBEG  =    0.0;   TEEND  =   0.0 temperature during run
   SMASS  =  -3.00    Nose mass-parameter (am)
   estimated Nose-frequenzy (Omega)   =  0.10E-29 period in steps = 0.13E+47 mass=  -0.178E-26a.u.
   SCALEE = 1.0000    scale energy and forces
   NPACO  =    256;   APACO  = 16.0  distance and # of slots for P.C.
   PSTRESS=    0.0 pullay stress

  Mass of Ions in am
   POMASS = 196.97 55.85
  Ionic Valenz
   ZVAL   =  11.00  8.00
  Atomic Wigner-Seitz radii
   RWIGS  =  -1.00 -1.00
  virtual crystal weights 
   VCA    =   1.00  1.00
   NELECT =     393.0000    total number of electrons
   NUPDOWN=      -1.0000    fix difference up-down

 DOS related values:
   EMIN   =  10.00;   EMAX   =-10.00  energy-range for DOS
   EFERMI =   0.00
   ISMEAR =    -5;   SIGMA  =   0.10  broadening in eV -4-tet -1-fermi 0-gaus

 Electronic relaxation 2 (details)
   IALGO  =     68    algorithm
   LDIAG  =      T    sub-space diagonalisation (order eigenvalues)
   LSUBROT=      F    optimize rotation matrix (better conditioning)
   TURBO    =      0    0=normal 1=particle mesh
   IRESTART =      0    0=no restart 2=restart with 2 vectors
   NREBOOT  =      0    no. of reboots
   NMIN     =      0    reboot dimension
   EREF     =   0.00    reference energy to select bands
   IMIX   =      4    mixing-type and parameters
     AMIX     =   0.40;   BMIX     =  1.00
     AMIX_MAG =   1.60;   BMIX_MAG =  1.00
     AMIN     =   0.10
     WC   =   100.;   INIMIX=   1;  MIXPRE=   1;  MAXMIX= -45

 Intra band minimization:
   WEIMIN = 0.0000     energy-eigenvalue tresh-hold
   EBREAK =  0.99E-08  absolut break condition
   DEPER  =   0.30     relativ break condition  

   TIME   =   0.40     timestep for ELM

  volume/ion in A,a.u.               =      41.48       279.90
  Fermi-wavevector in a.u.,A,eV,Ry     =   1.049148  1.982601 14.976075  1.100710
  Thomas-Fermi vector in A             =   2.184098
 
 Write flags
   LWAVE        =      F    write WAVECAR
   LDOWNSAMPLE  =      F    k-point downsampling of WAVECAR
   LCHARG       =      F    write CHGCAR
   LVTOT        =      F    write LOCPOT, total local potential
   LVHAR        =      F    write LOCPOT, Hartree potential only
   LELF         =      F    write electronic localiz. function (ELF)
   LORBIT       =     10    0 simple, 1 ext, 2 COOP (PROOUT), +10 PAW based schemes


 Dipole corrections
   LMONO  =      F    monopole corrections only (constant potential shift)
   LDIPOL =      F    correct potential (dipole corrections)
   IDIPOL =      0    1-x, 2-y, 3-z, 4-all directions 
   EPSILON=  1.0000000 bulk dielectric constant

 Exchange correlation treatment:
   GGA     =    --    GGA type
   LEXCH   =     8    internal setting for exchange type
   VOSKOWN=      0    Vosko Wilk Nusair interpolation
   LHFCALC =     F    Hartree Fock is set to
   LHFONE  =     F    Hartree Fock one center treatment
   AEXX    =    0.0000 exact exchange contribution

 Linear response parameters
   LEPSILON=     F    determine dielectric tensor
   LRPA    =     F    only Hartree local field effects (RPA)
   LNABLA  =     F    use nabla operator in PAW spheres
   LVEL    =     F    velocity operator in full k-point grid
   LINTERFAST=   F  fast interpolation
   KINTER  =     0    interpolate to denser k-point grid
   CSHIFT  =0.1000    complex shift for real part using Kramers Kronig
   OMEGAMAX=  -1.0    maximum frequency
   DEG_THRESHOLD= 0.2000000E-02 threshold for treating states as degnerate
   RTIME   =   -0.100 relaxation time in fs
  (WPLASMAI=    0.000 imaginary part of plasma frequency in eV, 0.658/RTIME)
   DFIELD  = 0.0000000 0.0000000 0.0000000 field for delta impulse in time
 
 Orbital magnetization related:
   ORBITALMAG=     F  switch on orbital magnetization
   LCHIMAG   =     F  perturbation theory with respect to B field
   DQ        =  0.001000  dq finite difference perturbation B field
   LLRAUG    =     F  two centre corrections for induced B field



--------------------------------------------------------------------------------------------------------


 Static calculation
 charge density and potential remain constant during run
 non-spin polarized calculation
 RMM-DIIS sequential band-by-band and
  variant of blocked Davidson during initial phase
 perform sub-space diagonalisation
    before iterative eigenvector-optimisation
 no mixing
 using additional bands           55
 real space projection scheme for non local part
 use partial core corrections
 calculate Harris-corrections to forces 
   (improved forces if not selfconsistent)
 use gradient corrections 
 WARNING: stress and forces are not correct
  (second derivative of E(xc) not defined)
 use of overlap-Matrix (Vanderbilt PP)
 Fermi weights with tetrahedron method with Bloechl corrections


--------------------------------------------------------------------------------------------------------


  energy-cutoff  :      500.00
  volume of cell :     1493.16
      direct lattice vectors                 reciprocal lattice vectors
     8.813512802  0.000000000  0.000000000     0.113462137 -0.065507406  0.000000000
     4.406756909  7.632725690  0.000000000     0.000000000  0.131014796  0.000000000
     0.000000000  0.000000000 22.196203232     0.000000000  0.000000000  0.045052750

  length of vectors
     8.813512802  8.813512802 22.196203232     0.131014796  0.131014796  0.045052750


 
 k-points in units of 2pi/SCALE and weight: Automatic mesh                          
   0.00000000  0.00000000  0.00000000       0.016
   0.01418277 -0.00818843  0.00000000       0.094
   0.02836553 -0.01637685  0.00000000       0.094
   0.04254830 -0.02456528  0.00000000       0.094
   0.05673107 -0.03275370  0.00000000       0.047
   0.02836553 -0.00000000  0.00000000       0.094
   0.04254830 -0.00818843  0.00000000       0.188
   0.05673107 -0.01637685  0.00000000       0.188
   0.05673107 -0.00000000  0.00000000       0.094
  -0.04254830  0.05731898  0.00000000       0.094
 
 k-points in reciprocal lattice and weights: Automatic mesh                          
   0.00000000  0.00000000  0.00000000       0.016
   0.12500000 -0.00000000  0.00000000       0.094
   0.25000000 -0.00000000  0.00000000       0.094
   0.37500000  0.00000000  0.00000000       0.094
   0.50000000 -0.00000000  0.00000000       0.047
   0.25000000  0.12500000  0.00000000       0.094
   0.37500000  0.12500000  0.00000000       0.188
   0.50000000  0.12500000  0.00000000       0.188
   0.50000000  0.25000000  0.00000000       0.094
  -0.37500000  0.25000000  0.00000000       0.094
 
 position of ions in fractional coordinates (direct lattice) 
   0.00000000  0.00000000  0.23789564
   0.33333334  0.00000000  0.23789564
   0.66666669  0.00000000  0.23789564
   0.00000000  0.33333334  0.23789564
   0.33333331  0.33333334  0.23789564
   0.66666669  0.33333334  0.23789564
   0.00000000  0.66666669  0.23789564
   0.33333334  0.66666669  0.23789564
   0.66666663  0.66666669  0.23789564
   0.11111112  0.11111111  0.34596521
   0.44444442  0.11111111  0.34596521
   0.77777779  0.11111111  0.34596521
   0.11111113  0.44444445  0.34596521
   0.44444448  0.44444445  0.34596521
   0.77777773  0.44444445  0.34596521
   0.11111109  0.77777779  0.34596521
   0.44444445  0.77777779  0.34596521
   0.77777785  0.77777779  0.34596521
   0.88889772  0.22220457  0.45391519
   0.22334168  0.22334166  0.45281083
   0.55331671  0.22334166  0.45281083
   0.88670271  0.55664868  0.45328314
   0.22334163  0.55331671  0.45281083
   0.55664868  0.55664868  0.45328314
   0.88889772  0.88889772  0.45391519
   0.22220460  0.88889772  0.45391519
   0.55664862  0.88670271  0.45328314
   0.00000000  0.00000000  0.56257277
   0.33340901  0.00974943  0.56177209
   0.65684159  0.00974943  0.56177209
   0.00974943  0.33340901  0.56177209
   0.65684159  0.33340901  0.56177209
   0.00974943  0.65684159  0.56177209
   0.33340901  0.65684159  0.56177209
   0.66666663  0.66666669  0.56279078
   0.33333331  0.33333334  0.54786241
 
 position of ions in cartesian coordinates  (Angst):
   0.00000000  0.00000000  5.28037993
   2.93783769  0.00000000  5.28037993
   5.87567538  0.00000000  5.28037993
   1.46891901  2.54424197  5.28037993
   4.40675643  2.54424197  5.28037993
   7.34459439  2.54424197  5.28037993
   2.93783803  5.08848395  5.28037993
   5.87567571  5.08848395  5.28037993
   8.81351288  5.08848395  5.28037993
   1.46891893  0.84808064  7.67911405
   4.40675623  0.84808064  7.67911405
   7.34459418  0.84808064  7.67911405
   2.93783798  3.39232256  7.67911405
   5.87567574  3.39232256  7.67911405
   8.81351263  3.39232256  7.67911405
   4.40675667  5.93656453  7.67911405
   7.34459449  5.93656453  7.67911405
  10.28243270  5.93656453  7.67911405
   8.81351299  1.69602652 10.07519390
   2.95263713  1.70470563 10.05068122
   5.86087630  1.70470563 10.05068122
  10.26798105  4.24874666 10.06116473
   4.40675655  4.22331465 10.05068122
   7.35904565  4.24874666 10.06116473
  11.75146765  6.78471249 10.07519390
   5.87555926  6.78471249 10.07519390
   8.81351299  6.76795852 10.06116473
   0.00000000  0.00000000 12.48697953
   2.98146795  0.07441473 12.46920745
   5.83204513  0.07441473 12.46920745
   1.55517919  2.54481952 12.46920745
   7.25833422  2.54481952 12.46920745
   2.98046794  5.01349168 12.46920745
   5.83304579  5.01349168 12.46920745
   8.81351288  5.08848395 12.49181854
   4.40675643  2.54424197 12.16046541
 


--------------------------------------------------------------------------------------------------------


 k-point   1 :   0.0000 0.0000 0.0000  plane waves:   37827
 k-point   2 :   0.1250-0.0000 0.0000  plane waves:   37876
 k-point   3 :   0.2500-0.0000 0.0000  plane waves:   37924
 k-point   4 :   0.3750 0.0000 0.0000  plane waves:   37904
 k-point   5 :   0.5000-0.0000 0.0000  plane waves:   37912
 k-point   6 :   0.2500 0.1250 0.0000  plane waves:   37858
 k-point   7 :   0.3750 0.1250 0.0000  plane waves:   37928
 k-point   8 :   0.5000 0.1250 0.0000  plane waves:   37924
 k-point   9 :   0.5000 0.2500 0.0000  plane waves:   37926
 k-point  10 :  -0.3750 0.2500 0.0000  plane waves:   37916

 maximum and minimum number of plane-waves per node :     37928    37827

 maximum number of plane-waves:     37928
 maximum index in each direction: 
   IXMAX=   16   IYMAX=   16   IZMAX=   40
   IXMIN=  -16   IYMIN=  -16   IZMIN=  -40


 serial   3D FFT for wavefunctions
 parallel 3D FFT for charge:
    minimum data exchange during FFTs selected (reduces bandwidth)


 total amount of memory used by VASP MPI-rank0   120976. kBytes
=======================================================================

   base      :      30000. kBytes
   nonlr-proj:      13388. kBytes
   fftplans  :       4330. kBytes
   grid      :      17098. kBytes
   one-center:        559. kBytes
   wavefun   :      55601. kBytes
 
     INWAV:  cpu time    0.0000: real time    0.0000
 initial charge density was supplied:
 number of electron     393.0000055 magnetization 
 keeping initial charge density in first step


--------------------------------------------------------------------------------------------------------


 Maximum index for non-local projection operator         2121
 Maximum index for augmentation-charges          858 (set IRDMAX)


--------------------------------------------------------------------------------------------------------


 First call to EWALD:  gamma=   0.155
 Maximum number of real-space cells 4x 4x 2
 Maximum number of reciprocal cells 2x 2x 5

    FEWALD:  cpu time    0.0014: real time    0.0015


--------------------------------------- Iteration      1(   1)  ---------------------------------------


    POTLOK:  cpu time    0.0507: real time    0.0514
    SETDIJ:  cpu time    0.0053: real time    0.0054
     EDDAV:  cpu time   11.0206: real time   11.0822
 BZINTS: Fermi energy:   11.189408;  393.000000 electrons
         Band energy: 0.153785E+04;  BLOECHL correction:   -0.019440
       DOS:  cpu time    0.0124: real time    0.0125
    --------------------------------------------
      LOOP:  cpu time   11.0891: real time   11.1516

 eigenvalue-minimisations  :  5040
 total energy-change (2. order) : 0.2611239E+04  (-0.1770867E+05)
 number of electron     393.0000055 magnetization 
 augmentation part      393.0000055 magnetization 

 Free energy of the ion-electron system (eV)
  ---------------------------------------------------
  alpha Z        PSCENC =       998.20052044
  Ewald energy   TEWEN  =     96938.27096431
  -Hartree energ DENC   =   -131111.56560369
  -exchange      EXHF   =         0.00000000
  -V(xc)+E(xc)   XCENC  =       520.04778161
  PAW double counting   =     35757.68970619   -35036.45508156
  entropy T*S    EENTRO =         0.00000000
  eigenvalues    EBANDS =      1537.85166948
  atomic energy  EATOM  =     33007.19887442
  Solvation  Ediel_sol  =         0.00000000
  ---------------------------------------------------
  free energy    TOTEN  =      2611.23883119 eV

  energy without entropy =     2611.23883119  energy(sigma->0) =     2611.23883119


--------------------------------------------------------------------------------------------------------




--------------------------------------- Iteration      1(   2)  ---------------------------------------


     EDDAV:  cpu time   11.8559: real time   11.8806
 BZINTS: Fermi energy:    1.427272;  393.000000 electrons
         Band energy:-0.105431E+04;  BLOECHL correction:   -0.037384
       DOS:  cpu time    0.0103: real time    0.0103
    --------------------------------------------
      LOOP:  cpu time   11.8662: real time   11.8909

 eigenvalue-minimisations  :  5516
 total energy-change (2. order) :-0.2592158E+04  (-0.2373746E+04)
 number of electron     393.0000055 magnetization 
 augmentation part      393.0000055 magnetization 

 Free energy of the ion-electron system (eV)
  ---------------------------------------------------
  alpha Z        PSCENC =       998.20052044
  Ewald energy   TEWEN  =     96938.27096431
  -Hartree energ DENC   =   -131111.56560369
  -exchange      EXHF   =         0.00000000
  -V(xc)+E(xc)   XCENC  =       520.04778161
  PAW double counting   =     35757.68970619   -35036.45508156
  entropy T*S    EENTRO =         0.00000000
  eigenvalues    EBANDS =     -1054.30629968
  atomic energy  EATOM  =     33007.19887442
  Solvation  Ediel_sol  =         0.00000000
  ---------------------------------------------------
  free energy    TOTEN  =        19.08086202 eV

  energy without entropy =       19.08086202  energy(sigma->0) =       19.08086202


--------------------------------------------------------------------------------------------------------




--------------------------------------- Iteration      1(   3)  ---------------------------------------


     EDDAV:  cpu time   12.4837: real time   12.4974
 BZINTS: Fermi energy:    0.657709;  393.000000 electrons
         Band energy:-0.118337E+04;  BLOECHL correction:   -0.051688
       DOS:  cpu time    0.0111: real time    0.0111
    --------------------------------------------
      LOOP:  cpu time   12.4948: real time   12.5085

 eigenvalue-minimisations  :  5908
 total energy-change (2. order) :-0.1290659E+03  (-0.1238200E+03)
 number of electron     393.0000055 magnetization 
 augmentation part      393.0000055 magnetization 

 Free energy of the ion-electron system (eV)
  ---------------------------------------------------
  alpha Z        PSCENC =       998.20052044
  Ewald energy   TEWEN  =     96938.27096431
  -Hartree energ DENC   =   -131111.56560369
  -exchange      EXHF   =         0.00000000
  -V(xc)+E(xc)   XCENC  =       520.04778161
  PAW double counting   =     35757.68970619   -35036.45508156
  entropy T*S    EENTRO =         0.00000000
  eigenvalues    EBANDS =     -1183.37218644
  atomic energy  EATOM  =     33007.19887442
  Solvation  Ediel_sol  =         0.00000000
  ---------------------------------------------------
  free energy    TOTEN  =      -109.98502474 eV

  energy without entropy =     -109.98502474  energy(sigma->0) =     -109.98502474


--------------------------------------------------------------------------------------------------------




--------------------------------------- Iteration      1(   4)  ---------------------------------------


     EDDAV:  cpu time   12.7937: real time   12.8429
 BZINTS: Fermi energy:    0.643213;  393.000000 electrons
         Band energy:-0.118597E+04;  BLOECHL correction:   -0.051320
       DOS:  cpu time    0.0116: real time    0.0116
    --------------------------------------------
      LOOP:  cpu time   12.8053: real time   12.8545

 eigenvalue-minimisations  :  6020
 total energy-change (2. order) :-0.2597168E+01  (-0.2593144E+01)
 number of electron     393.0000055 magnetization 
 augmentation part      393.0000055 magnetization 

 Free energy of the ion-electron system (eV)
  ---------------------------------------------------
  alpha Z        PSCENC =       998.20052044
  Ewald energy   TEWEN  =     96938.27096431
  -Hartree energ DENC   =   -131111.56560369
  -exchange      EXHF   =         0.00000000
  -V(xc)+E(xc)   XCENC  =       520.04778161
  PAW double counting   =     35757.68970619   -35036.45508156
  entropy T*S    EENTRO =         0.00000000
  eigenvalues    EBANDS =     -1185.96935462
  atomic energy  EATOM  =     33007.19887442
  Solvation  Ediel_sol  =         0.00000000
  ---------------------------------------------------
  free energy    TOTEN  =      -112.58219292 eV

  energy without entropy =     -112.58219292  energy(sigma->0) =     -112.58219292


--------------------------------------------------------------------------------------------------------




--------------------------------------- Iteration      1(   5)  ---------------------------------------


     EDDAV:  cpu time   12.8643: real time   12.8841
 BZINTS: Fermi energy:    0.642839;  393.000000 electrons
         Band energy:-0.118603E+04;  BLOECHL correction:   -0.051287
       DOS:  cpu time    0.0121: real time    0.0122
    --------------------------------------------
      LOOP:  cpu time   12.8764: real time   12.8963

 eigenvalue-minimisations  :  6104
 total energy-change (2. order) :-0.6302528E-01  (-0.6304954E-01)
 number of electron     393.0000055 magnetization 
 augmentation part      393.0000055 magnetization 

 Free energy of the ion-electron system (eV)
  ---------------------------------------------------
  alpha Z        PSCENC =       998.20052044
  Ewald energy   TEWEN  =     96938.27096431
  -Hartree energ DENC   =   -131111.56560369
  -exchange      EXHF   =         0.00000000
  -V(xc)+E(xc)   XCENC  =       520.04778161
  PAW double counting   =     35757.68970619   -35036.45508156
  entropy T*S    EENTRO =         0.00000000
  eigenvalues    EBANDS =     -1186.03237991
  atomic energy  EATOM  =     33007.19887442
  Solvation  Ediel_sol  =         0.00000000
  ---------------------------------------------------
  free energy    TOTEN  =      -112.64521820 eV

  energy without entropy =     -112.64521820  energy(sigma->0) =     -112.64521820


--------------------------------------------------------------------------------------------------------




--------------------------------------- Iteration      1(   6)  ---------------------------------------


    EDDIAG:  cpu time    2.0943: real time    2.0976
  RMM-DIIS:  cpu time    7.3206: real time    7.3624
    ORTHCH:  cpu time    0.4212: real time    0.4296
 BZINTS: Fermi energy:    0.642830;  393.000000 electrons
         Band energy:-0.118603E+04;  BLOECHL correction:   -0.051283
       DOS:  cpu time    0.0105: real time    0.0109
    --------------------------------------------
      LOOP:  cpu time    9.8467: real time    9.9005

 eigenvalue-minimisations  :  5034
 total energy-change (2. order) :-0.2057906E-02  (-0.2061348E-02)
 number of electron     393.0000055 magnetization 
 augmentation part      393.0000055 magnetization 

 Free energy of the ion-electron system (eV)
  ---------------------------------------------------
  alpha Z        PSCENC =       998.20052044
  Ewald energy   TEWEN  =     96938.27096431
  -Hartree energ DENC   =   -131111.56560369
  -exchange      EXHF   =         0.00000000
  -V(xc)+E(xc)   XCENC  =       520.04778161
  PAW double counting   =     35757.68970619   -35036.45508156
  entropy T*S    EENTRO =         0.00000000
  eigenvalues    EBANDS =     -1186.03443781
  atomic energy  EATOM  =     33007.19887442
  Solvation  Ediel_sol  =         0.00000000
  ---------------------------------------------------
  free energy    TOTEN  =      -112.64727611 eV

  energy without entropy =     -112.64727611  energy(sigma->0) =     -112.64727611


--------------------------------------------------------------------------------------------------------




--------------------------------------- Iteration      1(   7)  ---------------------------------------


    EDDIAG:  cpu time    2.2438: real time    2.2636
  RMM-DIIS:  cpu time   10.7887: real time   10.8575
    ORTHCH:  cpu time    0.4014: real time    0.4021
 BZINTS: Fermi energy:    0.642827;  393.000000 electrons
         Band energy:-0.118604E+04;  BLOECHL correction:   -0.051282
       DOS:  cpu time    0.0100: real time    0.0100
    --------------------------------------------
      LOOP:  cpu time   13.4440: real time   13.5332

 eigenvalue-minimisations  :  7233
 total energy-change (2. order) :-0.8248936E-03  (-0.8062208E-03)
 number of electron     393.0000055 magnetization 
 augmentation part      393.0000055 magnetization 

 Free energy of the ion-electron system (eV)
  ---------------------------------------------------
  alpha Z        PSCENC =       998.20052044
  Ewald energy   TEWEN  =     96938.27096431
  -Hartree energ DENC   =   -131111.56560369
  -exchange      EXHF   =         0.00000000
  -V(xc)+E(xc)   XCENC  =       520.04778161
  PAW double counting   =     35757.68970619   -35036.45508156
  entropy T*S    EENTRO =         0.00000000
  eigenvalues    EBANDS =     -1186.03526271
  atomic energy  EATOM  =     33007.19887442
  Solvation  Ediel_sol  =         0.00000000
  ---------------------------------------------------
  free energy    TOTEN  =      -112.64810100 eV

  energy without entropy =     -112.64810100  energy(sigma->0) =     -112.64810100


--------------------------------------------------------------------------------------------------------




--------------------------------------- Iteration      1(   8)  ---------------------------------------


    EDDIAG:  cpu time    2.1099: real time    2.1117
  RMM-DIIS:  cpu time    8.2542: real time    8.2705
    ORTHCH:  cpu time    0.3976: real time    0.3981
 BZINTS: Fermi energy:    0.642827;  393.000000 electrons
         Band energy:-0.118604E+04;  BLOECHL correction:   -0.051282
       DOS:  cpu time    0.0105: real time    0.0105
    --------------------------------------------
      LOOP:  cpu time   10.7723: real time   10.7909

 eigenvalue-minimisations  :  5468
 total energy-change (2. order) :-0.4192715E-04  (-0.4090277E-04)
 number of electron     393.0000055 magnetization 
 augmentation part      393.0000055 magnetization 

 Free energy of the ion-electron system (eV)
  ---------------------------------------------------
  alpha Z        PSCENC =       998.20052044
  Ewald energy   TEWEN  =     96938.27096431
  -Hartree energ DENC   =   -131111.56560369
  -exchange      EXHF   =         0.00000000
  -V(xc)+E(xc)   XCENC  =       520.04778161
  PAW double counting   =     35757.68970619   -35036.45508156
  entropy T*S    EENTRO =         0.00000000
  eigenvalues    EBANDS =     -1186.03530463
  atomic energy  EATOM  =     33007.19887442
  Solvation  Ediel_sol  =         0.00000000
  ---------------------------------------------------
  free energy    TOTEN  =      -112.64814293 eV

  energy without entropy =     -112.64814293  energy(sigma->0) =     -112.64814293


--------------------------------------------------------------------------------------------------------




--------------------------------------- Iteration      1(   9)  ---------------------------------------


    EDDIAG:  cpu time    2.0686: real time    2.0713
  RMM-DIIS:  cpu time    8.5635: real time    8.7327
    ORTHCH:  cpu time    0.2975: real time    0.2986
 BZINTS: Fermi energy:    0.642827;  393.000000 electrons
         Band energy:-0.118604E+04;  BLOECHL correction:   -0.051282
       DOS:  cpu time    0.0120: real time    0.0120
    --------------------------------------------
      LOOP:  cpu time   10.9416: real time   11.1146

 eigenvalue-minimisations  :  5414
 total energy-change (2. order) :-0.1491481E-04  (-0.1477732E-04)
 number of electron     393.0000055 magnetization 
 augmentation part      393.0000055 magnetization 

 Free energy of the ion-electron system (eV)
  ---------------------------------------------------
  alpha Z        PSCENC =       998.20052044
  Ewald energy   TEWEN  =     96938.27096431
  -Hartree energ DENC   =   -131111.56560369
  -exchange      EXHF   =         0.00000000
  -V(xc)+E(xc)   XCENC  =       520.04778161
  PAW double counting   =     35757.68970619   -35036.45508156
  entropy T*S    EENTRO =         0.00000000
  eigenvalues    EBANDS =     -1186.03531955
  atomic energy  EATOM  =     33007.19887442
  Solvation  Ediel_sol  =         0.00000000
  ---------------------------------------------------
  free energy    TOTEN  =      -112.64815784 eV

  energy without entropy =     -112.64815784  energy(sigma->0) =     -112.64815784


--------------------------------------------------------------------------------------------------------




--------------------------------------- Iteration      1(  10)  ---------------------------------------


    EDDIAG:  cpu time    2.1928: real time    2.2084
  RMM-DIIS:  cpu time    5.3283: real time    5.3370
    ORTHCH:  cpu time    0.3706: real time    0.3711
 BZINTS: Fermi energy:    0.642827;  393.000000 electrons
         Band energy:-0.118604E+04;  BLOECHL correction:   -0.051282
       DOS:  cpu time    0.0101: real time    0.0101
    --------------------------------------------
      LOOP:  cpu time    7.9017: real time    7.9265

 eigenvalue-minimisations  :  3074
 total energy-change (2. order) :-0.8573115E-06  (-0.8264294E-06)
 number of electron     393.0000055 magnetization 
 augmentation part      393.0000055 magnetization 

 Free energy of the ion-electron system (eV)
  ---------------------------------------------------
  alpha Z        PSCENC =       998.20052044
  Ewald energy   TEWEN  =     96938.27096431
  -Hartree energ DENC   =   -131111.56560369
  -exchange      EXHF   =         0.00000000
  -V(xc)+E(xc)   XCENC  =       520.04778161
  PAW double counting   =     35757.68970619   -35036.45508156
  entropy T*S    EENTRO =         0.00000000
  eigenvalues    EBANDS =     -1186.03532040
  atomic energy  EATOM  =     33007.19887442
  Solvation  Ediel_sol  =         0.00000000
  ---------------------------------------------------
  free energy    TOTEN  =      -112.64815870 eV

  energy without entropy =     -112.64815870  energy(sigma->0) =     -112.64815870


--------------------------------------------------------------------------------------------------------




 average (electrostatic) potential at core
  the test charge radii are     1.2098  1.0103
  (the norm of the test charge is              1.0000)
       1 -72.4115       2 -72.3828       3 -72.3828       4 -72.3829       5 -72.3928
       6 -72.3826       7 -72.3828       8 -72.3826       9 -72.3832      10 -72.7408
      11 -72.7048      12 -72.7406      13 -72.7048      14 -72.7045      15 -72.7256
      16 -72.7406      17 -72.7256      18 -72.7256      19 -72.6645      20 -72.7807
      21 -72.7806      22 -72.6902      23 -72.7806      24 -72.6900      25 -72.6645
      26 -72.6644      27 -72.6902      28 -72.3059      29 -72.3483      30 -72.3484
      31 -72.3484      32 -72.3482      33 -72.3484      34 -72.3482      35 -72.2971
      36 -48.0947
 
 
 
 E-fermi :   0.6428     XC(G=0):  -6.0685     alpha+bet : -5.6697

 Fermi energy:         0.6428272491

 k-point     1 :       0.0000    0.0000    0.0000
  band No.  band energies     occupation 
      1      -8.1688      2.00000
      2      -6.9797      2.00000
      3      -6.0457      2.00000
      4      -6.0239      2.00000
      5      -6.0139      2.00000
      6      -6.0139      2.00000
      7      -6.0020      2.00000
      8      -5.9789      2.00000
      9      -5.9789      2.00000
     10      -5.8575      2.00000
     11      -5.5407      2.00000
     12      -5.5233      2.00000
     13      -5.5233      2.00000
     14      -5.5018      2.00000
     15      -5.4898      2.00000
     16      -5.4898      2.00000
     17      -5.1473      2.00000
     18      -5.1473      2.00000
     19      -5.1333      2.00000
     20      -5.1230      2.00000
     21      -5.0992      2.00000
     22      -5.0992      2.00000
     23      -4.9636      2.00000
     24      -4.9634      2.00000
     25      -4.9634      2.00000
     26      -4.9447      2.00000
     27      -4.9345      2.00000
     28      -4.9344      2.00000
     29      -4.8035      2.00000
     30      -4.8035      2.00000
     31      -4.7890      2.00000
     32      -4.7828      2.00000
     33      -4.7828      2.00000
     34      -4.7666      2.00000
     35      -4.7632      2.00000
     36      -4.7631      2.00000
     37      -4.7474      2.00000
     38      -4.6437      2.00000
     39      -4.5906      2.00000
     40      -4.5906      2.00000
     41      -4.2969      2.00000
     42      -4.2969      2.00000
     43      -4.2618      2.00000
     44      -4.2285      2.00000
     45      -4.2285      2.00000
     46      -4.2227      2.00000
     47      -4.2179      2.00000
     48      -4.2178      2.00000
     49      -4.1637      2.00000
     50      -4.1637      2.00000
     51      -4.1420      2.00000
     52      -4.1284      2.00000
     53      -4.0700      2.00000
     54      -4.0632      2.00000
     55      -3.7080      2.00000
     56      -3.7034      2.00000
     57      -3.6817      2.00000
     58      -3.6810      2.00000
     59      -3.6810      2.00000
     60      -3.6650      2.00000
     61      -3.6650      2.00000
     62      -3.6323      2.00000
     63      -3.6323      2.00000
     64      -3.5747      2.00000
     65      -3.5747      2.00000
     66      -3.5295      2.00000
     67      -3.5295      2.00000
     68      -3.5272      2.00000
     69      -3.4805      2.00000
     70      -3.4680      2.00000
     71      -3.4679      2.00000
     72      -3.4493      2.00000
     73      -3.4323      2.00000
     74      -3.4306      2.00000
     75      -3.4305      2.00000
     76      -3.4267      2.00000
     77      -3.4267      2.00000
     78      -3.4069      2.00000
     79      -3.4069      2.00000
     80      -3.3699      2.00000
     81      -3.3699      2.00000
     82      -3.3512      2.00000
     83      -3.3052      2.00000
     84      -3.3051      2.00000
     85      -3.2924      2.00000
     86      -3.2923      2.00000
     87      -3.2923      2.00000
     88      -3.2248      2.00000
     89      -3.2143      2.00000
     90      -3.2143      2.00000
     91      -3.0455      2.00000
     92      -3.0455      2.00000
     93      -3.0282      2.00000
     94      -3.0282      2.00000
     95      -3.0208      2.00000
     96      -3.0208      2.00000
     97      -2.9106      2.00000
     98      -2.9106      2.00000
     99      -2.8471      2.00000
    100      -2.8317      2.00000
    101      -2.8317      2.00000
    102      -2.7905      2.00000
    103      -2.7850      2.00000
    104      -2.7850      2.00000
    105      -2.6436      2.00000
    106      -2.6181      2.00000
    107      -2.6181      2.00000
    108      -2.6121      2.00000
    109      -2.6103      2.00000
    110      -2.6103      2.00000
    111      -2.5841      2.00000
    112      -2.5058      2.00000
    113      -2.5046      2.00000
    114      -2.5033      2.00000
    115      -2.5033      2.00000
    116      -2.3747      2.00000
    117      -2.3394      2.00000
    118      -2.3394      2.00000
    119      -2.3188      2.00000
    120      -2.3188      2.00000
    121      -2.3063      2.00000
    122      -2.2639      2.00000
    123      -2.2639      2.00000
    124      -2.2313      2.00000
    125      -2.2313      2.00000
    126      -2.1891      2.00000
    127      -2.1891      2.00000
    128      -2.0753      2.00000
    129      -2.0753      2.00000
    130      -2.0699      2.00000
    131      -2.0582      2.00000
    132      -2.0582      2.00000
    133      -2.0519      2.00000
    134      -2.0519      2.00000
    135      -2.0493      2.00000
    136      -2.0483      2.00000
    137      -1.9879      2.00000
    138      -1.9879      2.00000
    139      -1.9244      2.00000
    140      -1.8989      2.00000
    141      -1.8988      2.00000
    142      -1.8225      2.00000
    143      -1.8077      2.00000
    144      -1.8077      2.00000
    145      -1.7918      2.00000
    146      -1.7918      2.00000
    147      -1.7756      2.00000
    148      -1.7756      2.00000
    149      -1.7620      2.00000
    150      -1.7434      2.00000
    151      -1.7406      2.00000
    152      -1.7406      2.00000
    153      -1.7345      2.00000
    154      -1.6294      2.00000
    155      -1.6128      2.00000
    156      -1.6072      2.00000
    157      -1.6072      2.00000
    158      -1.5978      2.00000
    159      -1.5957      2.00000
    160      -1.5957      2.00000
    161      -1.5842      2.00000
    162      -1.5660      2.00000
    163      -1.5660      2.00000
    164      -1.5374      2.00000
    165      -1.5373      2.00000
    166      -1.5265      2.00000
    167      -1.5265      2.00000
    168      -1.5076      2.00000
    169      -1.5076      2.00000
    170      -1.4905      2.00000
    171      -1.4890      2.00000
    172      -1.4856      2.00000
    173      -1.4852      2.00000
    174      -1.4852      2.00000
    175      -1.4523      2.00000
    176      -1.4375      2.00000
    177      -1.4190      2.00000
    178      -1.4162      2.00000
    179      -1.4162      2.00000
    180      -1.3825      2.00000
    181      -1.3825      2.00000
    182      -1.3419      2.00000
    183      -1.3080      2.00000
    184      -1.3079      2.00000
    185      -1.2208      2.00000
    186      -1.2208      2.00000
    187      -1.1795      2.00000
    188      -1.1794      2.00000
    189      -1.1652      2.00000
    190      -1.1380      2.00000
    191      -0.3642      2.00000
    192      -0.0273      2.00000
    193       0.0001      2.00000
    194       0.0001      2.00000
    195       0.0976      2.00000
    196       0.0976      2.00000
    197       0.1169      2.00000
    198       0.5030      2.00000
    199       0.5030      2.00000
    200       0.5632      2.82591
    201       0.5632      2.73069
    202       0.7806      0.00000
    203       1.0569      0.00000
    204       2.2277      0.00000
    205       2.2846      0.00000
    206       2.2846      0.00000
    207       2.3573      0.00000
    208       2.3573      0.00000
    209       2.3821      0.00000
    210       3.4261      0.00000
    211       3.4261      0.00000
    212       3.4577      0.00000
    213       3.4577      0.00000
    214       3.5102      0.00000
    215       3.5914      0.00000
    216       4.1052      0.00000
    217       4.4048      0.00000
    218       5.2276      0.00000
    219       5.2503      0.00000
    220       5.2503      0.00000
    221       5.3022      0.00000
    222       5.3580      0.00000
    223       5.3580      0.00000
    224       5.3968      0.00000
    225       5.3968      0.00000
    226       5.4225      0.00000
    227       5.4225      0.00000
    228       5.4302      0.00000
    229       5.5857      0.00000
    230       6.1374      0.00000
    231       6.1760      0.00000
    232       6.8602      0.00000
    233       6.9288      0.00000
    234       6.9288      0.00000
    235       6.9390      0.00000
    236       6.9893      0.00000
    237       6.9894      0.00000
    238       7.0240      0.00000
    239       7.0547      0.00000
    240       7.0549      0.00000
    241       7.0817      0.00000
    242       7.1038      0.00000
    243       7.1038      0.00000
    244       7.3588      0.00000
    245       7.3596      0.00000
    246       7.3610      0.00000
    247       7.3762      0.00000
    248       7.3774      0.00000
    249       7.5321      0.00000
    250       7.7867      0.00000
    251       7.8435      0.00000
    252       7.9753      0.00000

 k-point     2 :       0.1250   -0.0000    0.0000
  band No.  band energies     occupation 
      1      -8.1179      2.00000
      2      -6.9299      2.00000
      3      -6.2583      2.00000
      4      -6.0839      2.00000
      5      -6.0739      2.00000
      6      -5.9950      2.00000
      7      -5.8982      2.00000
      8      -5.8810      2.00000
      9      -5.8676      2.00000
     10      -5.8131      2.00000
     11      -5.5623      2.00000
     12      -5.5310      2.00000
     13      -5.5066      2.00000
     14      -5.4992      2.00000
     15      -5.4722      2.00000
     16      -5.4664      2.00000
     17      -5.1921      2.00000
     18      -5.1384      2.00000
     19      -5.1379      2.00000
     20      -5.1008      2.00000
     21      -5.0777      2.00000
     22      -5.0773      2.00000
     23      -5.0307      2.00000
     24      -4.9796      2.00000
     25      -4.9729      2.00000
     26      -4.9215      2.00000
     27      -4.9018      2.00000
     28      -4.8671      2.00000
     29      -4.8653      2.00000
     30      -4.8458      2.00000
     31      -4.8420      2.00000
     32      -4.8334      2.00000
     33      -4.7616      2.00000
     34      -4.7475      2.00000
     35      -4.7312      2.00000
     36      -4.6674      2.00000
     37      -4.6451      2.00000
     38      -4.6033      2.00000
     39      -4.5753      2.00000
     40      -4.5649      2.00000
     41      -4.3626      2.00000
     42      -4.3594      2.00000
     43      -4.3078      2.00000
     44      -4.2841      2.00000
     45      -4.2661      2.00000
     46      -4.2643      2.00000
     47      -4.2426      2.00000
     48      -4.1753      2.00000
     49      -4.1386      2.00000
     50      -4.1103      2.00000
     51      -4.0923      2.00000
     52      -4.0844      2.00000
     53      -4.0615      2.00000
     54      -4.0577      2.00000
     55      -3.7608      2.00000
     56      -3.7307      2.00000
     57      -3.7205      2.00000
     58      -3.7113      2.00000
     59      -3.7098      2.00000
     60      -3.6918      2.00000
     61      -3.6704      2.00000
     62      -3.6644      2.00000
     63      -3.6580      2.00000
     64      -3.6143      2.00000
     65      -3.6128      2.00000
     66      -3.5938      2.00000
     67      -3.5915      2.00000
     68      -3.5569      2.00000
     69      -3.5556      2.00000
     70      -3.5443      2.00000
     71      -3.5135      2.00000
     72      -3.4846      2.00000
     73      -3.4739      2.00000
     74      -3.4686      2.00000
     75      -3.4612      2.00000
     76      -3.4293      2.00000
     77      -3.3961      2.00000
     78      -3.3836      2.00000
     79      -3.3831      2.00000
     80      -3.3560      2.00000
     81      -3.3340      2.00000
     82      -3.3096      2.00000
     83      -3.2887      2.00000
     84      -3.2858      2.00000
     85      -3.2683      2.00000
     86      -3.2377      2.00000
     87      -3.2373      2.00000
     88      -3.2236      2.00000
     89      -3.1858      2.00000
     90      -3.1424      2.00000
     91      -3.1366      2.00000
     92      -3.1273      2.00000
     93      -3.0435      2.00000
     94      -3.0376      2.00000
     95      -2.9542      2.00000
     96      -2.9395      2.00000
     97      -2.9249      2.00000
     98      -2.8943      2.00000
     99      -2.8861      2.00000
    100      -2.8745      2.00000
    101      -2.8505      2.00000
    102      -2.8246      2.00000
    103      -2.7997      2.00000
    104      -2.7310      2.00000
    105      -2.7068      2.00000
    106      -2.7043      2.00000
    107      -2.6538      2.00000
    108      -2.6444      2.00000
    109      -2.6428      2.00000
    110      -2.6212      2.00000
    111      -2.6130      2.00000
    112      -2.6028      2.00000
    113      -2.5721      2.00000
    114      -2.5590      2.00000
    115      -2.5446      2.00000
    116      -2.5256      2.00000
    117      -2.4830      2.00000
    118      -2.4780      2.00000
    119      -2.4435      2.00000
    120      -2.3485      2.00000
    121      -2.3311      2.00000
    122      -2.3051      2.00000
    123      -2.2758      2.00000
    124      -2.2646      2.00000
    125      -2.2421      2.00000
    126      -2.2236      2.00000
    127      -2.2073      2.00000
    128      -2.2040      2.00000
    129      -2.1960      2.00000
    130      -2.1536      2.00000
    131      -2.1300      2.00000
    132      -2.1273      2.00000
    133      -2.1053      2.00000
    134      -2.0554      2.00000
    135      -2.0482      2.00000
    136      -2.0216      2.00000
    137      -1.9840      2.00000
    138      -1.9812      2.00000
    139      -1.9585      2.00000
    140      -1.9566      2.00000
    141      -1.9158      2.00000
    142      -1.9071      2.00000
    143      -1.8731      2.00000
    144      -1.8447      2.00000
    145      -1.7930      2.00000
    146      -1.7871      2.00000
    147      -1.7727      2.00000
    148      -1.7478      2.00000
    149      -1.7433      2.00000
    150      -1.7231      2.00000
    151      -1.7129      2.00000
    152      -1.6973      2.00000
    153      -1.6607      2.00000
    154      -1.6420      2.00000
    155      -1.6217      2.00000
    156      -1.6076      2.00000
    157      -1.5981      2.00000
    158      -1.5911      2.00000
    159      -1.5783      2.00000
    160      -1.5598      2.00000
    161      -1.5528      2.00000
    162      -1.5420      2.00000
    163      -1.5257      2.00000
    164      -1.5190      2.00000
    165      -1.5073      2.00000
    166      -1.5040      2.00000
    167      -1.4854      2.00000
    168      -1.4680      2.00000
    169      -1.4639      2.00000
    170      -1.4343      2.00000
    171      -1.4312      2.00000
    172      -1.4171      2.00000
    173      -1.3819      2.00000
    174      -1.3588      2.00000
    175      -1.3504      2.00000
    176      -1.3282      2.00000
    177      -1.3021      2.00000
    178      -1.2726      2.00000
    179      -1.2609      2.00000
    180      -1.2523      2.00000
    181      -1.2437      2.00000
    182      -1.2273      2.00000
    183      -1.2062      2.00000
    184      -1.1920      2.00000
    185      -1.1768      2.00000
    186      -1.1489      2.00000
    187      -1.1248      2.00000
    188      -1.0517      2.00000
    189      -1.0322      2.00000
    190      -0.9516      2.00000
    191      -0.3189      2.00000
    192      -0.2662      2.00000
    193      -0.1062      2.00000
    194      -0.0946      2.00000
    195       0.2520      2.00000
    196       0.2610      2.00000
    197       0.4369      2.00000
    198       0.5210      2.00000
    199       0.5297      2.14287
    200       0.6490      0.39056
    201       0.6544      0.30728
    202       0.8929      0.00000
    203       1.2094      0.00000
    204       1.8459      0.00000
    205       2.1070      0.00000
    206       2.1209      0.00000
    207       2.6040      0.00000
    208       2.6237      0.00000
    209       2.7626      0.00000
    210       2.7879      0.00000
    211       2.9012      0.00000
    212       3.5090      0.00000
    213       3.5126      0.00000
    214       3.7493      0.00000
    215       3.8587      0.00000
    216       4.1126      0.00000
    217       4.2905      0.00000
    218       4.7530      0.00000
    219       4.9726      0.00000
    220       5.0223      0.00000
    221       5.1021      0.00000
    222       5.1264      0.00000
    223       5.2594      0.00000
    224       5.3222      0.00000
    225       5.5227      0.00000
    226       5.5278      0.00000
    227       5.6273      0.00000
    228       5.6424      0.00000
    229       5.6697      0.00000
    230       6.0968      0.00000
    231       6.2521      0.00000
    232       6.2574      0.00000
    233       6.5207      0.00000
    234       6.5463      0.00000
    235       6.6591      0.00000
    236       6.6695      0.00000
    237       6.7157      0.00000
    238       6.8957      0.00000
    239       6.9359      0.00000
    240       6.9724      0.00000
    241       6.9857      0.00000
    242       7.0762      0.00000
    243       7.3666      0.00000
    244       7.3723      0.00000
    245       7.4148      0.00000
    246       7.4841      0.00000
    247       7.5731      0.00000
    248       7.6916      0.00000
    249       7.7173      0.00000
    250       7.8456      0.00000
    251       7.8718      0.00000
    252       7.8759      0.00000

 k-point     3 :       0.2500   -0.0000    0.0000
  band No.  band energies     occupation 
      1      -7.9670      2.00000
      2      -6.7839      2.00000
      3      -6.6165      2.00000
      4      -6.1262      2.00000
      5      -6.1159      2.00000
      6      -5.8585      2.00000
      7      -5.8274      2.00000
      8      -5.7416      2.00000
      9      -5.7314      2.00000
     10      -5.7055      2.00000
     11      -5.6678      2.00000
     12      -5.5983      2.00000
     13      -5.4392      2.00000
     14      -5.4344      2.00000
     15      -5.4069      2.00000
     16      -5.4043      2.00000
     17      -5.2763      2.00000
     18      -5.1320      2.00000
     19      -5.1251      2.00000
     20      -5.1011      2.00000
     21      -5.0667      2.00000
     22      -5.0414      2.00000
     23      -5.0249      2.00000
     24      -4.9936      2.00000
     25      -4.9917      2.00000
     26      -4.9738      2.00000
     27      -4.9672      2.00000
     28      -4.9288      2.00000
     29      -4.9141      2.00000
[...]
  0.000   0.000   0.000   2.000   0.000   0.000   0.000   0.000   0.000   0.000   0.000   0.000   0.000   0.000   0.000   0.000
  0.000   0.000   0.000   0.000   2.000   0.000   0.000   0.000   0.000   0.000   0.000   0.000   0.000   0.000   0.000   0.000
  0.000   0.000   0.000   0.000   0.000   0.000   0.000   0.000   0.000   0.000   0.000   0.000   0.000   0.000   0.000   0.000
  0.000   0.000   0.000   0.000   0.000   0.000   0.000   0.000   0.000   0.000   0.000   0.000   0.000   0.000   0.000   0.000
  0.000   0.000   0.000   0.000   0.000   0.000   0.000   0.000   0.000   0.000   0.000   0.000   0.000   0.000   0.000   0.000
  0.000   0.000   0.000   0.000   0.000   0.000   0.000   0.000   0.000   0.000   0.000   0.000   0.000   0.000   0.000   0.000
  0.000   0.000   0.000   0.000   0.000   0.000   0.000   0.000   0.000   0.000   0.000   0.000   0.000   0.000   0.000   0.000
  0.000   0.000   0.000   0.000   0.000   0.000   0.000   0.000   0.000   0.000   1.000   0.000   0.000   0.000   0.000   0.000
  0.000   0.000   0.000   0.000   0.000   0.000   0.000   0.000   0.000   0.000   0.000   0.000   0.000   0.000   0.000   0.000
  0.000   0.000   0.000   0.000   0.000   0.000   0.000   0.000   0.000   0.000   0.000   0.000   0.000   0.000   0.000   0.000
  0.000   0.000   0.000   0.000   0.000   0.000   0.000   0.000   0.000   0.000   0.000   0.000   0.000   0.000   0.000   0.000
  0.000   0.000   0.000   0.000   0.000   0.000   0.000   0.000   0.000   0.000   0.000   0.000   0.000   0.000   0.000   0.000
  0.000   0.000   0.000   0.000   0.000   0.000   0.000   0.000   0.000   0.000   0.000   0.000   0.000   0.000   0.000   0.000
  0.000   0.000   0.000   0.000   0.000   0.000   0.000   0.000   0.000   0.000   0.000   0.000   0.000   0.000   0.000   0.000
  0.000   0.000   0.000   0.000   0.000   0.000   0.000   0.000   0.000   0.000   0.000   0.000   0.000   0.000   0.000   0.000


------------------------ aborting loop because EDIFF is reached ----------------------------------------





 total charge

# of ion       s       p       d       tot
------------------------------------------
    1        0.546   0.239   8.766   9.551
    2        0.544   0.241   8.765   9.550
    3        0.544   0.241   8.765   9.550
    4        0.544   0.241   8.765   9.550
    5        0.542   0.242   8.762   9.546
    6        0.544   0.241   8.765   9.550
    7        0.544   0.241   8.765   9.550
    8        0.544   0.241   8.765   9.550
    9        0.544   0.239   8.768   9.551
   10        0.523   0.308   8.768   9.599
   11        0.521   0.308   8.780   9.609
   12        0.523   0.308   8.768   9.599
   13        0.521   0.308   8.780   9.609
   14        0.521   0.308   8.780   9.609
   15        0.518   0.308   8.776   9.602
   16        0.523   0.308   8.768   9.599
   17        0.518   0.308   8.776   9.602
   18        0.518   0.308   8.776   9.602
   19        0.516   0.300   8.775   9.592
   20        0.544   0.331   8.751   9.626
   21        0.544   0.331   8.751   9.626
   22        0.511   0.309   8.777   9.597
   23        0.544   0.331   8.751   9.626
   24        0.511   0.309   8.777   9.597
   25        0.516   0.300   8.775   9.592
   26        0.516   0.300   8.775   9.592
   27        0.511   0.309   8.777   9.597
   28        0.538   0.224   8.765   9.527
   29        0.559   0.239   8.750   9.548
   30        0.559   0.239   8.750   9.548
   31        0.559   0.239   8.750   9.548
   32        0.559   0.239   8.750   9.548
   33        0.559   0.239   8.750   9.548
   34        0.559   0.239   8.750   9.548
   35        0.534   0.224   8.766   9.524
   36        0.317   0.239   6.204   6.760
--------------------------------------------------
tot         19.041   9.886 312.999 341.925
 
    CHARGE:  cpu time    0.6640: real time    0.6648
    FORLOC:  cpu time    0.0092: real time    0.0092
    FORNL :  cpu time    2.5451: real time    2.5484
    STRESS:  cpu time    4.4446: real time    4.4457
    FORCOR:  cpu time    0.0427: real time    0.0428
    FORHAR:  cpu time    0.0158: real time    0.0159
    OFIELD:  cpu time    0.0003: real time    0.0003

  FORCE on cell =-STRESS in cart. coord.  units (eV):
  Direction    XX          YY          ZZ          XY          YZ          ZX
  --------------------------------------------------------------------------------------
  Alpha Z   998.20052   998.20052   998.20052
  Ewald  119535.95352119535.95392************    -0.00032    -0.00009    -0.00016
  Hartree128162.48207128162.48207************     0.00000    -0.00002    -0.00005
  E(xc)   -1765.90101 -1765.90098 -1773.09281    -0.00002    -0.00000    -0.00000
  Local  ************************260267.08167     0.00176     0.00005     0.00010
  n-local  -108.16108   -59.27368   -58.63495    23.23267    -1.25151     1.33631
  augment  2402.64644  2402.64801  2419.17959    -0.00136     0.00003     0.00004
  Kinetic  5407.43248  5423.91861  5471.38235     8.20348    -0.33401     0.99946
  Fock        0.00000     0.00000     0.00000     0.00000     0.00000     0.00000
  -------------------------------------------------------------------------------------
  Total     -24.80236   -24.80236     1.54544    -0.00000     0.00000     0.00000
  in kB     -26.61314   -26.61314     1.65827    -0.00000     0.00000     0.00000
  external pressure =      -17.19 kB  Pullay stress =        0.00 kB


 VOLUME and BASIS-vectors are now :
 -----------------------------------------------------------------------------
  energy-cutoff  :      500.00
  volume of cell :     1493.16
      direct lattice vectors                 reciprocal lattice vectors
     8.813512802  0.000000000  0.000000000     0.113462137 -0.065507406  0.000000000
     4.406756909  7.632725690  0.000000000     0.000000000  0.131014796  0.000000000
     0.000000000  0.000000000 22.196203232     0.000000000  0.000000000  0.045052750

  length of vectors
     8.813512802  8.813512802 22.196203232     0.131014796  0.131014796  0.045052750


 FORCES acting on ions
    electron-ion (+dipol)            ewald-force                    non-local-force                 convergence-correction
 -----------------------------------------------------------------------------------------------
   -.198E-04 -.163E-04 0.247E+04   0.519E-04 0.433E-04 -.247E+04   -.119E-17 0.779E-18 -.742E+00   -.237E-03 -.150E-03 -.271E+00
   0.521E+00 0.266E+00 0.247E+04   -.555E+00 -.297E+00 -.247E+04   0.247E-01 0.298E-01 -.296E+00   0.427E-02 0.348E-02 -.339E+00
   -.521E+00 0.266E+00 0.247E+04   0.555E+00 -.297E+00 -.247E+04   -.247E-01 0.298E-01 -.296E+00   -.395E-02 0.541E-02 -.338E+00
   0.491E+00 0.318E+00 0.247E+04   -.534E+00 -.332E+00 -.247E+04   0.381E-01 0.646E-02 -.296E+00   0.521E-02 0.190E-02 -.339E+00
   0.742E-05 -.239E-04 0.247E+04   0.951E-04 0.173E-05 -.247E+04   -.200E-17 0.267E-17 -.228E+00   0.428E-02 0.260E-02 -.331E+00
   -.492E+00 0.318E+00 0.247E+04   0.534E+00 -.332E+00 -.247E+04   -.381E-01 0.646E-02 -.296E+00   -.675E-02 0.281E-02 -.338E+00
   -.299E-01 -.585E+00 0.247E+04   0.205E-01 0.629E+00 -.247E+04   0.135E-01 -.362E-01 -.296E+00   0.277E-02 -.614E-02 -.338E+00
   0.299E-01 -.585E+00 0.247E+04   -.207E-01 0.629E+00 -.247E+04   -.135E-01 -.362E-01 -.296E+00   -.926E-03 -.723E-02 -.338E+00
   0.198E-04 -.415E-04 0.247E+04   0.166E-03 -.201E-04 -.247E+04   -.146E-17 -.909E-18 -.426E+00   -.459E-02 -.237E-02 -.334E+00
   0.417E+01 0.241E+01 0.808E+03   -.383E+01 -.221E+01 -.808E+03   -.248E+00 -.143E+00 -.662E+00   -.601E-01 -.348E-01 0.306E+00
   0.149E-04 0.481E+01 0.816E+03   0.147E-03 -.489E+01 -.816E+03   0.148E-08 0.223E-01 -.311E+00   0.404E-02 0.143E-01 0.410E+00
   -.417E+01 0.241E+01 0.808E+03   0.383E+01 -.221E+01 -.808E+03   0.248E+00 -.143E+00 -.662E+00   0.588E-01 -.337E-01 0.305E+00
   0.416E+01 -.240E+01 0.816E+03   -.423E+01 0.244E+01 -.816E+03   0.193E-01 -.111E-01 -.311E+00   0.147E-01 -.337E-02 0.410E+00
   -.416E+01 -.240E+01 0.816E+03   0.423E+01 0.244E+01 -.816E+03   -.193E-01 -.111E-01 -.311E+00   -.703E-02 -.420E-02 0.409E+00
   0.315E-04 0.334E+01 0.811E+03   0.236E-03 -.344E+01 -.811E+03   0.186E-08 0.280E-01 -.470E+00   -.224E-02 0.325E-01 0.333E+00
   -.214E-04 -.482E+01 0.808E+03   0.162E-03 0.442E+01 -.808E+03   0.191E-07 0.286E+00 -.662E+00   -.183E-04 0.677E-01 0.305E+00
   0.289E+01 -.167E+01 0.811E+03   -.298E+01 0.172E+01 -.811E+03   0.242E-01 -.140E-01 -.470E+00   0.272E-01 -.177E-01 0.333E+00
   -.289E+01 -.167E+01 0.811E+03   0.298E+01 0.172E+01 -.811E+03   -.242E-01 -.140E-01 -.470E+00   -.268E-01 -.157E-01 0.334E+00
   -.402E-04 0.120E+01 -.884E+03   0.547E-04 -.135E+01 0.883E+03   0.251E-08 0.376E-01 0.458E+00   -.315E-02 0.113E+00 0.959E+00
   0.187E+02 0.108E+02 -.854E+03   -.184E+02 -.106E+02 0.853E+03   -.805E+00 -.465E+00 -.718E+00   0.498E+00 0.287E+00 0.172E+01
   -.187E+02 0.108E+02 -.854E+03   0.184E+02 -.106E+02 0.853E+03   0.805E+00 -.465E+00 -.718E+00   -.502E+00 0.288E+00 0.171E+01
   -.501E+00 0.289E+00 -.872E+03   -.439E-01 0.253E-01 0.870E+03   0.340E+00 -.196E+00 0.524E+00   0.206E+00 -.122E+00 0.107E+01
   -.100E-04 -.216E+02 -.854E+03   0.141E-03 0.213E+02 0.853E+03   0.619E-07 0.930E+00 -.718E+00   -.221E-02 -.579E+00 0.171E+01
   0.501E+00 0.289E+00 -.872E+03   0.437E-01 0.252E-01 0.870E+03   -.340E+00 -.196E+00 0.524E+00   -.211E+00 -.122E+00 0.107E+01
   -.104E+01 -.598E+00 -.884E+03   0.117E+01 0.676E+00 0.883E+03   -.326E-01 -.188E-01 0.458E+00   -.102E+00 -.588E-01 0.958E+00
   0.104E+01 -.598E+00 -.884E+03   -.117E+01 0.676E+00 0.883E+03   0.326E-01 -.188E-01 0.458E+00   0.970E-01 -.594E-01 0.959E+00
   0.102E-04 -.578E+00 -.872E+03   0.198E-03 -.506E-01 0.870E+03   0.262E-07 0.393E+00 0.524E+00   -.291E-02 0.239E+00 0.107E+01
   -.977E-05 -.118E-04 -.250E+04   0.280E-04 0.316E-04 0.250E+04   0.746E-17 0.136E-17 0.608E+00   0.214E-04 -.384E-05 0.704E+00
   0.727E+01 0.103E+02 -.250E+04   -.697E+01 -.985E+01 0.250E+04   -.752E+00 -.115E+01 0.207E+00   0.453E+00 0.708E+00 0.645E+00
   -.727E+01 0.103E+02 -.250E+04   0.697E+01 -.985E+01 0.250E+04   0.752E+00 -.115E+01 0.207E+00   -.453E+00 0.709E+00 0.644E+00
   0.125E+02 0.115E+01 -.250E+04   -.120E+02 -.111E+01 0.250E+04   -.137E+01 -.763E-01 0.207E+00   0.840E+00 0.386E-01 0.645E+00
   -.125E+02 0.115E+01 -.250E+04   0.120E+02 -.111E+01 0.250E+04   0.137E+01 -.763E-01 0.207E+00   -.841E+00 0.394E-01 0.644E+00
   0.528E+01 -.114E+02 -.250E+04   -.504E+01 0.110E+02 0.250E+04   -.619E+00 0.123E+01 0.207E+00   0.388E+00 -.747E+00 0.644E+00
   -.528E+01 -.114E+02 -.250E+04   0.504E+01 0.110E+02 0.250E+04   0.619E+00 0.123E+01 0.207E+00   -.386E+00 -.748E+00 0.644E+00
   0.345E-04 -.320E-04 -.250E+04   0.143E-03 -.469E-04 0.250E+04   -.200E-17 0.509E-18 0.657E+00   -.436E-02 -.222E-02 0.654E+00
   -.314E-04 0.500E-06 -.175E+04   0.846E-04 0.789E-05 0.174E+04   -.713E-18 -.478E-18 0.308E+01   0.437E-02 0.267E-02 0.801E+00
 -----------------------------------------------------------------------------------------------
   -.791E-03 -.773E-03 -.159E+02   0.113E-12 0.322E-12 -.955E-11   -.271E-17 0.317E-19 -.112E+01   -.126E-01 -.660E-02 0.174E+02
 
 
 POSITION                                       TOTAL-FORCE (eV/Angst)
 -----------------------------------------------------------------------------------
      0.00000      0.00000      5.28038         0.000000      0.000000     -0.109329
      2.93784      0.00000      5.28038        -0.004311      0.004079     -0.070074
      5.87568      0.00000      5.28038         0.004311      0.004079     -0.070074
      1.46892      2.54424      5.28038         0.001377     -0.005773     -0.070074
      4.40676      2.54424      5.28038         0.000000      0.000000     -0.101647
      7.34459      2.54424      5.28038        -0.001377     -0.005773     -0.070074
      2.93784      5.08848      5.28038         0.005688      0.001694     -0.070074
      5.87568      5.08848      5.28038        -0.005688      0.001694     -0.070074
      8.81351      5.08848      5.28038         0.000000      0.000000     -0.090477
      1.46892      0.84808      7.67911         0.042132      0.024325      0.131943
      4.40676      0.84808      7.67911        -0.000000     -0.046180      0.028531
      7.34459      0.84808      7.67911        -0.042132      0.024325      0.131943
      2.93784      3.39232      7.67911        -0.039993      0.023090      0.028531
      5.87568      3.39232      7.67911         0.039993      0.023090      0.028531
      8.81351      3.39232      7.67911        -0.000000     -0.041177      0.101270
      4.40676      5.93656      7.67911        -0.000000     -0.048650      0.131943
      7.34459      5.93656      7.67911        -0.035660      0.020588      0.101270
     10.28243      5.93656      7.67911         0.035660      0.020588      0.101270
      8.81351      1.69603     10.07519        -0.000000     -0.004557     -0.015606
      2.95264      1.70471     10.05068        -0.009528     -0.005501     -0.025277
      5.86088      1.70471     10.05068         0.009528     -0.005501     -0.025277
     10.26798      4.24875     10.06116         0.004364     -0.002520     -0.009946
      4.40676      4.22331     10.05068         0.000000      0.011002     -0.025277
      7.35905      4.24875     10.06116        -0.004364     -0.002520     -0.009946
     11.75147      6.78471     10.07519         0.003946      0.002278     -0.015606
      5.87556      6.78471     10.07519        -0.003946      0.002278     -0.015606
      8.81351      6.76796     10.06116         0.000000      0.005039     -0.009946
      0.00000      0.00000     12.48698         0.000000      0.000000     -0.006331
      2.98147      0.07441     12.46921        -0.002064      0.000944      0.009688
      5.83205      0.07441     12.46921         0.002064      0.000944      0.009688
      1.55518      2.54482     12.46921        -0.000214     -0.002259      0.009688
      7.25833      2.54482     12.46921         0.000214     -0.002259      0.009688
      2.98047      5.01349     12.46921         0.001849      0.001315      0.009688
      5.83305      5.01349     12.46921        -0.001849      0.001315      0.009688
      8.81351      5.08848     12.49182         0.000000     -0.000000     -0.000393
      4.40676      2.54424     12.16047         0.000000      0.000000      0.037742
 -----------------------------------------------------------------------------------
    total drift:                               -0.013402     -0.007374      0.454677


--------------------------------------------------------------------------------------------------------



  FREE ENERGIE OF THE ION-ELECTRON SYSTEM (eV)
  ---------------------------------------------------
  free  energy   TOTEN  =      -112.64815870 eV

  energy  without entropy=     -112.64815870  energy(sigma->0) =     -112.64815870
 


--------------------------------------------------------------------------------------------------------


    POTLOK:  cpu time    0.0432: real time    0.0432


--------------------------------------------------------------------------------------------------------


 stress matrix after NEB project (eV)
    -24.80236     -0.00000      0.00000
     -0.00000    -24.80236      0.00000
      0.00000      0.00000      1.54544
  FORCES: max atom, RMS     0.037742    0.012365
  FORCE total and by dimension    0.074192    0.037742
  Stress total and by dimension   35.109859   24.802358
     LOOP+:  cpu time  121.8511: real time  122.3894
 -----------------------------------------------------------------------------
|                                                                             |
|           W    W    AA    RRRRR   N    N  II  N    N   GGGG   !!!           |
|           W    W   A  A   R    R  NN   N  II  NN   N  G    G  !!!           |
|           W    W  A    A  R    R  N N  N  II  N N  N  G       !!!           |
|           W WW W  AAAAAA  RRRRR   N  N N  II  N  N N  G  GGG   !            |
|           WW  WW  A    A  R   R   N   NN  II  N   NN  G    G                |
|           W    W  A    A  R    R  N    N  II  N    N   GGGG   !!!           |
|                                                                             |
|     Tetrahedron method does not include variations of the Fermi             |
|     occupations, so forces and stress will be inaccurate. We suggest        |
|     using a different smearing scheme ISMEAR = 1 or 2 for metals in         |
|     relaxations.                                                            |
|                                                                             |
 -----------------------------------------------------------------------------

    4ORBIT:  cpu time    0.0000: real time    0.0000



 total charge

# of ion       s       p       d       tot
------------------------------------------
    1        0.546   0.239   8.766   9.551
    2        0.544   0.241   8.765   9.550
    3        0.544   0.241   8.765   9.550
    4        0.544   0.241   8.765   9.550
    5        0.542   0.242   8.762   9.546
    6        0.544   0.241   8.765   9.550
    7        0.544   0.241   8.765   9.550
    8        0.544   0.241   8.765   9.550
    9        0.544   0.239   8.768   9.551
   10        0.523   0.308   8.768   9.599
   11        0.521   0.308   8.780   9.609
   12        0.523   0.308   8.768   9.599
   13        0.521   0.308   8.780   9.609
   14        0.521   0.308   8.780   9.609
   15        0.518   0.308   8.776   9.602
   16        0.523   0.308   8.768   9.599
   17        0.518   0.308   8.776   9.602
   18        0.518   0.308   8.776   9.602
   19        0.516   0.300   8.775   9.592
   20        0.544   0.331   8.751   9.626
   21        0.544   0.331   8.751   9.626
   22        0.511   0.309   8.777   9.597
   23        0.544   0.331   8.751   9.626
   24        0.511   0.309   8.777   9.597
   25        0.516   0.300   8.775   9.592
   26        0.516   0.300   8.775   9.592
   27        0.511   0.309   8.777   9.597
   28        0.538   0.224   8.765   9.527
   29        0.559   0.239   8.750   9.548
   30        0.559   0.239   8.750   9.548
   31        0.559   0.239   8.750   9.548
   32        0.559   0.239   8.750   9.548
   33        0.559   0.239   8.750   9.548
   34        0.559   0.239   8.750   9.548
   35        0.534   0.224   8.766   9.524
   36        0.317   0.239   6.204   6.760
--------------------------------------------------
tot         19.041   9.886 312.999 341.925
 
 BZINTS: Fermi energy:    0.642827;  393.000000 electrons
         Band energy:-0.118604E+04;  BLOECHL correction:   -0.051282

 total amount of memory used by VASP MPI-rank0   120976. kBytes
=======================================================================

   base      :      30000. kBytes
   nonlr-proj:      13388. kBytes
   fftplans  :       4330. kBytes
   grid      :      17098. kBytes
   one-center:        559. kBytes
   wavefun   :      55601. kBytes
 
  
  
 General timing and accounting informations for this job:
 ========================================================
  
                  Total CPU time used (sec):      129.532
                            User time (sec):      125.586
                          System time (sec):        3.946
                         Elapsed time (sec):      130.529
  
                   Maximum memory used (kb):      375636.
                   Average memory used (kb):          N/A
  
                          Minor page faults:        79355
                          Major page faults:            0
                 Voluntary context switches:         5838
