PROCAR new format
# of k-points:   10         # of bands:  252         # of ions:   36

 k-point     1 :    0.00000000 0.00000000 0.00000000     weight = 0.01562500

band     1 # energy   -8.16881802 # occ.  2.00000000
 
ion      s      p      d    tot
    1  0.007  0.001  0.000  0.007
    2  0.007  0.001  0.000  0.007
    3  0.007  0.001  0.000  0.007
    4  0.007  0.001  0.000  0.007
    5  0.007  0.001  0.000  0.007
    6  0.007  0.001  0.000  0.007
    7  0.007  0.001  0.000  0.007
    8  0.007  0.001  0.000  0.007
    9  0.007  0.001  0.000  0.007
   10  0.027  0.000  0.000  0.027
   11  0.027  0.000  0.000  0.028
   12  0.027  0.000  0.000  0.027
   13  0.027  0.000  0.000  0.028
   14  0.027  0.000  0.000  0.028
   15  0.027  0.000  0.000  0.027
   16  0.027  0.000  0.000  0.027
   17  0.027  0.000  0.000  0.027
   18  0.027  0.000  0.000  0.027
   19  0.023  0.000  0.000  0.024
   20  0.025  0.000  0.000  0.026
   21  0.025  0.000  0.000  0.026
   22  0.025  0.000  0.000  0.025
   23  0.025  0.000  0.000  0.026
   24  0.025  0.000  0.000  0.025
   25  0.023  0.000  0.000  0.024
   26  0.023  0.000  0.000  0.024
   27  0.025  0.000  0.000  0.025
   28  0.005  0.000  0.000  0.005
   29  0.005  0.000  0.000  0.005
   30  0.005  0.000  0.000  0.005
   31  0.005  0.000  0.000  0.005
   32  0.005  0.000  0.000  0.005
   33  0.005  0.000  0.000  0.005
   34  0.005  0.000  0.000  0.005
   35  0.005  0.000  0.000  0.005
   36  0.004  0.001  0.000  0.004
tot    0.565  0.012  0.003  0.580
 
band     2 # energy   -6.97971110 # occ.  2.00000000
 
ion      s      p      d    tot
    1  0.017  0.000  0.001  0.019
    2  0.017  0.000  0.001  0.018
    3  0.017  0.000  0.001  0.018
    4  0.017  0.000  0.001  0.018
    5  0.017  0.000  0.001  0.018
    6  0.017  0.000  0.001  0.018
    7  0.017  0.000  0.001  0.018
    8  0.017  0.000  0.001  0.018
    9  0.017  0.000  0.001  0.018
   10  0.010  0.002  0.002  0.014
   11  0.010  0.002  0.003  0.014
   12  0.010  0.002  0.002  0.014
   13  0.010  0.002  0.003  0.014
   14  0.010  0.002  0.003  0.014
   15  0.010  0.002  0.003  0.014
   16  0.010  0.002  0.002  0.014
   17  0.010  0.002  0.003  0.014
   18  0.010  0.002  0.003  0.014
   19  0.015  0.001  0.004  0.019
   20  0.015  0.001  0.004  0.020
   21  0.015  0.001  0.004  0.020
   22  0.016  0.001  0.004  0.020
   23  0.015  0.001  0.004  0.020
   24  0.016  0.001  0.004  0.020
   25  0.015  0.001  0.004  0.019
   26  0.015  0.001  0.004  0.019
   27  0.016  0.001  0.004  0.020
   28  0.014  0.001  0.000  0.014
   29  0.013  0.001  0.000  0.014
   30  0.013  0.001  0.000  0.014
   31  0.013  0.001  0.000  0.014
   32  0.013  0.001  0.000  0.014
   33  0.013  0.001  0.000  0.014
   34  0.013  0.001  0.000  0.014
   35  0.014  0.001  0.000  0.015
   36  0.008  0.001  0.000  0.009
tot    0.493  0.032  0.071  0.597
 
band     3 # energy   -6.04570768 # occ.  2.00000000
 
ion      s      p      d    tot
    1  0.013  0.000  0.022  0.035
    2  0.018  0.000  0.018  0.036
    3  0.018  0.000  0.018  0.036
    4  0.018  0.000  0.018  0.036
    5  0.012  0.000  0.018  0.030
    6  0.018  0.000  0.018  0.036
    7  0.018  0.000  0.018  0.036
    8  0.018  0.000  0.018  0.036
    9  0.033  0.000  0.014  0.046
   10  0.011  0.001  0.023  0.034
   11  0.017  0.001  0.019  0.037
   12  0.011  0.001  0.023  0.034
   13  0.017  0.001  0.019  0.037
   14  0.017  0.001  0.019  0.037
   15  0.000  0.000  0.027  0.028
   16  0.011  0.001  0.023  0.034
   17  0.000  0.000  0.027  0.028
   18  0.000  0.000  0.027  0.028
   19  0.001  0.000  0.005  0.006
   20  0.003  0.001  0.006  0.010
   21  0.003  0.001  0.006  0.010
   22  0.003  0.001  0.002  0.006
   23  0.003  0.001  0.006  0.010
   24  0.003  0.001  0.002  0.006
   25  0.001  0.000  0.005  0.006
   26  0.001  0.000  0.005  0.006
   27  0.003  0.001  0.002  0.006
   28  0.003  0.000  0.000  0.003
   29  0.001  0.000  0.001  0.003
   30  0.001  0.000  0.001  0.003
   31  0.001  0.000  0.001  0.003
   32  0.001  0.000  0.001  0.003
   33  0.001  0.000  0.001  0.003
   34  0.001  0.000  0.001  0.003
   35  0.004  0.000  0.000  0.004
   36  0.000  0.000  0.000  0.001
tot    0.287  0.016  0.413  0.716
 
band     4 # energy   -6.02385511 # occ.  2.00000000
 
ion      s      p      d    tot
    1  0.015  0.000  0.000  0.016
    2  0.003  0.001  0.008  0.011
    3  0.003  0.001  0.008  0.011
    4  0.003  0.001  0.008  0.011
    5  0.009  0.000  0.004  0.013
    6  0.003  0.001  0.008  0.011
    7  0.003  0.001  0.008  0.011
    8  0.003  0.001  0.008  0.011
    9  0.003  0.002  0.008  0.013
   10  0.002  0.000  0.033  0.035
   11  0.002  0.002  0.015  0.020
   12  0.002  0.000  0.033  0.035
   13  0.002  0.002  0.015  0.020
   14  0.002  0.002  0.015  0.020
   15  0.040  0.002  0.006  0.048
   16  0.002  0.000  0.033  0.035
   17  0.040  0.002  0.006  0.048
   18  0.040  0.002  0.006  0.048
   19  0.000  0.001  0.021  0.022
   20  0.024  0.001  0.014  0.038
   21  0.023  0.001  0.014  0.038
   22  0.014  0.003  0.006  0.023
   23  0.023  0.001  0.014  0.038
   24  0.014  0.003  0.006  0.023
   25  0.000  0.001  0.021  0.022
   26  0.000  0.001  0.021  0.022
   27  0.014  0.003  0.006  0.023
   28  0.000  0.000  0.000  0.001
   29  0.000  0.000  0.004  0.004
   30  0.000  0.000  0.004  0.004
   31  0.000  0.000  0.004  0.004
   32  0.000  0.000  0.004  0.004
   33  0.000  0.000  0.004  0.004
   34  0.000  0.000  0.004  0.004
   35  0.004  0.001  0.000  0.005
   36  0.006  0.002  0.001  0.009
tot    0.297  0.038  0.369  0.704
 
band     5 # energy   -6.01389601 # occ.  2.00000000
 
ion      s      p      d    tot
    1  0.000  0.000  0.005  0.006
    2  0.007  0.001  0.004  0.012
    3  0.005  0.001  0.003  0.008
    4  0.007  0.001  0.004  0.012
    5  0.000  0.001  0.010  0.011
    6  0.000  0.000  0.003  0.004
    7  0.005  0.001  0.003  0.009
    8  0.000  0.000  0.003  0.004
    9  0.000  0.001  0.002  0.003
   10  0.000  0.001  0.028  0.029
   11  0.046  0.002  0.015  0.062
   12  0.011  0.001  0.012  0.024
   13  0.047  0.002  0.015  0.063
   14  0.000  0.002  0.039  0.040
   15  0.012  0.001  0.013  0.026
   16  0.011  0.001  0.012  0.024
   17  0.012  0.001  0.013  0.026
   18  0.000  0.005  0.003  0.007
   19  0.000  0.001  0.010  0.011
   20  0.000  0.004  0.021  0.025
   21  0.035  0.001  0.014  0.051
   22  0.027  0.002  0.011  0.040
   23  0.035  0.002  0.014  0.050
   24  0.000  0.000  0.037  0.037
   25  0.000  0.003  0.005  0.008
   26  0.000  0.001  0.010  0.011
   27  0.027  0.002  0.012  0.040
   28  0.000  0.000  0.001  0.001
   29  0.001  0.000  0.002  0.003
   30  0.006  0.001  0.003  0.010
   31  0.001  0.000  0.002  0.003
   32  0.003  0.001  0.003  0.007
   33  0.006  0.001  0.003  0.010
   34  0.003  0.001  0.003  0.007
   35  0.000  0.000  0.006  0.007
   36  0.000  0.001  0.001  0.003
tot    0.307  0.043  0.345  0.694
 
band     6 # energy   -6.01387364 # occ.  2.00000000
 
ion      s      p      d    tot
    1  0.000  0.000  0.005  0.006
    2  0.001  0.000  0.003  0.004
    3  0.003  0.001  0.004  0.008
    4  0.001  0.000  0.003  0.004
    5  0.000  0.001  0.010  0.011
    6  0.008  0.001  0.003  0.012
    7  0.003  0.001  0.004  0.007
    8  0.008  0.001  0.003  0.012
    9  0.000  0.001  0.002  0.003
   10  0.015  0.002  0.007  0.023
   11  0.016  0.002  0.030  0.048
   12  0.004  0.001  0.023  0.028
   13  0.015  0.002  0.031  0.048
   14  0.062  0.001  0.007  0.070
   15  0.004  0.003  0.006  0.013
   16  0.004  0.001  0.023  0.028
   17  0.004  0.003  0.006  0.013
   18  0.016  0.000  0.016  0.032
   19  0.000  0.002  0.007  0.009
   20  0.047  0.001  0.012  0.059
   21  0.011  0.003  0.019  0.033
   22  0.009  0.001  0.028  0.038
   23  0.012  0.003  0.019  0.033
   24  0.036  0.002  0.003  0.041
   25  0.000  0.000  0.012  0.013
   26  0.000  0.002  0.007  0.009
   27  0.009  0.001  0.028  0.038
   28  0.000  0.000  0.001  0.001
   29  0.006  0.001  0.003  0.010
   30  0.000  0.000  0.003  0.003
   31  0.006  0.001  0.003  0.010
   32  0.004  0.001  0.002  0.006
   33  0.000  0.000  0.003  0.004
   34  0.004  0.001  0.002  0.006
   35  0.000  0.000  0.006  0.007
   36  0.000  0.001  0.001  0.003
tot    0.307  0.043  0.345  0.694
 
band     7 # energy   -6.00201249 # occ.  2.00000000
 
ion      s      p      d    tot
    1  0.009  0.001  0.001  0.011
    2  0.000  0.001  0.006  0.007
    3  0.000  0.001  0.006  0.007
    4  0.000  0.001  0.006  0.007
    5  0.016  0.002  0.001  0.018
    6  0.000  0.001  0.006  0.007
    7  0.000  0.001  0.006  0.007
    8  0.000  0.001  0.006  0.007
    9  0.000  0.000  0.001  0.001
   10  0.026  0.003  0.002  0.031
   11  0.020  0.001  0.023  0.045
   12  0.026  0.003  0.002  0.031
   13  0.020  0.001  0.023  0.045
   14  0.021  0.001  0.023  0.045
   15  0.000  0.001  0.024  0.025
   16  0.026  0.003  0.002  0.031
   17  0.000  0.001  0.024  0.025
   18  0.000  0.001  0.023  0.025
   19  0.025  0.002  0.005  0.033
   20  0.004  0.002  0.016  0.023
   21  0.005  0.002  0.016  0.023
   22  0.010  0.000  0.026  0.036
   23  0.005  0.002  0.016  0.023
   24  0.010  0.000  0.026  0.036
   25  0.025  0.002  0.005  0.033
   26  0.025  0.002  0.005  0.033
   27  0.010  0.000  0.026  0.036
   28  0.011  0.001  0.001  0.013
   29  0.000  0.000  0.004  0.004
   30  0.000  0.000  0.004  0.004
   31  0.000  0.000  0.004  0.004
   32  0.000  0.000  0.004  0.004
   33  0.000  0.000  0.004  0.004
   34  0.000  0.000  0.004  0.004
   35  0.004  0.001  0.002  0.008
   36  0.000  0.000  0.000  0.000
tot    0.300  0.041  0.354  0.695
 
band     8 # energy   -5.97893870 # occ.  2.00000000
 
ion      s      p      d    tot
    1  0.000  0.001  0.007  0.008
    2  0.007  0.001  0.004  0.013
    3  0.005  0.001  0.003  0.010
    4  0.007  0.001  0.004  0.013
    5  0.000  0.000  0.002  0.002
    6  0.000  0.000  0.004  0.004
    7  0.005  0.001  0.003  0.010
    8  0.000  0.000  0.004  0.004
    9  0.000  0.001  0.010  0.011
   10  0.049  0.001  0.014  0.064
   11  0.000  0.003  0.010  0.013
   12  0.012  0.003  0.016  0.031
   13  0.000  0.003  0.010  0.013
   14  0.000  0.001  0.014  0.014
   15  0.013  0.001  0.036  0.049
   16  0.013  0.003  0.016  0.032
   17  0.012  0.001  0.037  0.049
   18  0.049  0.002  0.003  0.054
   19  0.013  0.001  0.026  0.040
   20  0.010  0.001  0.007  0.018
   21  0.002  0.001  0.018  0.022
   22  0.004  0.003  0.008  0.015
   23  0.003  0.001  0.018  0.022
   24  0.017  0.000  0.014  0.031
   25  0.050  0.002  0.005  0.056
   26  0.012  0.001  0.026  0.040
   27  0.004  0.003  0.008  0.016
   28  0.000  0.001  0.006  0.007
   29  0.000  0.000  0.002  0.002
   30  0.004  0.001  0.002  0.006
   31  0.000  0.000  0.002  0.002
   32  0.002  0.001  0.003  0.005
   33  0.004  0.001  0.002  0.006
   34  0.002  0.001  0.003  0.005
   35  0.000  0.000  0.002  0.002
   36  0.000  0.000  0.001  0.001
tot    0.300  0.042  0.351  0.693
 
band     9 # energy   -5.97890477 # occ.  2.00000000
 
ion      s      p      d    tot
    1  0.000  0.001  0.007  0.008
    2  0.001  0.001  0.003  0.005
    3  0.003  0.001  0.004  0.008
    4  0.001  0.001  0.003  0.005
    5  0.000  0.000  0.002  0.002
    6  0.008  0.001  0.004  0.014
    7  0.003  0.001  0.004  0.008
    8  0.008  0.001  0.004  0.014
    9  0.000  0.001  0.010  0.011
   10  0.000  0.004  0.017  0.021
   11  0.000  0.001  0.013  0.014
   12  0.038  0.001  0.014  0.053
   13  0.000  0.001  0.013  0.014
   14  0.000  0.003  0.009  0.013
   15  0.036  0.001  0.014  0.052
   16  0.037  0.001  0.014  0.053
   17  0.037  0.001  0.014  0.052
   18  0.000  0.000  0.048  0.048
   19  0.037  0.002  0.012  0.051
   20  0.000  0.001  0.022  0.023
   21  0.008  0.001  0.011  0.020
   22  0.013  0.001  0.012  0.026
   23  0.008  0.001  0.011  0.020
   24  0.000  0.004  0.006  0.010
   25  0.000  0.001  0.033  0.035
   26  0.037  0.002  0.012  0.051
   27  0.013  0.001  0.012  0.026
   28  0.000  0.001  0.006  0.007
   29  0.004  0.001  0.002  0.007
   30  0.000  0.000  0.002  0.003
   31  0.004  0.001  0.002  0.007
   32  0.002  0.000  0.002  0.004
   33  0.000  0.000  0.002  0.003
   34  0.002  0.000  0.002  0.004
   35  0.000  0.000  0.002  0.002
   36  0.000  0.000  0.001  0.001
tot    0.300  0.042  0.351  0.693
 
band    10 # energy   -5.85754610 # occ.  2.00000000
 
ion      s      p      d    tot
    1  0.000  0.000  0.000  0.000
    2  0.000  0.000  0.000  0.001
    3  0.000  0.000  0.000  0.001
    4  0.000  0.000  0.000  0.001
    5  0.001  0.000  0.000  0.001
    6  0.000  0.000  0.000  0.001
    7  0.000  0.000  0.000  0.001
    8  0.000  0.000  0.000  0.001
    9  0.000  0.000  0.000  0.000
   10  0.000  0.000  0.003  0.003
   11  0.001  0.000  0.002  0.003
   12  0.000  0.000  0.003  0.003
   13  0.001  0.000  0.002  0.003
   14  0.001  0.000  0.002  0.003
   15  0.000  0.000  0.003  0.004
   16  0.000  0.000  0.003  0.003
   17  0.000  0.000  0.003  0.004
   18  0.000  0.000  0.003  0.004
   19  0.006  0.001  0.020  0.027
   20  0.004  0.001  0.026  0.030
   21  0.004  0.001  0.026  0.030
   22  0.007  0.001  0.028  0.036
   23  0.004  0.001  0.026  0.030
   24  0.007  0.001  0.028  0.036
   25  0.006  0.001  0.020  0.027
   26  0.006  0.001  0.020  0.027
   27  0.007  0.001  0.028  0.036
   28  0.027  0.000  0.022  0.049
   29  0.026  0.000  0.022  0.048
   30  0.026  0.000  0.022  0.048
   31  0.026  0.000  0.022  0.048
   32  0.026  0.000  0.022  0.048
   33  0.026  0.000  0.022  0.048
   34  0.026  0.000  0.022  0.048
   35  0.030  0.000  0.023  0.053
   36  0.009  0.000  0.004  0.012
tot    0.276  0.011  0.430  0.718
 
band    11 # energy   -5.54068061 # occ.  2.00000000
 
ion      s      p      d    tot
    1  0.016  0.002  0.002  0.020
    2  0.000  0.001  0.008  0.009
    3  0.000  0.001  0.008  0.009
    4  0.000  0.001  0.008  0.009
    5  0.000  0.000  0.002  0.002
    6  0.000  0.001  0.008  0.009
    7  0.000  0.001  0.008  0.009
    8  0.000  0.001  0.008  0.009
    9  0.016  0.001  0.000  0.017
   10  0.010  0.002  0.012  0.023
   11  0.003  0.000  0.041  0.044
   12  0.010  0.002  0.012  0.023
   13  0.003  0.000  0.041  0.044
   14  0.003  0.000  0.041  0.044
   15  0.002  0.001  0.028  0.031
   16  0.010  0.002  0.012  0.023
   17  0.002  0.001  0.028  0.031
   18  0.002  0.001  0.028  0.031
   19  0.006  0.001  0.011  0.018
   20  0.001  0.000  0.047  0.048
   21  0.001  0.000  0.047  0.048
   22  0.011  0.001  0.022  0.034
   23  0.001  0.000  0.047  0.048
   24  0.011  0.001  0.022  0.034
   25  0.006  0.001  0.011  0.018
   26  0.006  0.001  0.011  0.018
   27  0.011  0.001  0.022  0.034
   28  0.010  0.001  0.001  0.013
   29  0.000  0.001  0.006  0.006
   30  0.000  0.001  0.006  0.006
   31  0.000  0.001  0.006  0.006
   32  0.000  0.001  0.006  0.006
   33  0.000  0.001  0.006  0.006
   34  0.000  0.001  0.006  0.006
   35  0.009  0.001  0.002  0.012
   36  0.001  0.000  0.000  0.001
tot    0.152  0.028  0.572  0.752
 
band    12 # energy   -5.52326427 # occ.  2.00000000
 
ion      s      p      d    tot
    1  0.000  0.001  0.004  0.004
    2  0.000  0.001  0.005  0.006
    3  0.009  0.001  0.005  0.015
    4  0.000  0.001  0.005  0.006
    5  0.000  0.001  0.011  0.013
    6  0.005  0.001  0.004  0.010
    7  0.009  0.001  0.005  0.015
    8  0.005  0.001  0.004  0.010
    9  0.000  0.000  0.009  0.009
   10  0.000  0.001  0.049  0.050
   11  0.015  0.001  0.021  0.037
   12  0.006  0.002  0.019  0.027
   13  0.015  0.001  0.022  0.037
   14  0.000  0.000  0.053  0.053
   15  0.002  0.000  0.020  0.023
   16  0.006  0.002  0.019  0.027
   17  0.002  0.000  0.020  0.022
   18  0.000  0.001  0.010  0.012
   19  0.007  0.000  0.019  0.026
   20  0.000  0.000  0.066  0.066
   21  0.018  0.001  0.022  0.041
   22  0.003  0.001  0.019  0.023
   23  0.019  0.001  0.021  0.041
   24  0.000  0.001  0.036  0.037
   25  0.000  0.001  0.013  0.014
   26  0.007  0.000  0.019  0.026
   27  0.003  0.001  0.019  0.023
   28  0.000  0.001  0.008  0.009
   29  0.002  0.001  0.004  0.006
   30  0.010  0.001  0.004  0.015
   31  0.002  0.001  0.004  0.006
   32  0.003  0.001  0.004  0.009
   33  0.010  0.001  0.004  0.015
   34  0.004  0.001  0.004  0.009
   35  0.000  0.000  0.004  0.004
   36  0.000  0.002  0.002  0.004
tot    0.160  0.032  0.555  0.747
 
band    13 # energy   -5.52326048 # occ.  2.00000000
 
ion      s      p      d    tot
    1  0.000  0.001  0.004  0.004
    2  0.009  0.001  0.004  0.014
    3  0.001  0.000  0.005  0.006
    4  0.009  0.001  0.004  0.014
    5  0.000  0.001  0.011  0.013
    6  0.004  0.001  0.005  0.010
    7  0.001  0.000  0.005  0.006
    8  0.004  0.001  0.005  0.010
    9  0.000  0.000  0.009  0.009
   10  0.008  0.002  0.009  0.019
   11  0.005  0.000  0.043  0.048
   12  0.002  0.001  0.039  0.042
   13  0.005  0.000  0.042  0.048
   14  0.020  0.001  0.011  0.032
   15  0.001  0.001  0.014  0.015
   16  0.002  0.001  0.039  0.042
   17  0.001  0.001  0.014  0.015
   18  0.002  0.000  0.024  0.026
   19  0.002  0.001  0.015  0.018
   20  0.025  0.002  0.006  0.032
   21  0.006  0.000  0.051  0.058
   22  0.001  0.001  0.030  0.032
   23  0.006  0.000  0.052  0.058
   24  0.004  0.001  0.013  0.018
   25  0.009  0.000  0.021  0.030
   26  0.002  0.001  0.015  0.018
   27  0.001  0.001  0.030  0.032
   28  0.000  0.001  0.008  0.009
   29  0.008  0.001  0.004  0.014
   30  0.000  0.001  0.004  0.005
   31  0.009  0.001  0.004  0.014
   32  0.007  0.001  0.004  0.011
   33  0.000  0.001  0.004  0.005
   34  0.006  0.001  0.004  0.011
   35  0.000  0.000  0.004  0.004
   36  0.000  0.002  0.002  0.004
tot    0.160  0.032  0.555  0.747
 
band    14 # energy   -5.50176638 # occ.  2.00000000
 
ion      s      p      d    tot
    1  0.006  0.000  0.001  0.007
    2  0.000  0.001  0.009  0.009
    3  0.000  0.001  0.009  0.009
    4  0.000  0.001  0.009  0.009
    5  0.019  0.002  0.001  0.021
    6  0.000  0.001  0.009  0.009
    7  0.000  0.001  0.009  0.009
    8  0.000  0.001  0.009  0.009
    9  0.004  0.001  0.002  0.007
   10  0.000  0.000  0.044  0.044
   11  0.006  0.002  0.014  0.021
   12  0.000  0.000  0.044  0.044
   13  0.006  0.002  0.014  0.021
   14  0.006  0.002  0.014  0.021
   15  0.007  0.001  0.024  0.032
   16  0.000  0.000  0.044  0.044
   17  0.007  0.001  0.024  0.032
   18  0.007  0.001  0.024  0.032
   19  0.008  0.000  0.042  0.051
   20  0.011  0.002  0.008  0.021
   21  0.011  0.002  0.008  0.021
   22  0.001  0.000  0.033  0.034
   23  0.011  0.002  0.008  0.021
   24  0.001  0.000  0.033  0.034
   25  0.008  0.000  0.043  0.051
   26  0.008  0.000  0.042  0.051
   27  0.001  0.000  0.033  0.034
   28  0.000  0.000  0.005  0.006
   29  0.000  0.000  0.005  0.006
   30  0.000  0.000  0.005  0.006
   31  0.000  0.000  0.005  0.006
   32  0.000  0.000  0.005  0.006
   33  0.000  0.000  0.005  0.006
   34  0.000  0.000  0.005  0.006
   35  0.004  0.001  0.000  0.005
   36  0.010  0.002  0.000  0.013
tot    0.146  0.029  0.584  0.759
 
band    15 # energy   -5.48983942 # occ.  2.00000000
 
ion      s      p      d    tot
    1  0.000  0.001  0.015  0.016
    2  0.010  0.001  0.005  0.016
    3  0.002  0.000  0.005  0.007
    4  0.010  0.001  0.005  0.016
    5  0.000  0.000  0.005  0.005
    6  0.003  0.001  0.006  0.010
    7  0.002  0.000  0.005  0.007
    8  0.003  0.001  0.006  0.010
    9  0.000  0.001  0.007  0.009
   10  0.000  0.001  0.029  0.030
   11  0.001  0.001  0.020  0.022
   12  0.007  0.000  0.023  0.030
   13  0.001  0.001  0.020  0.022
   14  0.000  0.001  0.020  0.021
   15  0.011  0.002  0.021  0.034
   16  0.007  0.000  0.023  0.030
   17  0.011  0.002  0.021  0.034
   18  0.000  0.000  0.065  0.065
   19  0.013  0.001  0.020  0.034
   20  0.000  0.002  0.018  0.019
   21  0.000  0.001  0.021  0.022
   22  0.018  0.001  0.021  0.040
   23  0.000  0.001  0.021  0.022
   24  0.000  0.000  0.034  0.034
   25  0.000  0.000  0.066  0.067
   26  0.013  0.001  0.020  0.034
   27  0.018  0.001  0.021  0.040
   28  0.000  0.001  0.005  0.005
   29  0.005  0.001  0.004  0.010
   30  0.000  0.000  0.004  0.005
   31  0.005  0.001  0.004  0.010
   32  0.003  0.001  0.002  0.006
   33  0.000  0.000  0.004  0.005
   34  0.003  0.001  0.002  0.006
   35  0.000  0.001  0.008  0.009
   36  0.000  0.000  0.000  0.000
tot    0.149  0.029  0.574  0.752
 
band    16 # energy   -5.48982561 # occ.  2.00000000
 
ion      s      p      d    tot
    1  0.000  0.001  0.015  0.016
    2  0.000  0.000  0.006  0.006
    3  0.008  0.001  0.005  0.015
    4  0.000  0.000  0.006  0.006
    5  0.000  0.000  0.005  0.005
    6  0.007  0.001  0.005  0.013
    7  0.008  0.001  0.005  0.015
    8  0.007  0.001  0.005  0.012
    9  0.000  0.001  0.007  0.009
   10  0.009  0.000  0.021  0.030
   11  0.000  0.001  0.020  0.021
   12  0.002  0.001  0.027  0.030
   13  0.000  0.001  0.020  0.021
   14  0.001  0.001  0.020  0.022
   15  0.004  0.001  0.050  0.055
   16  0.002  0.001  0.027  0.030
   17  0.004  0.001  0.051  0.055
   18  0.015  0.002  0.006  0.023
   19  0.004  0.001  0.051  0.056
   20  0.000  0.000  0.022  0.022
   21  0.000  0.001  0.019  0.020
   22  0.006  0.001  0.029  0.036
   23  0.000  0.001  0.019  0.020
   24  0.024  0.001  0.017  0.042
   25  0.018  0.001  0.004  0.023
   26  0.004  0.001  0.051  0.056
   27  0.006  0.001  0.029  0.036
   28  0.000  0.001  0.005  0.005
   29  0.001  0.000  0.003  0.004
   30  0.006  0.001  0.003  0.009
   31  0.001  0.000  0.003  0.004
   32  0.003  0.001  0.005  0.008
   33  0.006  0.001  0.003  0.009
   34  0.003  0.001  0.005  0.008
   35  0.000  0.001  0.008  0.009
   36  0.000  0.000  0.000  0.000
tot    0.149  0.029  0.574  0.752
 
band    17 # energy   -5.14725144 # occ.  2.00000000
 
ion      s      p      d    tot
    1  0.000  0.000  0.017  0.017
    2  0.011  0.001  0.013  0.024
    3  0.003  0.001  0.010  0.014
    4  0.011  0.001  0.013  0.024
    5  0.000  0.000  0.032  0.033
    6  0.002  0.000  0.016  0.019
    7  0.003  0.001  0.010  0.013
    8  0.002  0.000  0.016  0.018
    9  0.000  0.001  0.008  0.009
   10  0.000  0.000  0.007  0.007
   11  0.000  0.000  0.042  0.043
   12  0.000  0.000  0.015  0.015
   13  0.000  0.000  0.043  0.043
   14  0.000  0.000  0.046  0.047
   15  0.000  0.000  0.044  0.044
   16  0.000  0.000  0.015  0.015
   17  0.000  0.000  0.044  0.044
   18  0.000  0.000  0.030  0.030
   19  0.001  0.000  0.011  0.012
   20  0.000  0.000  0.025  0.025
   21  0.001  0.000  0.038  0.039
   22  0.000  0.000  0.036  0.036
   23  0.001  0.000  0.038  0.039
   24  0.000  0.000  0.033  0.033
   25  0.000  0.000  0.011  0.011
   26  0.001  0.000  0.011  0.012
   27  0.000  0.000  0.036  0.037
   28  0.000  0.000  0.013  0.013
   29  0.004  0.001  0.006  0.010
   30  0.010  0.001  0.010  0.021
   31  0.003  0.001  0.006  0.010
   32  0.002  0.001  0.010  0.013
   33  0.010  0.001  0.010  0.021
   34  0.002  0.001  0.011  0.013
   35  0.000  0.000  0.018  0.018
   36  0.000  0.002  0.001  0.003
tot    0.067  0.016  0.743  0.825
 
band    18 # energy   -5.14725028 # occ.  2.00000000
 
ion      s      p      d    tot
    1  0.000  0.000  0.017  0.017
    2  0.000  0.001  0.013  0.013
    3  0.007  0.000  0.016  0.024
    4  0.000  0.001  0.013  0.013
    5  0.000  0.000  0.032  0.033
    6  0.008  0.001  0.010  0.019
    7  0.008  0.000  0.016  0.024
    8  0.009  0.001  0.010  0.019
    9  0.000  0.001  0.008  0.009
   10  0.000  0.000  0.017  0.018
   11  0.000  0.000  0.045  0.046
   12  0.000  0.000  0.010  0.010
   13  0.000  0.000  0.045  0.045
   14  0.000  0.000  0.041  0.041
   15  0.000  0.000  0.034  0.035
   16  0.000  0.000  0.009  0.009
   17  0.000  0.000  0.035  0.035
   18  0.000  0.000  0.048  0.049
   19  0.000  0.000  0.011  0.011
   20  0.001  0.000  0.042  0.044
   21  0.000  0.000  0.029  0.030
   22  0.000  0.000  0.034  0.034
   23  0.000  0.000  0.029  0.029
   24  0.000  0.000  0.037  0.037
   25  0.001  0.000  0.011  0.012
   26  0.000  0.000  0.011  0.011
   27  0.000  0.000  0.034  0.034
   28  0.000  0.000  0.013  0.013
   29  0.007  0.001  0.012  0.019
   30  0.000  0.001  0.008  0.008
   31  0.007  0.001  0.012  0.019
   32  0.009  0.001  0.007  0.016
   33  0.000  0.001  0.008  0.008
   34  0.008  0.001  0.007  0.016
   35  0.000  0.000  0.018  0.018
   36  0.000  0.002  0.001  0.003
tot    0.067  0.016  0.743  0.825
 
band    19 # energy   -5.13330545 # occ.  2.00000000
 
ion      s      p      d    tot
    1  0.017  0.001  0.000  0.019
    2  0.000  0.001  0.019  0.020
    3  0.000  0.001  0.019  0.020
    4  0.000  0.001  0.019  0.020
    5  0.018  0.000  0.012  0.030
    6  0.000  0.001  0.019  0.020
    7  0.000  0.001  0.019  0.020
    8  0.000  0.001  0.019  0.020
    9  0.000  0.000  0.009  0.010
   10  0.000  0.000  0.030  0.031
   11  0.000  0.000  0.033  0.033
   12  0.000  0.000  0.031  0.031
   13  0.000  0.000  0.033  0.033
   14  0.000  0.000  0.033  0.034
   15  0.000  0.000  0.040  0.040
   16  0.000  0.000  0.031  0.031
   17  0.000  0.000  0.040  0.040
   18  0.000  0.000  0.040  0.040
   19  0.000  0.000  0.025  0.026
   20  0.000  0.000  0.019  0.020
   21  0.000  0.000  0.019  0.020
   22  0.001  0.000  0.026  0.028
   23  0.000  0.000  0.019  0.020
   24  0.001  0.000  0.026  0.028
   25  0.000  0.000  0.025  0.026
   26  0.000  0.000  0.025  0.026
   27  0.001  0.000  0.026  0.028
   28  0.015  0.001  0.002  0.017
   29  0.000  0.000  0.013  0.014
   30  0.000  0.000  0.013  0.014
   31  0.000  0.000  0.013  0.014
   32  0.000  0.000  0.013  0.014
   33  0.000  0.000  0.013  0.014
   34  0.000  0.000  0.013  0.014
   35  0.008  0.000  0.005  0.013
   36  0.000  0.000  0.001  0.001
tot    0.064  0.014  0.745  0.823
 
band    20 # energy   -5.12304573 # occ.  2.00000000
 
ion      s      p      d    tot
    1  0.003  0.000  0.015  0.018
    2  0.000  0.001  0.018  0.019
    3  0.000  0.001  0.018  0.019
    4  0.000  0.001  0.018  0.019
    5  0.010  0.001  0.004  0.014
    6  0.000  0.001  0.018  0.019
    7  0.000  0.001  0.018  0.019
    8  0.000  0.001  0.018  0.019
    9  0.025  0.001  0.005  0.031
   10  0.000  0.000  0.045  0.045
   11  0.000  0.001  0.044  0.045
   12  0.000  0.000  0.045  0.045
   13  0.000  0.001  0.044  0.045
   14  0.000  0.001  0.044  0.044
   15  0.000  0.000  0.030  0.030
   16  0.000  0.000  0.045  0.045
   17  0.000  0.000  0.030  0.030
   18  0.000  0.000  0.030  0.031
   19  0.001  0.000  0.021  0.023
   20  0.001  0.000  0.037  0.038
   21  0.001  0.000  0.037  0.038
   22  0.000  0.000  0.018  0.018
   23  0.001  0.000  0.037  0.038
   24  0.000  0.000  0.017  0.018
   25  0.001  0.000  0.021  0.023
   26  0.001  0.000  0.021  0.023
   27  0.000  0.000  0.018  0.018
   28  0.000  0.000  0.003  0.003
   29  0.000  0.000  0.007  0.008
   30  0.000  0.000  0.007  0.008
   31  0.000  0.000  0.007  0.008
   32  0.000  0.000  0.007  0.008
   33  0.000  0.000  0.007  0.008
   34  0.000  0.000  0.007  0.008
   35  0.002  0.000  0.000  0.003
   36  0.005  0.000  0.002  0.007
tot    0.053  0.016  0.762  0.831
 
band    21 # energy   -5.09920960 # occ.  2.00000000
 
ion      s      p      d    tot
    1  0.000  0.001  0.016  0.018
    2  0.001  0.001  0.015  0.017
    3  0.007  0.001  0.018  0.025
    4  0.001  0.001  0.015  0.017
    5  0.000  0.001  0.012  0.013
    6  0.014  0.001  0.011  0.026
    7  0.007  0.001  0.018  0.025
    8  0.014  0.001  0.011  0.026
    9  0.000  0.000  0.035  0.035
   10  0.000  0.000  0.072  0.072
   11  0.000  0.000  0.038  0.038
   12  0.000  0.001  0.060  0.060
   13  0.000  0.000  0.038  0.038
   14  0.000  0.000  0.026  0.026
   15  0.000  0.001  0.027  0.028
   16  0.000  0.001  0.060  0.060
   17  0.000  0.001  0.027  0.028
   18  0.000  0.000  0.029  0.029
   19  0.001  0.000  0.033  0.034
   20  0.000  0.001  0.020  0.020
   21  0.000  0.000  0.021  0.022
   22  0.003  0.000  0.015  0.018
   23  0.000  0.000  0.021  0.022
   24  0.000  0.000  0.006  0.006
   25  0.000  0.000  0.020  0.021
   26  0.001  0.000  0.033  0.034
   27  0.003  0.000  0.015  0.018
   28  0.000  0.000  0.009  0.009
   29  0.002  0.000  0.004  0.007
   30  0.000  0.000  0.006  0.006
   31  0.002  0.000  0.004  0.007
   32  0.002  0.000  0.002  0.005
   33  0.000  0.000  0.006  0.006
   34  0.002  0.000  0.002  0.005
   35  0.000  0.001  0.005  0.006
   36  0.000  0.000  0.001  0.001
tot    0.059  0.016  0.751  0.827
 
band    22 # energy   -5.09920343 # occ.  2.00000000
 
ion      s      p      d    tot
    1  0.000  0.001  0.016  0.018
    2  0.013  0.001  0.015  0.028
    3  0.008  0.001  0.011  0.020
    4  0.013  0.001  0.015  0.028
    5  0.000  0.001  0.012  0.013
    6  0.001  0.001  0.019  0.020
    7  0.008  0.001  0.011  0.020
    8  0.001  0.001  0.019  0.020
    9  0.000  0.000  0.035  0.035
   10  0.000  0.001  0.056  0.056
   11  0.000  0.000  0.030  0.030
   12  0.000  0.000  0.068  0.068
   13  0.000  0.000  0.030  0.030
   14  0.000  0.000  0.042  0.043
   15  0.000  0.001  0.028  0.029
   16  0.000  0.000  0.068  0.068