PROCAR new format
# of k-points:   10         # of bands:  252         # of ions:   37

 k-point     1 :    0.00000000 0.00000000 0.00000000     weight = 0.01562500

band     1 # energy  -13.03707424 # occ.  2.00000000
 
ion      s      p      d    tot
    1  0.000  0.000  0.000  0.000
    2  0.000  0.000  0.000  0.000
    3  0.000  0.000  0.000  0.000
    4  0.000  0.000  0.000  0.000
    5  0.000  0.000  0.000  0.000
    6  0.000  0.000  0.000  0.000
    7  0.000  0.000  0.000  0.000
    8  0.000  0.000  0.000  0.000
    9  0.000  0.000  0.000  0.000
   10  0.000  0.000  0.000  0.000
   11  0.000  0.000  0.000  0.000
   12  0.000  0.000  0.000  0.000
   13  0.000  0.000  0.000  0.000
   14  0.000  0.000  0.000  0.000
   15  0.000  0.000  0.000  0.000
   16  0.000  0.000  0.000  0.000
   17  0.000  0.000  0.000  0.000
   18  0.000  0.000  0.000  0.000
   19  0.000  0.000  0.000  0.000
   20  0.000  0.000  0.000  0.001
   21  0.000  0.000  0.000  0.001
   22  0.000  0.000  0.000  0.000
   23  0.000  0.000  0.000  0.001
   24  0.000  0.000  0.000  0.000
   25  0.000  0.000  0.000  0.000
   26  0.000  0.000  0.000  0.000
   27  0.000  0.000  0.000  0.000
   28  0.000  0.000  0.000  0.000
   29  0.000  0.000  0.000  0.000
   30  0.000  0.000  0.000  0.000
   31  0.000  0.000  0.000  0.000
   32  0.000  0.000  0.000  0.000
   33  0.000  0.000  0.000  0.000
   34  0.000  0.000  0.000  0.000
   35  0.000  0.000  0.000  0.000
   36  0.080  0.061  0.158  0.299
   37  0.613  0.023  0.000  0.636
tot    0.694  0.086  0.160  0.940
 
band     2 # energy   -6.36672034 # occ.  2.00000000
 
ion      s      p      d    tot
    1  0.006  0.001  0.000  0.006
    2  0.005  0.001  0.000  0.006
    3  0.005  0.001  0.000  0.006
    4  0.005  0.001  0.000  0.006
    5  0.005  0.001  0.000  0.006
    6  0.005  0.001  0.000  0.006
    7  0.005  0.001  0.000  0.006
    8  0.005  0.001  0.000  0.006
    9  0.005  0.000  0.000  0.006
   10  0.022  0.000  0.000  0.022
   11  0.023  0.000  0.000  0.023
   12  0.022  0.000  0.000  0.022
   13  0.023  0.000  0.000  0.023
   14  0.023  0.000  0.000  0.023
   15  0.021  0.000  0.000  0.021
   16  0.022  0.000  0.000  0.022
   17  0.021  0.000  0.000  0.021
   18  0.021  0.000  0.000  0.021
   19  0.022  0.000  0.001  0.022
   20  0.029  0.000  0.001  0.030
   21  0.029  0.000  0.001  0.030
   22  0.022  0.000  0.000  0.023
   23  0.029  0.000  0.001  0.030
   24  0.022  0.000  0.000  0.023
   25  0.022  0.000  0.001  0.022
   26  0.022  0.000  0.001  0.022
   27  0.022  0.000  0.000  0.023
   28  0.005  0.001  0.000  0.006
   29  0.006  0.001  0.000  0.007
   30  0.006  0.001  0.000  0.007
   31  0.006  0.001  0.000  0.007
   32  0.006  0.001  0.000  0.007
   33  0.006  0.001  0.000  0.007
   34  0.006  0.001  0.000  0.007
   35  0.005  0.001  0.000  0.006
   36  0.013  0.003  0.000  0.017
   37  0.002  0.000  0.000  0.003
tot    0.524  0.016  0.009  0.550
 
band     3 # energy   -5.50744796 # occ.  2.00000000
 
ion      s      p      d    tot
    1  0.007  0.000  0.001  0.008
    2  0.009  0.000  0.000  0.010
    3  0.009  0.000  0.000  0.010
    4  0.009  0.000  0.000  0.010
    5  0.009  0.000  0.000  0.010
    6  0.009  0.000  0.000  0.010
    7  0.009  0.000  0.000  0.010
    8  0.009  0.000  0.000  0.010
    9  0.010  0.001  0.000  0.010
   10  0.011  0.001  0.016  0.029
   11  0.012  0.001  0.013  0.026
   12  0.011  0.001  0.016  0.029
   13  0.012  0.001  0.013  0.026
   14  0.012  0.001  0.013  0.026
   15  0.014  0.001  0.010  0.025
   16  0.011  0.001  0.016  0.029
   17  0.014  0.001  0.010  0.025
   18  0.014  0.001  0.010  0.025
   19  0.007  0.001  0.015  0.022
   20  0.016  0.002  0.020  0.038
   21  0.016  0.002  0.020  0.038
   22  0.006  0.001  0.012  0.019
   23  0.016  0.002  0.020  0.038
   24  0.006  0.001  0.012  0.019
   25  0.007  0.001  0.015  0.022
   26  0.007  0.001  0.015  0.022
   27  0.006  0.001  0.012  0.019
   28  0.005  0.000  0.000  0.006
   29  0.006  0.000  0.001  0.008
   30  0.006  0.000  0.001  0.008
   31  0.006  0.000  0.001  0.008
   32  0.006  0.000  0.001  0.008
   33  0.006  0.000  0.001  0.008
   34  0.006  0.000  0.001  0.008
   35  0.004  0.000  0.000  0.005
   36  0.021  0.004  0.000  0.025
   37  0.004  0.001  0.000  0.005
tot    0.352  0.032  0.271  0.655
 
band     4 # energy   -5.24998880 # occ.  2.00000000
 
ion      s      p      d    tot
    1  0.003  0.000  0.013  0.016
    2  0.005  0.000  0.007  0.012
    3  0.005  0.000  0.007  0.012
    4  0.005  0.000  0.007  0.012
    5  0.005  0.000  0.004  0.009
    6  0.005  0.000  0.007  0.012
    7  0.005  0.000  0.007  0.012
    8  0.005  0.000  0.007  0.012
    9  0.007  0.000  0.005  0.012
   10  0.001  0.000  0.020  0.021
   11  0.000  0.000  0.016  0.017
   12  0.001  0.000  0.020  0.021
   13  0.000  0.000  0.016  0.017
   14  0.000  0.000  0.016  0.017
   15  0.000  0.000  0.009  0.009
   16  0.001  0.000  0.020  0.021
   17  0.000  0.000  0.009  0.009
   18  0.000  0.000  0.009  0.009
   19  0.003  0.000  0.014  0.017
   20  0.000  0.001  0.062  0.062
   21  0.000  0.001  0.062  0.062
   22  0.002  0.000  0.013  0.015
   23  0.000  0.001  0.062  0.062
   24  0.002  0.000  0.013  0.015
   25  0.003  0.000  0.014  0.017
   26  0.003  0.000  0.014  0.017
   27  0.002  0.000  0.013  0.015
   28  0.003  0.000  0.012  0.015
   29  0.009  0.000  0.021  0.030
   30  0.009  0.000  0.021  0.030
   31  0.009  0.000  0.021  0.030
   32  0.009  0.000  0.021  0.030
   33  0.009  0.000  0.021  0.030
   34  0.009  0.000  0.021  0.030
   35  0.004  0.000  0.010  0.015
   36  0.035  0.001  0.020  0.056
   37  0.001  0.000  0.000  0.001
tot    0.160  0.009  0.631  0.800
 
band     5 # energy   -5.20090384 # occ.  2.00000000
 
ion      s      p      d    tot
    1  0.007  0.001  0.000  0.008
    2  0.001  0.000  0.003  0.004
    3  0.001  0.000  0.003  0.004
    4  0.001  0.000  0.003  0.004
    5  0.000  0.000  0.001  0.001
    6  0.001  0.000  0.003  0.004
    7  0.001  0.000  0.003  0.004
    8  0.001  0.000  0.003  0.004
    9  0.000  0.000  0.001  0.001
   10  0.005  0.000  0.019  0.023
   11  0.000  0.000  0.010  0.010
   12  0.005  0.000  0.019  0.024
   13  0.000  0.000  0.010  0.010
   14  0.000  0.000  0.010  0.010
   15  0.002  0.001  0.003  0.005
   16  0.005  0.000  0.019  0.024
   17  0.002  0.001  0.003  0.005
   18  0.002  0.001  0.003  0.005
   19  0.000  0.001  0.033  0.034
   20  0.005  0.001  0.128  0.134
   21  0.005  0.001  0.129  0.134
   22  0.016  0.000  0.004  0.020
   23  0.005  0.001  0.129  0.134
   24  0.016  0.000  0.004  0.020
   25  0.000  0.001  0.033  0.034
   26  0.000  0.001  0.033  0.034
   27  0.016  0.000  0.004  0.020
   28  0.003  0.000  0.000  0.004
   29  0.003  0.000  0.003  0.005
   30  0.003  0.000  0.003  0.005
   31  0.003  0.000  0.003  0.005
   32  0.003  0.000  0.003  0.005
   33  0.003  0.000  0.003  0.005
   34  0.003  0.000  0.003  0.005
   35  0.010  0.001  0.000  0.011
   36  0.006  0.006  0.024  0.036
   37  0.004  0.009  0.000  0.013
tot    0.134  0.027  0.649  0.810
 
band     6 # energy   -5.11259026 # occ.  2.00000000
 
ion      s      p      d    tot
    1  0.000  0.000  0.007  0.007
    2  0.000  0.000  0.002  0.002
    3  0.000  0.000  0.002  0.002
    4  0.000  0.000  0.002  0.002
    5  0.000  0.000  0.004  0.004
    6  0.001  0.000  0.002  0.003
    7  0.000  0.000  0.002  0.002
    8  0.001  0.000  0.002  0.003
    9  0.000  0.000  0.001  0.001
   10  0.009  0.001  0.014  0.025
   11  0.000  0.001  0.023  0.025
   12  0.002  0.001  0.017  0.020
   13  0.000  0.001  0.024  0.025
   14  0.002  0.000  0.019  0.021
   15  0.001  0.000  0.009  0.010
   16  0.002  0.001  0.017  0.020
   17  0.001  0.000  0.009  0.010
   18  0.002  0.000  0.008  0.011
   19  0.005  0.001  0.021  0.027
   20  0.033  0.000  0.007  0.041
   21  0.008  0.000  0.131  0.139
   22  0.000  0.001  0.044  0.045
   23  0.009  0.000  0.129  0.138
   24  0.001  0.000  0.027  0.028
   25  0.018  0.000  0.038  0.057
   26  0.004  0.001  0.021  0.027
   27  0.000  0.001  0.043  0.044
   28  0.000  0.000  0.004  0.004
   29  0.001  0.001  0.006  0.007
   30  0.000  0.000  0.006  0.007
   31  0.001  0.001  0.006  0.007
   32  0.000  0.000  0.007  0.007
   33  0.000  0.000  0.006  0.007
   34  0.000  0.000  0.007  0.007
   35  0.000  0.000  0.001  0.001
   36  0.000  0.001  0.020  0.021
   37  0.000  0.003  0.000  0.003
tot    0.104  0.018  0.688  0.811
 
band     7 # energy   -5.11256224 # occ.  2.00000000
 
ion      s      p      d    tot
    1  0.000  0.000  0.007  0.007
    2  0.001  0.000  0.002  0.003
    3  0.001  0.000  0.002  0.003
    4  0.001  0.000  0.002  0.003
    5  0.000  0.000  0.004  0.004
    6  0.000  0.000  0.002  0.002
    7  0.001  0.000  0.002  0.003
    8  0.000  0.000  0.002  0.002
    9  0.000  0.000  0.001  0.001
   10  0.000  0.000  0.018  0.019
   11  0.001  0.000  0.020  0.022
   12  0.007  0.001  0.015  0.023
   13  0.001  0.000  0.020  0.022
   14  0.000  0.001  0.025  0.026
   15  0.002  0.000  0.009  0.011
   16  0.007  0.001  0.015  0.023
   17  0.002  0.000  0.009  0.011
   18  0.000  0.000  0.009  0.009
   19  0.013  0.001  0.032  0.047
   20  0.000  0.000  0.171  0.171
   21  0.025  0.000  0.047  0.072
   22  0.001  0.001  0.032  0.033
   23  0.025  0.000  0.049  0.074
   24  0.000  0.001  0.049  0.050
   25  0.000  0.001  0.015  0.017
   26  0.014  0.001  0.033  0.047
   27  0.001  0.001  0.032  0.034
   28  0.000  0.000  0.004  0.004
   29  0.000  0.000  0.007  0.007
   30  0.001  0.000  0.006  0.007
   31  0.000  0.000  0.007  0.007
   32  0.001  0.001  0.006  0.007
   33  0.001  0.000  0.006  0.007
   34  0.001  0.001  0.006  0.007
   35  0.000  0.000  0.001  0.001
   36  0.000  0.001  0.020  0.021
   37  0.000  0.003  0.000  0.003
tot    0.104  0.018  0.688  0.811
 
band     8 # energy   -5.08997772 # occ.  2.00000000
 
ion      s      p      d    tot
    1  0.015  0.000  0.007  0.022
    2  0.009  0.000  0.021  0.031
    3  0.009  0.000  0.021  0.031
    4  0.009  0.000  0.021  0.031
    5  0.012  0.000  0.034  0.045
    6  0.009  0.000  0.021  0.031
    7  0.009  0.000  0.021  0.031
    8  0.009  0.000  0.021  0.031
    9  0.004  0.000  0.020  0.025
   10  0.000  0.001  0.016  0.017
   11  0.002  0.000  0.046  0.048
   12  0.000  0.001  0.016  0.017
   13  0.002  0.000  0.046  0.048
   14  0.002  0.000  0.046  0.048
   15  0.004  0.000  0.022  0.026
   16  0.000  0.001  0.016  0.017
   17  0.004  0.000  0.022  0.026
   18  0.004  0.000  0.022  0.026
   19  0.004  0.000  0.002  0.006
   20  0.000  0.000  0.041  0.042
   21  0.000  0.000  0.042  0.042
   22  0.000  0.000  0.012  0.012
   23  0.000  0.000  0.042  0.042
   24  0.000  0.000  0.012  0.012
   25  0.004  0.000  0.002  0.006
   26  0.004  0.000  0.002  0.006
   27  0.000  0.000  0.012  0.012
   28  0.001  0.000  0.001  0.002
   29  0.000  0.000  0.009  0.010
   30  0.000  0.000  0.009  0.010
   31  0.000  0.000  0.009  0.010
   32  0.000  0.000  0.009  0.010
   33  0.000  0.000  0.009  0.010
   34  0.000  0.000  0.009  0.010
   35  0.000  0.000  0.000  0.000
   36  0.009  0.000  0.005  0.015
   37  0.000  0.000  0.000  0.000
tot    0.126  0.008  0.671  0.806
 
band     9 # energy   -5.06745841 # occ.  2.00000000
 
ion      s      p      d    tot
    1  0.000  0.000  0.004  0.004
    2  0.000  0.000  0.002  0.002
    3  0.001  0.000  0.006  0.008
    4  0.000  0.000  0.002  0.002
    5  0.000  0.000  0.008  0.009
    6  0.001  0.001  0.005  0.006
    7  0.001  0.000  0.006  0.007
    8  0.001  0.001  0.005  0.006
    9  0.000  0.000  0.001  0.002
   10  0.005  0.001  0.020  0.026
   11  0.008  0.001  0.077  0.086
   12  0.001  0.001  0.073  0.075
   13  0.007  0.001  0.079  0.087
   14  0.031  0.001  0.014  0.045
   15  0.002  0.001  0.013  0.017
   16  0.001  0.001  0.072  0.073
   17  0.002  0.001  0.013  0.016
   18  0.009  0.000  0.038  0.047
   19  0.000  0.000  0.025  0.025
   20  0.008  0.001  0.046  0.054
   21  0.002  0.001  0.035  0.037
   22  0.003  0.000  0.019  0.022
   23  0.002  0.001  0.035  0.038
   24  0.011  0.001  0.010  0.023
   25  0.002  0.000  0.012  0.014
   26  0.000  0.000  0.025  0.026
   27  0.003  0.000  0.019  0.022
   28  0.000  0.000  0.001  0.001
   29  0.001  0.000  0.004  0.006
   30  0.001  0.000  0.003  0.003
   31  0.001  0.000  0.004  0.006
   32  0.000  0.000  0.003  0.003
   33  0.001  0.000  0.003  0.004
   34  0.000  0.000  0.003  0.003
   35  0.000  0.000  0.005  0.005
   36  0.000  0.000  0.004  0.005
   37  0.000  0.000  0.000  0.000
tot    0.106  0.015  0.693  0.814
 
band    10 # energy   -5.06744683 # occ.  2.00000000
 
ion      s      p      d    tot
    1  0.000  0.000  0.004  0.004
    2  0.001  0.001  0.007  0.008
    3  0.000  0.000  0.002  0.003
    4  0.001  0.001  0.007  0.008
    5  0.000  0.000  0.008  0.009
    6  0.000  0.000  0.004  0.004
    7  0.001  0.000  0.002  0.003
    8  0.000  0.000  0.004  0.005
    9  0.000  0.000  0.001  0.002
   10  0.000  0.001  0.090  0.090
   11  0.023  0.001  0.036  0.059
   12  0.004  0.001  0.037  0.041
   13  0.023  0.001  0.034  0.058
   14  0.000  0.001  0.099  0.100
   15  0.007  0.001  0.029  0.036
   16  0.004  0.001  0.038  0.043
   17  0.007  0.001  0.030  0.037
   18  0.000  0.002  0.005  0.007
   19  0.001  0.000  0.017  0.018
   20  0.000  0.001  0.031  0.032
   21  0.006  0.001  0.042  0.049
   22  0.009  0.001  0.013  0.022
   23  0.006  0.001  0.042  0.048
   24  0.000  0.000  0.021  0.022
   25  0.000  0.000  0.029  0.029
   26  0.001  0.000  0.016  0.018
   27  0.008  0.001  0.013  0.022
   28  0.000  0.000  0.001  0.001
   29  0.000  0.000  0.002  0.002
   30  0.001  0.000  0.003  0.004
   31  0.000  0.000  0.002  0.002
   32  0.001  0.000  0.004  0.005
   33  0.001  0.000  0.003  0.004
   34  0.001  0.000  0.004  0.005
   35  0.000  0.000  0.005  0.005
   36  0.000  0.000  0.004  0.005
   37  0.000  0.000  0.000  0.000
tot    0.106  0.015  0.694  0.814
 
band    11 # energy   -5.05069966 # occ.  2.00000000
 
ion      s      p      d    tot
    1  0.000  0.000  0.002  0.002
    2  0.000  0.000  0.007  0.007
    3  0.000  0.000  0.007  0.007
    4  0.000  0.000  0.007  0.007
    5  0.006  0.001  0.001  0.008
    6  0.000  0.000  0.007  0.007
    7  0.000  0.000  0.007  0.007
    8  0.000  0.000  0.007  0.007
    9  0.000  0.000  0.007  0.008
   10  0.008  0.001  0.005  0.014
   11  0.013  0.001  0.040  0.054
   12  0.008  0.001  0.005  0.014
   13  0.013  0.001  0.040  0.054
   14  0.013  0.001  0.040  0.054
   15  0.002  0.000  0.048  0.050
   16  0.008  0.001  0.005  0.014
   17  0.002  0.000  0.048  0.050
   18  0.002  0.000  0.048  0.050
   19  0.012  0.001  0.028  0.041
   20  0.005  0.001  0.020  0.027
   21  0.005  0.001  0.020  0.027
   22  0.000  0.000  0.045  0.045
   23  0.005  0.001  0.020  0.027
   24  0.000  0.000  0.044  0.045
   25  0.012  0.001  0.029  0.042
   26  0.012  0.001  0.028  0.041
   27  0.000  0.000  0.045  0.045
   28  0.003  0.001  0.005  0.009
   29  0.000  0.000  0.004  0.004
   30  0.000  0.000  0.004  0.004
   31  0.000  0.000  0.004  0.004
   32  0.000  0.000  0.004  0.004
   33  0.000  0.000  0.004  0.004
   34  0.000  0.000  0.004  0.004
   35  0.001  0.000  0.002  0.004
   36  0.001  0.000  0.000  0.001
   37  0.000  0.000  0.000  0.000
tot    0.135  0.019  0.641  0.795
 
band    12 # energy   -5.02031457 # occ.  2.00000000
 
ion      s      p      d    tot
    1  0.000  0.000  0.002  0.002
    2  0.002  0.000  0.009  0.011
    3  0.002  0.000  0.009  0.011
    4  0.002  0.000  0.009  0.011
    5  0.001  0.000  0.002  0.003
    6  0.002  0.000  0.009  0.011
    7  0.002  0.000  0.009  0.011
    8  0.002  0.000  0.009  0.011
    9  0.005  0.000  0.016  0.021
   10  0.001  0.000  0.023  0.024
   11  0.000  0.000  0.007  0.007
   12  0.001  0.000  0.023  0.024
   13  0.000  0.000  0.007  0.007
   14  0.000  0.000  0.007  0.007
   15  0.003  0.000  0.049  0.052
   16  0.001  0.000  0.023  0.024
   17  0.003  0.000  0.049  0.052
   18  0.003  0.000  0.049  0.052
   19  0.004  0.001  0.015  0.019
   20  0.001  0.000  0.036  0.038
   21  0.001  0.000  0.036  0.038
   22  0.003  0.000  0.061  0.064
   23  0.001  0.000  0.036  0.038
   24  0.003  0.000  0.060  0.063
   25  0.004  0.001  0.015  0.019
   26  0.004  0.001  0.015  0.019
   27  0.003  0.000  0.061  0.064
   28  0.007  0.001  0.000  0.008
   29  0.003  0.000  0.010  0.013
   30  0.003  0.000  0.010  0.013
   31  0.003  0.000  0.010  0.013
   32  0.003  0.000  0.010  0.013
   33  0.003  0.000  0.010  0.013
   34  0.003  0.000  0.010  0.013
   35  0.003  0.000  0.023  0.027
   36  0.000  0.000  0.005  0.006
   37  0.000  0.001  0.000  0.001
tot    0.081  0.010  0.735  0.825
 
band    13 # energy   -5.01390213 # occ.  2.00000000
 
ion      s      p      d    tot
    1  0.000  0.001  0.011  0.012
    2  0.001  0.000  0.005  0.007
    3  0.001  0.001  0.010  0.012
    4  0.001  0.000  0.006  0.007
    5  0.000  0.000  0.007  0.007
    6  0.004  0.001  0.006  0.012
    7  0.001  0.001  0.010  0.011
    8  0.004  0.001  0.006  0.012
    9  0.000  0.000  0.010  0.010
   10  0.000  0.001  0.053  0.054
   11  0.000  0.000  0.033  0.034
   12  0.018  0.000  0.029  0.047
   13  0.000  0.000  0.035  0.035
   14  0.000  0.001  0.020  0.020
   15  0.014  0.000  0.034  0.048
   16  0.017  0.000  0.031  0.047
   17  0.015  0.000  0.028  0.043
   18  0.000  0.000  0.111  0.111
   19  0.003  0.000  0.021  0.024
   20  0.000  0.000  0.017  0.017
   21  0.001  0.000  0.021  0.022
   22  0.008  0.000  0.018  0.026
   23  0.001  0.000  0.020  0.022
   24  0.000  0.000  0.030  0.030
   25  0.000  0.000  0.041  0.041
   26  0.003  0.000  0.020  0.023
   27  0.007  0.000  0.019  0.026
   28  0.000  0.000  0.010  0.010
   29  0.002  0.000  0.003  0.006
   30  0.003  0.001  0.005  0.009
   31  0.002  0.000  0.003  0.006
   32  0.000  0.000  0.004  0.004
   33  0.003  0.001  0.005  0.009
   34  0.000  0.000  0.004  0.004
   35  0.000  0.000  0.004  0.004
   36  0.000  0.000  0.002  0.002
   37  0.000  0.000  0.000  0.000
tot    0.109  0.013  0.691  0.814
 
band    14 # energy   -5.01388884 # occ.  2.00000000
 
ion      s      p      d    tot
    1  0.000  0.001  0.011  0.012
    2  0.003  0.001  0.009  0.013
    3  0.003  0.001  0.005  0.009
    4  0.003  0.001  0.009  0.013
    5  0.000  0.000  0.007  0.007
    6  0.000  0.000  0.008  0.008
    7  0.004  0.001  0.005  0.009
    8  0.000  0.000  0.008  0.009
    9  0.000  0.000  0.010  0.010
   10  0.023  0.000  0.021  0.044
   11  0.000  0.000  0.025  0.026
   12  0.005  0.001  0.046  0.052
   13  0.000  0.001  0.024  0.025
   14  0.000  0.000  0.038  0.038
   15  0.005  0.000  0.081  0.087
   16  0.006  0.001  0.045  0.052
   17  0.004  0.000  0.087  0.092
   18  0.019  0.000  0.005  0.024
   19  0.001  0.000  0.033  0.034
   20  0.001  0.001  0.021  0.023
   21  0.000  0.000  0.018  0.019
   22  0.002  0.000  0.027  0.029
   23  0.000  0.000  0.018  0.019
   24  0.010  0.000  0.014  0.024
   25  0.004  0.001  0.014  0.018
   26  0.001  0.000  0.035  0.036
   27  0.003  0.000  0.026  0.029
   28  0.000  0.000  0.010  0.010
   29  0.001  0.000  0.005  0.007
   30  0.001  0.000  0.003  0.004
   31  0.001  0.000  0.005  0.006
   32  0.004  0.001  0.004  0.008
   33  0.001  0.000  0.003  0.004
   34  0.004  0.001  0.004  0.008
   35  0.000  0.000  0.004  0.004
   36  0.000  0.000  0.002  0.002
   37  0.000  0.000  0.000  0.000
tot    0.109  0.013  0.691  0.814
 
band    15 # energy   -5.01194962 # occ.  2.00000000
 
ion      s      p      d    tot
    1  0.002  0.000  0.028  0.030
    2  0.002  0.000  0.011  0.013
    3  0.002  0.000  0.011  0.013
    4  0.002  0.000  0.011  0.013
    5  0.000  0.000  0.002  0.002
    6  0.002  0.000  0.011  0.013
    7  0.002  0.000  0.011  0.013
    8  0.002  0.000  0.011  0.013
    9  0.008  0.001  0.000  0.008
   10  0.003  0.000  0.076  0.079
   11  0.005  0.001  0.020  0.026
   12  0.003  0.000  0.075  0.079
   13  0.005  0.001  0.020  0.026
   14  0.005  0.001  0.021  0.027
   15  0.005  0.001  0.015  0.021
   16  0.003  0.000  0.075  0.079
   17  0.005  0.001  0.015  0.021
   18  0.005  0.001  0.015  0.021
   19  0.000  0.000  0.027  0.028
   20  0.001  0.001  0.006  0.008
   21  0.001  0.001  0.005  0.007
   22  0.001  0.000  0.024  0.025
   23  0.001  0.001  0.005  0.007
   24  0.001  0.000  0.025  0.026
   25  0.001  0.000  0.027  0.028
   26  0.000  0.000  0.027  0.028
   27  0.001  0.000  0.024  0.025
   28  0.009  0.000  0.013  0.023
   29  0.004  0.000  0.013  0.016
   30  0.004  0.000  0.013  0.016
   31  0.004  0.000  0.013  0.016
   32  0.004  0.000  0.013  0.017
   33  0.004  0.000  0.013  0.016
   34  0.004  0.000  0.013  0.017
   35  0.001  0.000  0.012  0.013
   36  0.003  0.000  0.002  0.004
   37  0.000  0.000  0.000  0.000
tot    0.106  0.009  0.701  0.816
 
band    16 # energy   -5.00144227 # occ.  2.00000000
 
ion      s      p      d    tot
    1  0.000  0.000  0.007  0.007
    2  0.001  0.000  0.006  0.006
    3  0.002  0.000  0.006  0.008
    4  0.001  0.000  0.005  0.006
    5  0.000  0.000  0.004  0.004
    6  0.000  0.000  0.008  0.008
    7  0.002  0.000  0.005  0.008
    8  0.000  0.000  0.008  0.008
    9  0.000  0.000  0.017  0.017
   10  0.000  0.000  0.006  0.006
   11  0.002  0.000  0.022  0.024
   12  0.000  0.000  0.031  0.031
   13  0.002  0.000  0.018  0.021
   14  0.000  0.000  0.052  0.052
   15  0.002  0.000  0.036  0.038
   16  0.000  0.000  0.028  0.028
   17  0.002  0.000  0.034  0.037
   18  0.000  0.000  0.052  0.052
   19  0.005  0.000  0.034  0.040
   20  0.000  0.000  0.012  0.012
   21  0.000  0.000  0.046  0.046
   22  0.009  0.000  0.038  0.047
   23  0.000  0.000  0.042  0.042
   24  0.000  0.000  0.062  0.062
   25  0.000  0.000  0.100  0.100
   26  0.006  0.000  0.025  0.032
   27  0.008  0.000  0.041  0.049
   28  0.000  0.000  0.006  0.006
   29  0.001  0.000  0.004  0.005
   30  0.000  0.000  0.009  0.009
   31  0.001  0.000  0.005  0.006
   32  0.001  0.000  0.004  0.005
   33  0.000  0.000  0.009  0.009
   34  0.001  0.000  0.004  0.005
   35  0.000  0.000  0.010  0.010
   36  0.000  0.000  0.001  0.001
   37  0.000  0.000  0.000  0.000
tot    0.045  0.006  0.800  0.851
 
band    17 # energy   -5.00142837 # occ.  2.00000000
 
ion      s      p      d    tot
    1  0.000  0.000  0.007  0.007
    2  0.001  0.000  0.007  0.009
    3  0.000  0.000  0.007  0.007
    4  0.001  0.000  0.007  0.009
    5  0.000  0.000  0.004  0.004
    6  0.002  0.000  0.005  0.007
    7  0.000  0.000  0.007  0.007
    8  0.002  0.000  0.005  0.007
    9  0.000  0.000  0.017  0.017
   10  0.000  0.000  0.038  0.038
   11  0.001  0.000  0.040  0.040
   12  0.000  0.000  0.012  0.013
   13  0.001  0.000  0.044  0.044
   14  0.003  0.000  0.010  0.012
   15  0.001  0.000  0.046  0.046
   16  0.000  0.000  0.015  0.016
   17  0.000  0.000  0.048  0.048
   18  0.002  0.000  0.030  0.032
   19  0.002  0.000  0.072  0.075
   20  0.000  0.000  0.055  0.055
   21  0.000  0.000  0.021  0.021
   22  0.002  0.000  0.056  0.058
   23  0.000  0.000  0.025  0.025
   24  0.011  0.000  0.032  0.043
   25  0.007  0.000  0.006  0.014
   26  0.002  0.000  0.081  0.082
   27  0.003  0.000  0.053  0.057
   28  0.000  0.000  0.006  0.006
   29  0.000  0.000  0.008  0.008
   30  0.001  0.000  0.002  0.004
   31  0.001  0.000  0.007  0.008
   32  0.000  0.000  0.007  0.008
   33  0.001  0.000  0.002  0.004
   34  0.000  0.000  0.008  0.008
   35  0.000  0.000  0.010  0.010
   36  0.000  0.000  0.001  0.001
   37  0.000  0.000  0.000  0.000
tot    0.045  0.006  0.800  0.851
 
band    18 # energy   -4.90570557 # occ.  2.00000000
 
ion      s      p      d    tot
    1  0.000  0.000  0.002  0.002
    2  0.001  0.001  0.007  0.008
    3  0.000  0.000  0.006  0.006
    4  0.001  0.001  0.007  0.008
    5  0.000  0.001  0.015  0.015
    6  0.002  0.001  0.005  0.007
    7  0.000  0.000  0.006  0.006
    8  0.002  0.001  0.005  0.007
    9  0.000  0.000  0.007  0.008
   10  0.000  0.001  0.025  0.026
   11  0.001  0.000  0.060  0.061
   12  0.000  0.000  0.009  0.009
   13  0.001  0.000  0.060  0.061
   14  0.004  0.000  0.047  0.051
   15  0.000  0.000  0.016  0.017
   16  0.000  0.000  0.009  0.009
   17  0.000  0.000  0.016  0.017
   18  0.002  0.000  0.021  0.023
   19  0.000  0.000  0.006  0.006
   20  0.001  0.000  0.089  0.090
   21  0.000  0.000  0.112  0.113
   22  0.000  0.000  0.038  0.038
   23  0.000  0.000  0.112  0.113
   24  0.000  0.001  0.023  0.024
   25  0.000  0.001  0.023  0.024
   26  0.000  0.000  0.006  0.006
   27  0.000  0.000  0.038  0.038
   28  0.000  0.000  0.001  0.001
   29  0.000  0.000  0.007  0.007
   30  0.001  0.000  0.008  0.009
   31  0.000  0.000  0.007  0.007
   32  0.001  0.001  0.009  0.010
   33  0.001  0.000  0.008  0.009
   34  0.001  0.001  0.009  0.010
   35  0.000  0.000  0.000  0.000
   36  0.000  0.001  0.020  0.021
   37  0.000  0.003  0.000  0.003
tot    0.020  0.016  0.836  0.872
 
band    19 # energy   -4.90568118 # occ.  2.00000000
 
ion      s      p      d    tot
    1  0.000  0.000  0.002  0.002
    2  0.001  0.000  0.005  0.006
    3  0.002  0.001  0.006  0.008
    4  0.001  0.000  0.005  0.006
    5  0.000  0.001  0.015  0.015
    6  0.000  0.000  0.007  0.007
    7  0.002  0.001  0.006  0.008
    8  0.000  0.000  0.007  0.007
    9  0.000  0.000  0.007  0.008
   10  0.000  0.000  0.004  0.004
   11  0.003  0.000  0.052  0.055
   12  0.000  0.001  0.020  0.021
   13  0.003  0.000  0.052  0.054
   14  0.000  0.000  0.065  0.065
   15  0.001  0.000  0.020  0.021
   16  0.000  0.001  0.020  0.021
   17  0.001  0.000  0.020  0.021
   18  0.000  0.000  0.015  0.015
   19  0.000  0.001  0.017  0.018
   20  0.000  0.000  0.120  0.120
   21  0.001  0.000  0.096  0.097
   22  0.000  0.001  0.028  0.028
   23  0.001  0.000  0.097  0.098
   24  0.000  0.000  0.043  0.043
   25  0.000  0.000  0.000  0.000
   26  0.000  0.001  0.017  0.018
   27  0.000  0.001  0.028  0.028
   28  0.000  0.000  0.001  0.001
   29  0.001  0.001  0.009  0.011
   30  0.001  0.000  0.008  0.008
   31  0.001  0.001  0.009  0.011
   32  0.000  0.000  0.007  0.007
   33  0.001  0.000  0.008  0.009
   34  0.000  0.000  0.007  0.007
   35  0.000  0.000  0.000  0.000
   36  0.000  0.001  0.020  0.021
   37  0.000  0.003  0.000  0.003
tot    0.020  0.016  0.836  0.872
 
band    20 # energy   -4.89198900 # occ.  2.00000000
 
ion      s      p      d    tot
    1  0.000  0.000  0.000  0.000
    2  0.000  0.000  0.005  0.005
    3  0.000  0.000  0.005  0.005
    4  0.000  0.000  0.005  0.005
    5  0.001  0.001  0.016  0.018
    6  0.000  0.000  0.005  0.005
    7  0.000  0.000  0.005  0.005
    8  0.000  0.000  0.005  0.005
    9  0.000  0.000  0.010  0.010
   10  0.001  0.000  0.006  0.007
   11  0.000  0.001  0.087  0.088
   12  0.001  0.000  0.006  0.007
   13  0.000  0.001  0.087  0.088
   14  0.000  0.001  0.087  0.088
   15  0.001  0.001  0.042  0.044
   16  0.001  0.000  0.006  0.007
   17  0.001  0.001  0.042  0.044
   18  0.001  0.001  0.042  0.044
   19  0.001  0.000  0.015  0.016
   20  0.002  0.001  0.058  0.061
   21  0.002  0.001  0.058  0.061
   22  0.004  0.000  0.020  0.024
   23  0.002  0.001  0.058  0.061
   24  0.004  0.000  0.020  0.024
   25  0.001  0.000  0.015  0.016
   26  0.001  0.000  0.015  0.016
   27  0.004  0.000  0.020  0.024
   28  0.004  0.001  0.001  0.005
   29  0.000  0.000  0.012  0.012
   30  0.000  0.000  0.012  0.012
   31  0.000  0.000  0.012  0.012
   32  0.000  0.000  0.012  0.012
   33  0.000  0.000  0.012  0.012
   34  0.000  0.000  0.012  0.012
   35  0.003  0.000  0.001  0.004
   36  0.001  0.001  0.004  0.005
   37  0.001  0.002  0.000  0.002
tot    0.035  0.015  0.814  0.863
 
band    21 # energy   -4.84262277 # occ.  2.00000000
 
ion      s      p      d    tot
    1  0.000  0.000  0.004  0.004
    2  0.000  0.001  0.013  0.014
    3  0.000  0.001  0.013  0.014
    4  0.000  0.001  0.013  0.014
    5  0.005  0.001  0.000  0.006
    6  0.000  0.001  0.013  0.014
    7  0.000  0.001  0.013  0.014
    8  0.000  0.001  0.013  0.014
    9  0.003  0.001  0.001  0.005
   10  0.003  0.001  0.040  0.043
   11  0.000  0.000  0.030  0.031
   12  0.002  0.001  0.040  0.043
   13  0.000  0.000  0.030  0.031
   14  0.000  0.000  0.030  0.030
   15  0.004  0.000  0.016  0.021
   16  0.002  0.001  0.040  0.043
   17  0.004  0.000  0.016  0.021
   18  0.004  0.000  0.016  0.021
   19  0.001  0.000  0.058  0.059
   20  0.001  0.000  0.011  0.011
   21  0.001  0.000  0.011  0.011
   22  0.000  0.001  0.041  0.042
   23  0.001  0.000  0.011  0.011
   24  0.000  0.001  0.040  0.042
   25  0.001  0.000  0.058  0.059
   26  0.001  0.000  0.058  0.059
   27  0.000  0.001  0.041  0.042
   28  0.001  0.000  0.025  0.027
   29  0.001  0.000  0.013  0.014
   30  0.001  0.000  0.013  0.014
   31  0.001  0.000  0.013  0.014
   32  0.001  0.000  0.013  0.014
   33  0.001  0.000  0.013  0.014
   34  0.001  0.000  0.013  0.014
   35  0.008  0.001  0.000  0.009
   36  0.002  0.000  0.000  0.002