 vasp.6.2.0 18Jan21 (build Jun 12 2021 23:27:24) complex                        
  
 executed on             LinuxIFC date 2022.05.26  20:06:15
 running on   28 total cores
 distrk:  each k-point on   28 cores,    1 groups
 distr:  one band on NCORE=   1 cores,   28 groups


--------------------------------------------------------------------------------------------------------


 INCAR:
   ISMEAR = -5
   SIGMA = 0.1
   ISPIN = 1
   EDIFF = 1.d-5
   EDIFFG = -0.01
   NSW = 0
   NELM = 150
   ENCUT = 500
   ISIF = 2
   IBRION = 2
   LREAL = Auto
   ALGO = Fast
   ICHARG = 11
   LORBIT = 10
   LCHARG = .F.
   LWAVE = .F.

 POTCAR:    PAW_PBE Cu 22Jun2005                  
 POTCAR:    PAW_PBE Hf 20Jan2003                  
 POTCAR:    PAW_PBE O 08Apr2002                   
 -----------------------------------------------------------------------------
|                                                                             |
|           W    W    AA    RRRRR   N    N  II  N    N   GGGG   !!!           |
|           W    W   A  A   R    R  NN   N  II  NN   N  G    G  !!!           |
|           W    W  A    A  R    R  N N  N  II  N N  N  G       !!!           |
|           W WW W  AAAAAA  RRRRR   N  N N  II  N  N N  G  GGG   !            |
|           WW  WW  A    A  R   R   N   NN  II  N   NN  G    G                |
|           W    W  A    A  R    R  N    N  II  N    N   GGGG   !!!           |
|                                                                             |
|     For optimal performance we recommend to set                             |
|       NCORE = 2 up to number-of-cores-per-socket                            |
|     NCORE specifies how many cores store one orbital (NPAR=cpu/NCORE).      |
|     This setting can greatly improve the performance of VASP for DFT.       |
|     The default, NCORE=1 might be grossly inefficient on modern             |
|     multi-core architectures or massively parallel machines. Do your        |
|     own testing! More info at https://www.vasp.at/wiki/index.php/NCORE      |
|     Unfortunately you need to use the default for GW and RPA                |
|     calculations (for HF NCORE is supported but not extensively tested      |
|     yet).                                                                   |
|                                                                             |
 -----------------------------------------------------------------------------

 POTCAR:    PAW_PBE Cu 22Jun2005                  
   VRHFIN =Cu: d10 p1                                                                               
   LEXCH  = PE                                                                                      
   EATOM  =  1390.9808 eV,  102.2342 Ry                                                             
                                                                                                    
   TITEL  = PAW_PBE Cu 22Jun2005                                                                    
   LULTRA =        F    use ultrasoft PP ?                                                          
   IUNSCR =        1    unscreen: 0-lin 1-nonlin 2-no                                               
   RPACOR =    2.000    partial core radius                                                         
   POMASS =   63.546; ZVAL   =   11.000    mass and valenz                                          
   RCORE  =    2.300    outmost cutoff radius                                                       
   RWIGS  =    2.200; RWIGS  =    1.164    wigner-seitz radius (au A)                               
   ENMAX  =  295.446; ENMIN  =  221.585 eV                                                          
   ICORE  =        3    local potential                                                             
   LCOR   =        T    correct aug charges                                                         
   LPAW   =        T    paw PP                                                                      
   EAUG   =  586.980                                                                                
   DEXC   =    0.000                                                                                
   RMAX   =    2.344    core radius for proj-oper                                                   
   RAUG   =    1.300    factor for augmentation sphere                                              
   RDEP   =    2.302    radius for radial grids                                                     
   RDEPT  =    1.771    core radius for aug-charge                                                  
                                                                                                    
   Atomic configuration                                                                             
    9 entries                                                                                       
     n  l   j            E        occ.                                                              
     1  0  0.50     -8850.2468   2.0000                                                             
     2  0  0.50     -1062.3498   2.0000                                                             
     2  1  1.50      -916.8226   6.0000                                                             
     3  0  0.50      -114.6929   2.0000                                                             
     3  1  1.50       -72.1325   6.0000                                                             
     3  2  2.50        -5.0394  10.0000                                                             
     4  0  0.50        -4.6097   1.0000                                                             
     4  1  0.50        -4.0817   0.0000                                                             
     4  3  2.50        -1.3606   0.0000                                                             
   Description                                                                                      
     l       E           TYP  RCUT    TYP  RCUT                                                     
     2     -5.0393973     23  2.200                                                                 
     2     10.8846608     23  2.200                                                                 
     0     -4.6097109     23  2.200                                                                 
     0      8.2520465     23  2.200                                                                 
     1     -2.7211652     23  2.200                                                                 
     1     21.7055443     23  2.200                                                                 
     3      2.7211652     23  2.300                                                                 
  local pseudopotential read in
  partial core-charges read in
  partial kinetic energy density read in
  atomic valenz-charges read in
  non local Contribution for L=           2  read in
    real space projection operators read in
  non local Contribution for L=           2  read in
    real space projection operators read in
  non local Contribution for L=           0  read in
    real space projection operators read in
  non local Contribution for L=           0  read in
    real space projection operators read in
  non local Contribution for L=           1  read in
    real space projection operators read in
  non local Contribution for L=           1  read in
    real space projection operators read in
    PAW grid and wavefunctions read in
 
   number of l-projection  operators is LMAX  =           6
   number of lm-projection operators is LMMAX =          18
 
 POTCAR:    PAW_PBE Hf 20Jan2003                  
   VRHFIN =Hf: 6s5d                                                                                 
   LEXCH  = PE                                                                                      
   EATOM  =    75.9011 eV,    5.5786 Ry                                                             
                                                                                                    
   TITEL  = PAW_PBE Hf 20Jan2003                                                                    
   LULTRA =        F    use ultrasoft PP ?                                                          
   IUNSCR =        1    unscreen: 0-lin 1-nonlin 2-no                                               
   RPACOR =    2.500    partial core radius                                                         
   POMASS =  178.490; ZVAL   =    4.000    mass and valenz                                          
   RCORE  =    3.000    outmost cutoff radius                                                       
   RWIGS  =    3.050; RWIGS  =    1.614    wigner-seitz radius (au A)                               
   ENMAX  =  220.334; ENMIN  =  165.250 eV                                                          
   RCLOC  =    2.212    cutoff for local pot                                                        
   LCOR   =        T    correct aug charges                                                         
   LPAW   =        T    paw PP                                                                      
   EAUG   =  335.116                                                                                
   DEXC   =    0.000                                                                                
   RMAX   =    3.077    core radius for proj-oper                                                   
   RAUG   =    1.300    factor for augmentation sphere                                              
   RDEP   =    3.047    radius for radial grids                                                     
   RDEPT  =    2.344    core radius for aug-charge                                                  
                                                                                                    
   Atomic configuration                                                                             
   16 entries                                                                                       
     n  l   j            E        occ.                                                              
     1  0  0.50    -65259.4397   2.0000                                                             
     2  0  0.50    -11157.9882   2.0000                                                             
     2  1  1.50     -9795.2113   6.0000                                                             
     3  0  0.50     -2541.4058   2.0000                                                             
     3  1  1.50     -2134.4770   6.0000                                                             
     3  2  2.50     -1653.5418  10.0000                                                             
     4  0  0.50      -510.9575   2.0000                                                             
     4  1  1.50      -377.5023   6.0000                                                             
     4  2  2.50      -205.2085  10.0000                                                             
     4  3  3.50       -15.4905  14.0000                                                             
     5  0  0.50       -65.6020   2.0000                                                             
     5  1  1.50       -34.2798   6.0000                                                             
     5  2  2.50        -1.9877   3.0000                                                             
     6  0  0.50        -4.7357   1.0000                                                             
     6  1  1.50        -1.3606   0.0000                                                             
     5  3  2.50        -1.3606   0.0000                                                             
   Description                                                                                      
     l       E           TYP  RCUT    TYP  RCUT                                                     
     2     -1.9876627     23  2.500                                                                 
     2      0.0744703     23  2.500                                                                 
     0     -4.7356889     23  2.600                                                                 
     0      3.2364747     23  2.600                                                                 
     1     -1.3605826     23  3.000                                                                 
     1     27.2116520     23  3.000                                                                 
  local pseudopotential read in
  partial core-charges read in
  partial kinetic energy density read in
  atomic valenz-charges read in
  non local Contribution for L=           2  read in
    real space projection operators read in
  non local Contribution for L=           2  read in
    real space projection operators read in
  non local Contribution for L=           0  read in
    real space projection operators read in
  non local Contribution for L=           0  read in
    real space projection operators read in
  non local Contribution for L=           1  read in
    real space projection operators read in
  non local Contribution for L=           1  read in
    real space projection operators read in
    PAW grid and wavefunctions read in
 
   number of l-projection  operators is LMAX  =           6
   number of lm-projection operators is LMMAX =          18
 
 POTCAR:    PAW_PBE O 08Apr2002                   
   VRHFIN =O: s2p4                                                                                  
   LEXCH  = PE                                                                                      
   EATOM  =   432.3788 eV,   31.7789 Ry                                                             
                                                                                                    
   TITEL  = PAW_PBE O 08Apr2002                                                                     
   LULTRA =        F    use ultrasoft PP ?                                                          
   IUNSCR =        1    unscreen: 0-lin 1-nonlin 2-no                                               
   RPACOR =    1.200    partial core radius                                                         
   POMASS =   16.000; ZVAL   =    6.000    mass and valenz                                          
   RCORE  =    1.520    outmost cutoff radius                                                       
   RWIGS  =    1.550; RWIGS  =    0.820    wigner-seitz radius (au A)                               
   ENMAX  =  400.000; ENMIN  =  300.000 eV                                                          
   ICORE  =        2    local potential                                                             
   LCOR   =        T    correct aug charges                                                         
   LPAW   =        T    paw PP                                                                      
   EAUG   =  605.392                                                                                
   DEXC   =    0.000                                                                                
   RMAX   =    1.553    core radius for proj-oper                                                   
   RAUG   =    1.300    factor for augmentation sphere                                              
   RDEP   =    1.550    radius for radial grids                                                     
   RDEPT  =    1.329    core radius for aug-charge                                                  
                                                                                                    
   Atomic configuration                                                                             
    4 entries                                                                                       
     n  l   j            E        occ.                                                              
     1  0  0.50      -514.6923   2.0000                                                             
     2  0  0.50       -23.9615   2.0000                                                             
     2  1  0.50        -9.0305   4.0000                                                             
     3  2  1.50        -9.5241   0.0000                                                             
   Description                                                                                      
     l       E           TYP  RCUT    TYP  RCUT                                                     
     0    -23.9615318     23  1.200                                                                 
     0     -9.5240782     23  1.200                                                                 
     1     -9.0304911     23  1.520                                                                 
     1      8.1634956     23  1.520                                                                 
     2     -9.5240782      7  1.500                                                                 
  local pseudopotential read in
  partial core-charges read in
  partial kinetic energy density read in
  kinetic energy density of atom read in
  atomic valenz-charges read in
  non local Contribution for L=           0  read in
    real space projection operators read in
  non local Contribution for L=           0  read in
    real space projection operators read in
  non local Contribution for L=           1  read in
    real space projection operators read in
  non local Contribution for L=           1  read in
    real space projection operators read in
    PAW grid and wavefunctions read in
 
   number of l-projection  operators is LMAX  =           4
   number of lm-projection operators is LMMAX =           8
 
 Optimization of the real space projectors (new method)

 maximal supplied QI-value         = 16.25
 optimisation between [QCUT,QGAM] = [ 11.38, 22.75] = [ 36.24,144.96] Ry 
 Optimized for a Real-space Cutoff    1.52 Angstroem

   l    n(q)    QCUT    max X(q) W(low)/X(q) W(high)/X(q)  e(spline) 
   2      9    11.376     4.610    0.21E-03    0.10E-03    0.26E-06
   2      9    11.376     8.522    0.33E-03    0.16E-03    0.37E-06
   0     10    11.376    51.609    0.62E-04    0.20E-04    0.13E-06
   0     10    11.376    27.747    0.54E-04    0.20E-04    0.13E-06
   1     10    11.376    20.408    0.13E-04    0.99E-04    0.19E-06
   1     10    11.376    13.425    0.12E-04    0.87E-04    0.17E-06
 Optimization of the real space projectors (new method)

 maximal supplied QI-value         = 12.47
 optimisation between [QCUT,QGAM] = [ 11.35, 22.82] = [ 36.07,145.88] Ry 
 Optimized for a Real-space Cutoff    1.66 Angstroem

   l    n(q)    QCUT    max X(q) W(low)/X(q) W(high)/X(q)  e(spline) 
   2     10    11.350    48.111    0.20E-03    0.11E-03    0.41E-06
   2     10    11.350    40.545    0.19E-03    0.10E-03    0.39E-06
   0     11    11.350   121.658    0.22E-04    0.19E-04    0.24E-06
   0     11    11.350    71.177    0.17E-04    0.17E-04    0.23E-06
   1     11    11.350    14.183    0.25E-03    0.43E-03    0.12E-05
   1     11    11.350     8.257    0.17E-03    0.29E-03    0.81E-06
 Optimization of the real space projectors (new method)

 maximal supplied QI-value         = 24.76
 optimisation between [QCUT,QGAM] = [ 11.39, 22.77] = [ 36.31,145.25] Ry 
 Optimized for a Real-space Cutoff    1.00 Angstroem

   l    n(q)    QCUT    max X(q) W(low)/X(q) W(high)/X(q)  e(spline) 
   0      7    11.387    20.381    0.39E-03    0.13E-02    0.15E-06
   0      7    11.387    15.268    0.42E-03    0.14E-02    0.17E-06
   1      6    11.387     5.964    0.41E-03    0.11E-02    0.17E-06
   1      6    11.387     5.382    0.39E-03    0.87E-03    0.15E-06
  PAW_PBE Cu 22Jun2005                  :
 energy of atom  1       EATOM=-1390.9808
 kinetic energy error for atom=    0.0043 (will be added to EATOM!!)
  PAW_PBE Hf 20Jan2003                  :
 energy of atom  2       EATOM=  -75.9011
 kinetic energy error for atom=    0.0007 (will be added to EATOM!!)
  PAW_PBE O 08Apr2002                   :
 energy of atom  3       EATOM= -432.3788
 kinetic energy error for atom=    0.0224 (will be added to EATOM!!)
 
 
 POSCAR: Cu-Hf-O
  positions in direct lattice
  velocities in cartesian coordinates
 exchange correlation table for  LEXCH =        8
   RHO(1)=    0.500       N(1)  =     2000
   RHO(2)=  100.500       N(2)  =     4000

 VTST: version 3.2, (02/03/18)

 CHAIN: initializing optimizer
 
 OPT: Using VASP Conjugate-Gradient optimizer
 CHAIN: Read ICHAIN            0
 
 POSCAR: Cu-Hf-O
  positions in direct lattice
  velocities in cartesian coordinates
 


--------------------------------------------------------------------------------------------------------


 ion  position               nearest neighbor table
   1  0.000  0.000  0.252-   7 2.57   3 2.57   4 2.57   2 2.57   6 2.57   8 2.57  12 2.57  10 2.57
                            16 2.57
   2  0.333  0.000  0.252-   8 2.57   9 2.57   5 2.57   1 2.57   3 2.57  11 2.57   4 2.57  10 2.57
                            17 2.57
   3  0.667  0.000  0.252-   1 2.57   7 2.57   6 2.57   9 2.57   2 2.57  12 2.57   5 2.57  18 2.57
                            11 2.57
   4  0.000  0.333  0.252-   5 2.57   6 2.57   1 2.57   7 2.57   2 2.57  13 2.57   9 2.57  10 2.57
                            15 2.57
   5  0.333  0.333  0.252-   4 2.57   2 2.57   7 2.57  13 2.57   8 2.57   6 2.57   3 2.57  11 2.57
                            14 2.57
   6  0.667  0.333  0.252-   4 2.57   9 2.57  15 2.57   3 2.57   1 2.57   8 2.57  14 2.57   5 2.57
                            12 2.57
   7  0.000  0.667  0.252-   1 2.57   3 2.57  16 2.57  18 2.57   4 2.57   5 2.57   8 2.57   9 2.57
                            13 2.57
   8  0.333  0.667  0.252-   9 2.57   2 2.57  17 2.57   6 2.57   1 2.57   7 2.57   5 2.57  14 2.57
                            16 2.57
   9  0.667  0.667  0.252-   8 2.57   6 2.57   2 2.57  17 2.57   3 2.57   7 2.57   4 2.57  15 2.57
                            18 2.57
  10  0.111  0.111  0.351-  26 2.54  19 2.54  11 2.57  12 2.57  13 2.57   1 2.57   2 2.57   4 2.57
                            15 2.57  16 2.57  17 2.57  20 2.58
  11  0.444  0.111  0.351-  27 2.56  10 2.57  13 2.57   2 2.57  17 2.57  14 2.57  12 2.57   5 2.57
                             3 2.57  18 2.57  20 2.57  21 2.57
  12  0.778  0.111  0.351-  19 2.54  25 2.54  15 2.57  10 2.57  14 2.57  18 2.57   3 2.57   1 2.57
                            16 2.57  11 2.57   6 2.57  21 2.58
  13  0.111  0.444  0.351-  22 2.56  16 2.57  18 2.57  10 2.57  11 2.57  14 2.57   5 2.57   4 2.57
                             7 2.57  15 2.57  23 2.57  20 2.57
  14  0.444  0.444  0.351-  24 2.56  15 2.57  17 2.57  12 2.57  16 2.57  13 2.57  11 2.57   6 2.57
                             8 2.57   5 2.57  21 2.57  23 2.57
  15  0.778  0.444  0.351-  19 2.55  24 2.56  22 2.56  14 2.57  17 2.57  12 2.57   6 2.57  18 2.57
                            10 2.57   9 2.57  13 2.57   4 2.57
  16  0.111  0.778  0.351-  25 2.54  26 2.54  18 2.57  13 2.57   7 2.57  14 2.57  17 2.57  12 2.57
                            10 2.57   8 2.57   1 2.57  23 2.58
  17  0.444  0.778  0.351-  26 2.55  27 2.56  24 2.56  14 2.57  15 2.57   8 2.57   9 2.57  11 2.57
                            16 2.57  18 2.57  10 2.57   2 2.57
  18  0.778  0.778  0.351-  25 2.55  22 2.56  27 2.56  16 2.57  13 2.57   7 2.57  15 2.57  12 2.57
                            17 2.57   9 2.57   3 2.57  11 2.57
  19  0.889  0.221  0.448-  12 2.54  10 2.54  15 2.55  25 2.56  26 2.56  32 2.57  31 2.57  22 2.57
                            24 2.57  21 2.57  20 2.57  28 2.57
  20  0.223  0.223  0.450-  23 2.55  21 2.55  27 2.57  22 2.57  26 2.57  19 2.57  11 2.57  13 2.57
                            10 2.58  29 2.58  31 2.58  36 2.77
  21  0.555  0.223  0.450-  20 2.55  23 2.55  24 2.57  27 2.57  19 2.57  25 2.57  14 2.57  11 2.57
                            12 2.58  32 2.58  30 2.58  36 2.77
  22  0.889  0.556  0.449-  18 2.56  15 2.56  13 2.56  24 2.56  27 2.56  23 2.57  20 2.57  31 2.57
                            33 2.57  19 2.57  25 2.57  35 2.58
  23  0.223  0.555  0.450-  20 2.55  21 2.55  22 2.57  24 2.57  25 2.57  26 2.57  13 2.57  14 2.57
                            16 2.58  33 2.58  34 2.58  36 2.77
  24  0.556  0.556  0.449-  15 2.56  17 2.56  14 2.56  22 2.56  27 2.56  21 2.57  23 2.57  32 2.57
                            34 2.57  19 2.57  26 2.57  35 2.58
  25  0.889  0.889  0.448-  12 2.54  16 2.54  18 2.55  19 2.56  26 2.56  33 2.57  30 2.57  22 2.57
                            27 2.57  21 2.57  23 2.57  28 2.57
  26  0.221  0.889  0.448-  10 2.54  16 2.54  17 2.55  25 2.56  19 2.56  29 2.57  34 2.57  27 2.57
                            24 2.57  20 2.57  23 2.57  28 2.57
  27  0.556  0.889  0.449-  17 2.56  18 2.56  11 2.56  24 2.56  22 2.56  20 2.57  21 2.57  29 2.57
                            30 2.57  26 2.57  25 2.57  35 2.58
  28  0.000  0.000  0.547-  33 2.55  30 2.55  31 2.55  29 2.55  32 2.55  34 2.55  25 2.57  19 2.57
                            26 2.57
  29  0.334  0.994  0.548-  34 2.48  35 2.54  28 2.55  26 2.57  27 2.57  20 2.58  30 2.60  31 2.61
                            36 2.62
  30  0.672  0.994  0.548-  33 2.48  35 2.54  28 2.55  25 2.57  27 2.57  21 2.58  29 2.60  32 2.61
                            36 2.62
  31  0.994  0.334  0.548-  32 2.48  35 2.54  28 2.55  19 2.57  22 2.57  20 2.58  33 2.60  29 2.61
                            36 2.62
  32  0.672  0.334  0.548-  31 2.48  35 2.54  28 2.55  19 2.57  24 2.57  21 2.58  34 2.60  30 2.61
                            36 2.62
  33  0.994  0.672  0.548-  30 2.48  35 2.54  28 2.55  25 2.57  22 2.57  23 2.58  31 2.60  34 2.61
                            36 2.62
  34  0.334  0.672  0.548-  29 2.48  35 2.54  28 2.55  26 2.57  24 2.57  23 2.58  32 2.60  33 2.61
                            36 2.62
  35  0.667  0.667  0.548-  34 2.54  32 2.54  29 2.54  30 2.54  33 2.54  31 2.54  24 2.58  27 2.58
                            22 2.58
  36  0.333  0.333  0.560-  37 1.80  31 2.62  29 2.62  33 2.62  32 2.62  34 2.62  30 2.62  23 2.77
                            20 2.77  21 2.77
  37  0.333  0.333  0.644-  36 1.80
 
  LATTYP: Found a hexagonal cell.
 ALAT       =     7.6967864036
 C/A-ratio  =     2.7653617908
  
  Lattice vectors:
  
 A1 = (  -3.8483927580,  -6.6656128093,   0.0000000000)
 A2 = (   7.6967864037,   0.0000000000,   0.0000000000)
 A3 = (   0.0000000000,   0.0000000000,  21.2843990326)


Analysis of symmetry for initial positions (statically):
=====================================================================
 Subroutine PRICEL returns:
 Original cell was already a primitive cell.
 

 Routine SETGRP: Setting up the symmetry group for a 
 hexagonal supercell.


 Subroutine GETGRP returns: Found  6 space group operations
 (whereof  6 operations were pure point group operations)
 out of a pool of 24 trial point group operations.


The static configuration has the point symmetry C_3v.


Analysis of symmetry for dynamics (positions and initial velocities):
=====================================================================
 Subroutine PRICEL returns:
 Original cell was already a primitive cell.
 

 Routine SETGRP: Setting up the symmetry group for a 
 hexagonal supercell.


 Subroutine GETGRP returns: Found  6 space group operations
 (whereof  6 operations were pure point group operations)
 out of a pool of 24 trial point group operations.


The dynamic configuration has the point symmetry C_3v.


Analysis of constrained symmetry for selective dynamics:
=====================================================================
 Subroutine PRICEL returns:
 Original cell was already a primitive cell.
 

 Routine SETGRP: Setting up the symmetry group for a 
 hexagonal supercell.


 Subroutine GETGRP returns: Found  6 space group operations
 (whereof  6 operations were pure point group operations)
 out of a pool of 24 trial point group operations.


The constrained configuration has the point symmetry C_3v.


 Subroutine INISYM returns: Found  6 space group operations
 (whereof  6 operations are pure point group operations),
 and found     1 'primitive' translations


----------------------------------------------------------------------------------------

                                     Primitive cell                                     

  volume of cell :    1091.9705

  direct lattice vectors                    reciprocal lattice vectors
     7.696786404  0.000000000  0.000000000     0.129924354 -0.075011849  0.000000000
     3.848392758  6.665612809  0.000000000     0.000000000  0.150023716  0.000000000
     0.000000000  0.000000000 21.284399033     0.000000000  0.000000000  0.046982769

  length of vectors
     7.696786404  7.696786404 21.284399033     0.150023716  0.150023716  0.046982769

  position of ions in fractional coordinates (direct lattice)
     0.000000000  0.000000000  0.252370745
     0.333333343  0.000000000  0.252370745
     0.666666687  0.000000000  0.252370745
     1.000000000  0.333333343  0.252370745
     0.333333313  0.333333343  0.252370745
     0.666666687  0.333333343  0.252370745
     1.000000000  0.666666687  0.252370745
     0.333333373  0.666666687  0.252370745
     0.666666627  0.666666687  0.252370745
     0.111111119  0.111111112  0.350790262
     0.444444418  0.111111112  0.350790262
     0.777777791  0.111111112  0.350790262
     0.111111119  0.444444448  0.350790262
     0.444444478  0.444444448  0.350790262
     0.777777731  0.444444448  0.350790262
     0.111111112  0.777777731  0.350790262
     0.444444478  0.777777731  0.350790262
     0.777777851  0.777777731  0.350790262
     0.889263854  0.221472309  0.448017292
     0.222727760  0.222727745  0.449740995
     0.554544539  0.222727745  0.449740995
     0.888734740  0.555632600  0.448896737
     0.222727730  0.554544479  0.449740995
     0.555632660  0.555632600  0.448896737
     0.889263854  0.889263854  0.448017292
     0.221472324  0.889263854  0.448017292
     0.555632600  0.888734740  0.448896737
     0.000000000  0.000000000  0.547024706
     0.333803354  0.994491360  0.547616151
     0.671705316  0.994491360  0.547616151
     0.994491360  0.333803354  0.547616151
     0.671705316  0.333803354  0.547616151
     0.994491360  0.671705316  0.547616151
     0.333803384  0.671705316  0.547616151
     0.666666627  0.666666687  0.548174583
     0.333333313  0.333333343  0.559848234
     0.333333313  0.333333343  0.644266676

  ion indices of the primitive-cell ions
   primitive index   ion index
                 1           1
                 2           2
                 3           3
                 4           4
                 5           5
                 6           6
                 7           7
                 8           8
                 9           9
                10          10
                11          11
                12          12
                13          13
                14          14
                15          15
                16          16
                17          17
                18          18
                19          19
                20          20
                21          21
                22          22
                23          23
                24          24
                25          25
                26          26
                27          27
                28          28
                29          29
                30          30
                31          31
                32          32
                33          33
                34          34
                35          35
                36          36
                37          37

----------------------------------------------------------------------------------------

 
 
 KPOINTS: Automatic mesh                          

Automatic generation of k-mesh.
 Grid dimensions read from file:
 generate k-points for:    8    8    1

 Generating k-lattice:

  Cartesian coordinates                     Fractional coordinates (reciprocal lattice)
     0.016240544 -0.009376481  0.000000000     0.125000000 -0.000000000  0.000000000
     0.000000000  0.018752964  0.000000000     0.000000000  0.125000000  0.000000000
     0.000000000  0.000000000  0.046982769     0.000000000  0.000000000  1.000000000

  Length of vectors
     0.018752964  0.018752964  0.046982769

  Shift w.r.t. Gamma in fractional coordinates (k-lattice)
     0.000000000  0.000000000  0.000000000

 TETIRR: Found     36 inequivalent tetrahedra from      384
 
 Subroutine IBZKPT returns following result:
 ===========================================
 
 Found     10 irreducible k-points:
 
 Following reciprocal coordinates:
            Coordinates               Weight
  0.000000  0.000000  0.000000      1.000000
  0.125000 -0.000000  0.000000      6.000000
  0.250000 -0.000000  0.000000      6.000000
  0.375000 -0.000000  0.000000      6.000000
  0.500000 -0.000000  0.000000      3.000000
  0.250000  0.125000  0.000000      6.000000
  0.375000  0.125000  0.000000     12.000000
  0.500000  0.125000  0.000000     12.000000
  0.500000  0.250000  0.000000      6.000000
 -0.375000  0.250000  0.000000      6.000000
 
 Following cartesian coordinates:
            Coordinates               Weight
  0.000000  0.000000  0.000000      1.000000
  0.016241 -0.009376  0.000000      6.000000
  0.032481 -0.018753  0.000000      6.000000
  0.048722 -0.028129  0.000000      6.000000
  0.064962 -0.037506  0.000000      3.000000
  0.032481  0.000000  0.000000      6.000000
  0.048722 -0.009376  0.000000     12.000000
  0.064962 -0.018753  0.000000     12.000000
  0.064962  0.000000  0.000000      6.000000
 -0.048722  0.065635  0.000000      6.000000
 


--------------------------------------------------------------------------------------------------------




 Dimension of arrays:
   k-points           NKPTS =     10   k-points in BZ     NKDIM =     10   number of bands    NBANDS=    252
   number of dos      NEDOS =    301   number of ions     NIONS =     37
   non local maximal  LDIM  =      6   non local SUM 2l+1 LMDIM =     18
   total plane-waves  NPLWV = 211680
   max r-space proj   IRMAX =   3760   max aug-charges    IRDMAX=  13214
   dimension x,y,z NGX =    42 NGY =   42 NGZ =  120
   dimension x,y,z NGXF=    84 NGYF=   84 NGZF=  240
   support grid    NGXF=    84 NGYF=   84 NGZF=  240
   ions per type =              35   1   1
   NGX,Y,Z   is equivalent  to a cutoff of   9.07,  9.07,  9.37 a.u.
   NGXF,Y,Z  is equivalent  to a cutoff of  18.14, 18.14, 18.75 a.u.

 SYSTEM =  unknown system                          
 POSCAR =  Cu-Hf-O                                 

 Startparameter for this run:
   NWRITE =      2    write-flag & timer
   PREC   = normal    normal or accurate (medium, high low for compatibility)
   ISTART =      0    job   : 0-new  1-cont  2-samecut
   ICHARG =     11    charge: 1-file 2-atom 10-const
   ISPIN  =      1    spin polarized calculation?
   LNONCOLLINEAR =      F non collinear calculations
   LSORBIT =      F    spin-orbit coupling
   INIWAV =      1    electr: 0-lowe 1-rand  2-diag
   LASPH  =      F    aspherical Exc in radial PAW
   METAGGA=      F    non-selfconsistent MetaGGA calc.

 Electronic Relaxation 1
   ENCUT  =  500.0 eV  36.75 Ry    6.06 a.u.  14.03 14.03 38.81*2*pi/ulx,y,z
   ENINI  =  500.0     initial cutoff
   ENAUG  =  605.4 eV  augmentation charge cutoff
   NELM   =    150;   NELMIN=  2; NELMDL= -5     # of ELM steps 
   EDIFF  = 0.1E-04   stopping-criterion for ELM
   LREAL  =      T    real-space projection
   NLSPLINE    = F    spline interpolate recip. space projectors
   LCOMPAT=      F    compatible to vasp.4.4
   GGA_COMPAT  = T    GGA compatible to vasp.4.4-vasp.4.6
   LMAXPAW     = -100 max onsite density
   LMAXMIX     =    2 max onsite mixed and CHGCAR
   VOSKOWN=      0    Vosko Wilk Nusair interpolation
   ROPT   =   -0.00050  -0.00050  -0.00050
 Ionic relaxation
   EDIFFG = -.1E-01   stopping-criterion for IOM
   NSW    =      0    number of steps for IOM
   NBLOCK =      1;   KBLOCK =      1    inner block; outer block 
   IBRION =     -1    ionic relax: 0-MD 1-quasi-New 2-CG
   NFREE  =      1    steps in history (QN), initial steepest desc. (CG)
   ISIF   =      2    stress and relaxation
   IWAVPR =     10    prediction:  0-non 1-charg 2-wave 3-comb
   ISYM   =      2    0-nonsym 1-usesym 2-fastsym
   LCORR  =      T    Harris-Foulkes like correction to forces

   POTIM  = 0.5000    time-step for ionic-motion
   TEIN   =    0.0    initial temperature
   TEBEG  =    0.0;   TEEND  =   0.0 temperature during run
   SMASS  =  -3.00    Nose mass-parameter (am)
   estimated Nose-frequenzy (Omega)   =  0.10E-29 period in steps = 0.13E+47 mass=  -0.135E-26a.u.
   SCALEE = 1.0000    scale energy and forces
   NPACO  =    256;   APACO  = 16.0  distance and # of slots for P.C.
   PSTRESS=    0.0 pullay stress

  Mass of Ions in am
   POMASS =  63.55178.49 16.00
  Ionic Valenz
   ZVAL   =  11.00  4.00  6.00
  Atomic Wigner-Seitz radii
   RWIGS  =  -1.00 -1.00 -1.00
  virtual crystal weights 
   VCA    =   1.00  1.00  1.00
   NELECT =     395.0000    total number of electrons
   NUPDOWN=      -1.0000    fix difference up-down

 DOS related values:
   EMIN   =  10.00;   EMAX   =-10.00  energy-range for DOS
   EFERMI =   0.00
   ISMEAR =    -5;   SIGMA  =   0.10  broadening in eV -4-tet -1-fermi 0-gaus

 Electronic relaxation 2 (details)
   IALGO  =     68    algorithm
   LDIAG  =      T    sub-space diagonalisation (order eigenvalues)
   LSUBROT=      F    optimize rotation matrix (better conditioning)
   TURBO    =      0    0=normal 1=particle mesh
   IRESTART =      0    0=no restart 2=restart with 2 vectors
   NREBOOT  =      0    no. of reboots
   NMIN     =      0    reboot dimension
   EREF     =   0.00    reference energy to select bands
   IMIX   =      4    mixing-type and parameters
     AMIX     =   0.40;   BMIX     =  1.00
     AMIX_MAG =   1.60;   BMIX_MAG =  1.00
     AMIN     =   0.10
     WC   =   100.;   INIMIX=   1;  MIXPRE=   1;  MAXMIX= -45

 Intra band minimization:
   WEIMIN = 0.0000     energy-eigenvalue tresh-hold
   EBREAK =  0.99E-08  absolut break condition
   DEPER  =   0.30     relativ break condition  

   TIME   =   0.40     timestep for ELM

  volume/ion in A,a.u.               =      29.51       199.16
  Fermi-wavevector in a.u.,A,eV,Ry     =   1.166461  2.204292 18.512513  1.360631
  Thomas-Fermi vector in A             =   2.302974
 
 Write flags
   LWAVE        =      F    write WAVECAR
   LDOWNSAMPLE  =      F    k-point downsampling of WAVECAR
   LCHARG       =      F    write CHGCAR
   LVTOT        =      F    write LOCPOT, total local potential
   LVHAR        =      F    write LOCPOT, Hartree potential only
   LELF         =      F    write electronic localiz. function (ELF)
   LORBIT       =     10    0 simple, 1 ext, 2 COOP (PROOUT), +10 PAW based schemes


 Dipole corrections
   LMONO  =      F    monopole corrections only (constant potential shift)
   LDIPOL =      F    correct potential (dipole corrections)
   IDIPOL =      0    1-x, 2-y, 3-z, 4-all directions 
   EPSILON=  1.0000000 bulk dielectric constant

 Exchange correlation treatment:
   GGA     =    --    GGA type
   LEXCH   =     8    internal setting for exchange type
   VOSKOWN=      0    Vosko Wilk Nusair interpolation
   LHFCALC =     F    Hartree Fock is set to
   LHFONE  =     F    Hartree Fock one center treatment
   AEXX    =    0.0000 exact exchange contribution

 Linear response parameters
   LEPSILON=     F    determine dielectric tensor
   LRPA    =     F    only Hartree local field effects (RPA)
   LNABLA  =     F    use nabla operator in PAW spheres
   LVEL    =     F    velocity operator in full k-point grid
   LINTERFAST=   F  fast interpolation
   KINTER  =     0    interpolate to denser k-point grid
   CSHIFT  =0.1000    complex shift for real part using Kramers Kronig
   OMEGAMAX=  -1.0    maximum frequency
   DEG_THRESHOLD= 0.2000000E-02 threshold for treating states as degnerate
   RTIME   =   -0.100 relaxation time in fs
  (WPLASMAI=    0.000 imaginary part of plasma frequency in eV, 0.658/RTIME)
   DFIELD  = 0.0000000 0.0000000 0.0000000 field for delta impulse in time
 
 Orbital magnetization related:
   ORBITALMAG=     F  switch on orbital magnetization
   LCHIMAG   =     F  perturbation theory with respect to B field
   DQ        =  0.001000  dq finite difference perturbation B field
   LLRAUG    =     F  two centre corrections for induced B field



--------------------------------------------------------------------------------------------------------


 Static calculation
 charge density and potential remain constant during run
 non-spin polarized calculation
 RMM-DIIS sequential band-by-band and
  variant of blocked Davidson during initial phase
 perform sub-space diagonalisation
    before iterative eigenvector-optimisation
 no mixing
 using additional bands           54
 real space projection scheme for non local part
 use partial core corrections
 calculate Harris-corrections to forces 
   (improved forces if not selfconsistent)
 use gradient corrections 
 WARNING: stress and forces are not correct
  (second derivative of E(xc) not defined)
 use of overlap-Matrix (Vanderbilt PP)
 Fermi weights with tetrahedron method with Bloechl corrections


--------------------------------------------------------------------------------------------------------


  energy-cutoff  :      500.00
  volume of cell :     1091.97
      direct lattice vectors                 reciprocal lattice vectors
     7.696786404  0.000000000  0.000000000     0.129924354 -0.075011849  0.000000000
     3.848392758  6.665612809  0.000000000     0.000000000  0.150023716  0.000000000
     0.000000000  0.000000000 21.284399033     0.000000000  0.000000000  0.046982769

  length of vectors
     7.696786404  7.696786404 21.284399033     0.150023716  0.150023716  0.046982769


 
 k-points in units of 2pi/SCALE and weight: Automatic mesh                          
   0.00000000  0.00000000  0.00000000       0.016
   0.01624054 -0.00937648  0.00000000       0.094
   0.03248109 -0.01875296  0.00000000       0.094
   0.04872163 -0.02812944  0.00000000       0.094
   0.06496218 -0.03750592  0.00000000       0.047
   0.03248109  0.00000000  0.00000000       0.094
   0.04872163 -0.00937648  0.00000000       0.188
   0.06496218 -0.01875296  0.00000000       0.188
   0.06496218  0.00000000  0.00000000       0.094
  -0.04872163  0.06563537  0.00000000       0.094
 
 k-points in reciprocal lattice and weights: Automatic mesh                          
   0.00000000  0.00000000  0.00000000       0.016
   0.12500000 -0.00000000  0.00000000       0.094
   0.25000000 -0.00000000  0.00000000       0.094
   0.37500000 -0.00000000  0.00000000       0.094
   0.50000000 -0.00000000  0.00000000       0.047
   0.25000000  0.12500000  0.00000000       0.094
   0.37500000  0.12500000  0.00000000       0.188
   0.50000000  0.12500000  0.00000000       0.188
   0.50000000  0.25000000  0.00000000       0.094
  -0.37500000  0.25000000  0.00000000       0.094
 
 position of ions in fractional coordinates (direct lattice) 
   0.00000000  0.00000000  0.25237075
   0.33333334  0.00000000  0.25237075
   0.66666669  0.00000000  0.25237075
   0.00000000  0.33333334  0.25237075
   0.33333331  0.33333334  0.25237075
   0.66666669  0.33333334  0.25237075
   0.00000000  0.66666669  0.25237075
   0.33333337  0.66666669  0.25237075
   0.66666663  0.66666669  0.25237075
   0.11111112  0.11111111  0.35079026
   0.44444442  0.11111111  0.35079026
   0.77777779  0.11111111  0.35079026
   0.11111112  0.44444445  0.35079026
   0.44444448  0.44444445  0.35079026
   0.77777773  0.44444445  0.35079026
   0.11111111  0.77777773  0.35079026
   0.44444448  0.77777773  0.35079026
   0.77777785  0.77777773  0.35079026
   0.88926385  0.22147231  0.44801729
   0.22272776  0.22272775  0.44974099
   0.55454454  0.22272775  0.44974099
   0.88873474  0.55563260  0.44889674
   0.22272773  0.55454448  0.44974099
   0.55563266  0.55563260  0.44889674
   0.88926385  0.88926385  0.44801729
   0.22147232  0.88926385  0.44801729
   0.55563260  0.88873474  0.44889674
   0.00000000  0.00000000  0.54702471
   0.33380335  0.99449136  0.54761615
   0.67170532  0.99449136  0.54761615
   0.99449136  0.33380335  0.54761615
   0.67170532  0.33380335  0.54761615
   0.99449136  0.67170532  0.54761615
   0.33380338  0.67170532  0.54761615
   0.66666663  0.66666669  0.54817458
   0.33333331  0.33333334  0.55984823
   0.33333331  0.33333334  0.64426668
 
 position of ions in cartesian coordinates  (Angst):
   0.00000000  0.00000000  5.37155964
   2.56559554  0.00000000  5.37155964
   5.13119109  0.00000000  5.37155964
   1.28279762  2.22187100  5.37155964
   3.84839293  2.22187100  5.37155964
   6.41398872  2.22187100  5.37155964
   2.56559525  4.44374201  5.37155964
   5.13119102  4.44374201  5.37155964
   7.69678588  4.44374201  5.37155964
   1.28279775  0.74062365  7.46635991
   3.84839295  0.74062365  7.46635991
   6.41398873  0.74062365  7.46635991
   2.56559535  2.96249461  7.46635991
   5.13119101  2.96249461  7.46635991
   7.69678586  2.96249461  7.46635991
   3.84839268  5.18436521  7.46635991
   6.41398840  5.18436521  7.46635991
   8.97958418  5.18436521  7.46635991
   7.69678637  1.47624866  9.53577883
   2.57143184  1.48461691  9.57246679
   5.12535471  1.48461691  9.57246679
   8.97869394  3.70363178  9.55449728
   3.84839272  3.69637878  9.57246679
   6.41487838  3.70363178  9.55449728
  10.26671051  5.92748853  9.53577883
   5.12686175  5.92748853  9.53577883
   7.69678578  5.92396167  9.55449728
   0.00000000  0.00000000 11.64309213
   6.39640647  6.62889435 11.65568068
   8.99716569  6.62889435 11.65568068
   8.93899399  2.22500391 11.65568068
   6.45457875  2.22500391 11.65568068
  10.23937345  4.47732756 11.65568068
   5.15419922  4.47732756 11.65568068
   7.69678588  4.44374201 11.66756656
   3.84839293  2.22187100 11.91603321
   3.84839293  2.22187100 13.71282901
 


--------------------------------------------------------------------------------------------------------


 k-point   1 :   0.0000 0.0000 0.0000  plane waves:   27671
 k-point   2 :   0.1250-0.0000 0.0000  plane waves:   27649
 k-point   3 :   0.2500-0.0000 0.0000  plane waves:   27714
 k-point   4 :   0.3750-0.0000 0.0000  plane waves:   27740
 k-point   5 :   0.5000-0.0000 0.0000  plane waves:   27782
 k-point   6 :   0.2500 0.1250 0.0000  plane waves:   27698
 k-point   7 :   0.3750 0.1250 0.0000  plane waves:   27702
 k-point   8 :   0.5000 0.1250 0.0000  plane waves:   27747
 k-point   9 :   0.5000 0.2500 0.0000  plane waves:   27734
 k-point  10 :  -0.3750 0.2500 0.0000  plane waves:   27782

 maximum and minimum number of plane-waves per node :     27782    27649

 maximum number of plane-waves:     27782
 maximum index in each direction: 
   IXMAX=   14   IYMAX=   14   IZMAX=   38
   IXMIN=  -14   IYMIN=  -14   IZMIN=  -38


 serial   3D FFT for wavefunctions
 parallel 3D FFT for charge:
    minimum data exchange during FFTs selected (reduces bandwidth)


 total amount of memory used by VASP MPI-rank0   105185. kBytes
=======================================================================

   base      :      30000. kBytes
   nonlr-proj:      18299. kBytes
   fftplans  :       2916. kBytes
   grid      :      12390. kBytes
   one-center:        575. kBytes
   wavefun   :      41005. kBytes
 
     INWAV:  cpu time    0.0000: real time    0.0000
 initial charge density was supplied:
 number of electron     395.0000361 magnetization 
 keeping initial charge density in first step


--------------------------------------------------------------------------------------------------------


 Maximum index for non-local projection operator         3595
 Maximum index for augmentation-charges          602 (set IRDMAX)


--------------------------------------------------------------------------------------------------------


 First call to EWALD:  gamma=   0.172
 Maximum number of real-space cells 4x 4x 2
 Maximum number of reciprocal cells 2x 2x 5

    FEWALD:  cpu time    0.0013: real time    0.0014


--------------------------------------- Iteration      1(   1)  ---------------------------------------


    POTLOK:  cpu time    0.0265: real time    0.0270
    SETDIJ:  cpu time    0.0044: real time    0.0044
     EDDAV:  cpu time    5.7617: real time    5.7633
 BZINTS: Fermi energy:   13.678628;  395.000000 electrons
         Band energy: 0.248366E+04;  BLOECHL correction:   -0.024585
       DOS:  cpu time    0.0100: real time    0.0101
    --------------------------------------------
      LOOP:  cpu time    5.8026: real time    5.8048

 eigenvalue-minimisations  :  5040
 total energy-change (2. order) : 0.3571906E+04  (-0.1700936E+05)
 number of electron     395.0000361 magnetization 
 augmentation part      395.0000361 magnetization 

 Free energy of the ion-electron system (eV)
  ---------------------------------------------------
  alpha Z        PSCENC =       879.96489322
  Ewald energy   TEWEN  =    143382.03389988
  -Hartree energ DENC   =   -190187.02953847
  -exchange      EXHF   =         0.00000000
  -V(xc)+E(xc)   XCENC  =      1533.56834700
  PAW double counting   =     46965.36242450   -50678.09188073
  entropy T*S    EENTRO =         0.00000000
  eigenvalues    EBANDS =      2483.66185161
  atomic energy  EATOM  =     49192.43587254
  Solvation  Ediel_sol  =         0.00000000
  ---------------------------------------------------
  free energy    TOTEN  =      3571.90586955 eV

  energy without entropy =     3571.90586955  energy(sigma->0) =     3571.90586955


--------------------------------------------------------------------------------------------------------




--------------------------------------- Iteration      1(   2)  ---------------------------------------


     EDDAV:  cpu time    5.7240: real time    5.7274
 BZINTS: Fermi energy:    3.034645;  395.000000 electrons
         Band energy:-0.731518E+03;  BLOECHL correction:   -0.022767
       DOS:  cpu time    0.0103: real time    0.0103
    --------------------------------------------
      LOOP:  cpu time    5.7343: real time    5.7377

 eigenvalue-minimisations  :  5040
 total energy-change (2. order) :-0.3215180E+04  (-0.3081000E+04)
 number of electron     395.0000361 magnetization 
 augmentation part      395.0000361 magnetization 

 Free energy of the ion-electron system (eV)
  ---------------------------------------------------
  alpha Z        PSCENC =       879.96489322
  Ewald energy   TEWEN  =    143382.03389988
  -Hartree energ DENC   =   -190187.02953847
  -exchange      EXHF   =         0.00000000
  -V(xc)+E(xc)   XCENC  =      1533.56834700
  PAW double counting   =     46965.36242450   -50678.09188073
  entropy T*S    EENTRO =         0.00000000
  eigenvalues    EBANDS =      -731.51809074
  atomic energy  EATOM  =     49192.43587254
  Solvation  Ediel_sol  =         0.00000000
  ---------------------------------------------------
  free energy    TOTEN  =       356.72592720 eV

  energy without entropy =      356.72592720  energy(sigma->0) =      356.72592720


--------------------------------------------------------------------------------------------------------




--------------------------------------- Iteration      1(   3)  ---------------------------------------


     EDDAV:  cpu time    5.9872: real time    5.9876
 BZINTS: Fermi energy:    0.177018;  395.000000 electrons
         Band energy:-0.119414E+04;  BLOECHL correction:   -0.057166
       DOS:  cpu time    0.0098: real time    0.0098
    --------------------------------------------
      LOOP:  cpu time    5.9970: real time    5.9974

 eigenvalue-minimisations  :  5320
 total energy-change (2. order) :-0.4626170E+03  (-0.4358222E+03)
 number of electron     395.0000361 magnetization 
 augmentation part      395.0000361 magnetization 

 Free energy of the ion-electron system (eV)
  ---------------------------------------------------
  alpha Z        PSCENC =       879.96489322
  Ewald energy   TEWEN  =    143382.03389988
  -Hartree energ DENC   =   -190187.02953847
  -exchange      EXHF   =         0.00000000
  -V(xc)+E(xc)   XCENC  =      1533.56834700
  PAW double counting   =     46965.36242450   -50678.09188073
  entropy T*S    EENTRO =         0.00000000
  eigenvalues    EBANDS =     -1194.13508765
  atomic energy  EATOM  =     49192.43587254
  Solvation  Ediel_sol  =         0.00000000
  ---------------------------------------------------
  free energy    TOTEN  =      -105.89106972 eV

  energy without entropy =     -105.89106972  energy(sigma->0) =     -105.89106972


--------------------------------------------------------------------------------------------------------




--------------------------------------- Iteration      1(   4)  ---------------------------------------


     EDDAV:  cpu time    6.8596: real time    6.8601
 BZINTS: Fermi energy:   -0.156107;  395.000000 electrons
         Band energy:-0.122699E+04;  BLOECHL correction:   -0.077274
       DOS:  cpu time    0.0102: real time    0.0102
    --------------------------------------------
      LOOP:  cpu time    6.8699: real time    6.8703

 eigenvalue-minimisations  :  6272
 total energy-change (2. order) :-0.3285860E+02  (-0.3082102E+02)
 number of electron     395.0000361 magnetization 
 augmentation part      395.0000361 magnetization 

 Free energy of the ion-electron system (eV)
  ---------------------------------------------------
  alpha Z        PSCENC =       879.96489322
  Ewald energy   TEWEN  =    143382.03389988
  -Hartree energ DENC   =   -190187.02953847
  -exchange      EXHF   =         0.00000000
  -V(xc)+E(xc)   XCENC  =      1533.56834700
  PAW double counting   =     46965.36242450   -50678.09188073
  entropy T*S    EENTRO =         0.00000000
  eigenvalues    EBANDS =     -1226.99368937
  atomic energy  EATOM  =     49192.43587254
  Solvation  Ediel_sol  =         0.00000000
  ---------------------------------------------------
  free energy    TOTEN  =      -138.74967144 eV

  energy without entropy =     -138.74967144  energy(sigma->0) =     -138.74967144


--------------------------------------------------------------------------------------------------------




--------------------------------------- Iteration      1(   5)  ---------------------------------------


     EDDAV:  cpu time    6.7490: real time    6.7495
 BZINTS: Fermi energy:   -0.165775;  395.000000 electrons
         Band energy:-0.122792E+04;  BLOECHL correction:   -0.076711
       DOS:  cpu time    0.0102: real time    0.0102
    --------------------------------------------
      LOOP:  cpu time    6.7592: real time    6.7598

 eigenvalue-minimisations  :  6160
 total energy-change (2. order) :-0.9308619E+00  (-0.9282231E+00)
 number of electron     395.0000361 magnetization 
 augmentation part      395.0000361 magnetization 

 Free energy of the ion-electron system (eV)
  ---------------------------------------------------
  alpha Z        PSCENC =       879.96489322
  Ewald energy   TEWEN  =    143382.03389988
  -Hartree energ DENC   =   -190187.02953847
  -exchange      EXHF   =         0.00000000
  -V(xc)+E(xc)   XCENC  =      1533.56834700
  PAW double counting   =     46965.36242450   -50678.09188073
  entropy T*S    EENTRO =         0.00000000
  eigenvalues    EBANDS =     -1227.92455131
  atomic energy  EATOM  =     49192.43587254
  Solvation  Ediel_sol  =         0.00000000
  ---------------------------------------------------
  free energy    TOTEN  =      -139.68053337 eV

  energy without entropy =     -139.68053337  energy(sigma->0) =     -139.68053337


--------------------------------------------------------------------------------------------------------




--------------------------------------- Iteration      1(   6)  ---------------------------------------


    EDDIAG:  cpu time    1.0509: real time    1.0514
  RMM-DIIS:  cpu time    3.1129: real time    3.1131
    ORTHCH:  cpu time    0.2079: real time    0.2079
 BZINTS: Fermi energy:   -0.165870;  395.000000 electrons
         Band energy:-0.122795E+04;  BLOECHL correction:   -0.076680
       DOS:  cpu time    0.0098: real time    0.0098
    --------------------------------------------
      LOOP:  cpu time    4.3815: real time    4.3822

 eigenvalue-minimisations  :  5480
 total energy-change (2. order) :-0.2333337E-01  (-0.2335082E-01)
 number of electron     395.0000361 magnetization 
 augmentation part      395.0000361 magnetization 

 Free energy of the ion-electron system (eV)
  ---------------------------------------------------
  alpha Z        PSCENC =       879.96489322
  Ewald energy   TEWEN  =    143382.03389988
  -Hartree energ DENC   =   -190187.02953847
  -exchange      EXHF   =         0.00000000
  -V(xc)+E(xc)   XCENC  =      1533.56834700
  PAW double counting   =     46965.36242450   -50678.09188073
  entropy T*S    EENTRO =         0.00000000
  eigenvalues    EBANDS =     -1227.94788468
  atomic energy  EATOM  =     49192.43587254
  Solvation  Ediel_sol  =         0.00000000
  ---------------------------------------------------
  free energy    TOTEN  =      -139.70386675 eV

  energy without entropy =     -139.70386675  energy(sigma->0) =     -139.70386675


--------------------------------------------------------------------------------------------------------




--------------------------------------- Iteration      1(   7)  ---------------------------------------


    EDDIAG:  cpu time    1.0516: real time    1.0518
  RMM-DIIS:  cpu time    4.3906: real time    4.3909
    ORTHCH:  cpu time    0.2073: real time    0.2073
 BZINTS: Fermi energy:   -0.165904;  395.000000 electrons
         Band energy:-0.122796E+04;  BLOECHL correction:   -0.076669
       DOS:  cpu time    0.0098: real time    0.0098
    --------------------------------------------
      LOOP:  cpu time    5.6593: real time    5.6598

 eigenvalue-minimisations  :  7670
 total energy-change (2. order) :-0.9400090E-02  (-0.9435237E-02)
 number of electron     395.0000361 magnetization 
 augmentation part      395.0000361 magnetization 

 Free energy of the ion-electron system (eV)
  ---------------------------------------------------
  alpha Z        PSCENC =       879.96489322
  Ewald energy   TEWEN  =    143382.03389988
  -Hartree energ DENC   =   -190187.02953847
  -exchange      EXHF   =         0.00000000
  -V(xc)+E(xc)   XCENC  =      1533.56834700
  PAW double counting   =     46965.36242450   -50678.09188073
  entropy T*S    EENTRO =         0.00000000
  eigenvalues    EBANDS =     -1227.95728477
  atomic energy  EATOM  =     49192.43587254
  Solvation  Ediel_sol  =         0.00000000
  ---------------------------------------------------
  free energy    TOTEN  =      -139.71326684 eV

  energy without entropy =     -139.71326684  energy(sigma->0) =     -139.71326684


--------------------------------------------------------------------------------------------------------




--------------------------------------- Iteration      1(   8)  ---------------------------------------


    EDDIAG:  cpu time    1.0537: real time    1.0538
  RMM-DIIS:  cpu time    3.9965: real time    3.9967
    ORTHCH:  cpu time    0.2077: real time    0.2077
 BZINTS: Fermi energy:   -0.165905;  395.000000 electrons
         Band energy:-0.122796E+04;  BLOECHL correction:   -0.076669
       DOS:  cpu time    0.0102: real time    0.0102
    --------------------------------------------
      LOOP:  cpu time    5.2681: real time    5.2684

 eigenvalue-minimisations  :  7042
 total energy-change (2. order) :-0.5439322E-03  (-0.5181628E-03)
 number of electron     395.0000361 magnetization 
 augmentation part      395.0000361 magnetization 

 Free energy of the ion-electron system (eV)
  ---------------------------------------------------
  alpha Z        PSCENC =       879.96489322
  Ewald energy   TEWEN  =    143382.03389988
  -Hartree energ DENC   =   -190187.02953847
  -exchange      EXHF   =         0.00000000
  -V(xc)+E(xc)   XCENC  =      1533.56834700
  PAW double counting   =     46965.36242450   -50678.09188073
  entropy T*S    EENTRO =         0.00000000
  eigenvalues    EBANDS =     -1227.95782870
  atomic energy  EATOM  =     49192.43587254
  Solvation  Ediel_sol  =         0.00000000
  ---------------------------------------------------
  free energy    TOTEN  =      -139.71381077 eV

  energy without entropy =     -139.71381077  energy(sigma->0) =     -139.71381077


--------------------------------------------------------------------------------------------------------




--------------------------------------- Iteration      1(   9)  ---------------------------------------


    EDDIAG:  cpu time    1.0520: real time    1.0522
  RMM-DIIS:  cpu time    4.3242: real time    4.3244
    ORTHCH:  cpu time    0.2076: real time    0.2076
 BZINTS: Fermi energy:   -0.165906;  395.000000 electrons
         Band energy:-0.122796E+04;  BLOECHL correction:   -0.076669
       DOS:  cpu time    0.0102: real time    0.0102
    --------------------------------------------
      LOOP:  cpu time    5.5940: real time    5.5944

 eigenvalue-minimisations  :  7629
 total energy-change (2. order) :-0.1355773E-03  (-0.1327169E-03)
 number of electron     395.0000361 magnetization 
 augmentation part      395.0000361 magnetization 

 Free energy of the ion-electron system (eV)
  ---------------------------------------------------
  alpha Z        PSCENC =       879.96489322
  Ewald energy   TEWEN  =    143382.03389988
  -Hartree energ DENC   =   -190187.02953847
  -exchange      EXHF   =         0.00000000
  -V(xc)+E(xc)   XCENC  =      1533.56834700
  PAW double counting   =     46965.36242450   -50678.09188073
  entropy T*S    EENTRO =         0.00000000
  eigenvalues    EBANDS =     -1227.95796428
  atomic energy  EATOM  =     49192.43587254
  Solvation  Ediel_sol  =         0.00000000
  ---------------------------------------------------
  free energy    TOTEN  =      -139.71394635 eV

  energy without entropy =     -139.71394635  energy(sigma->0) =     -139.71394635


--------------------------------------------------------------------------------------------------------




--------------------------------------- Iteration      1(  10)  ---------------------------------------


    EDDIAG:  cpu time    1.0519: real time    1.0520
  RMM-DIIS:  cpu time    3.4638: real time    3.4639
    ORTHCH:  cpu time    0.2074: real time    0.2075
 BZINTS: Fermi energy:   -0.165906;  395.000000 electrons
         Band energy:-0.122796E+04;  BLOECHL correction:   -0.076669
       DOS:  cpu time    0.0100: real time    0.0100
    --------------------------------------------
      LOOP:  cpu time    4.7331: real time    4.7334

 eigenvalue-minimisations  :  5736
 total energy-change (2. order) :-0.1213042E-04  (-0.1154185E-04)
 number of electron     395.0000361 magnetization 
 augmentation part      395.0000361 magnetization 

 Free energy of the ion-electron system (eV)
  ---------------------------------------------------
  alpha Z        PSCENC =       879.96489322
  Ewald energy   TEWEN  =    143382.03389988
  -Hartree energ DENC   =   -190187.02953847
  -exchange      EXHF   =         0.00000000
  -V(xc)+E(xc)   XCENC  =      1533.56834700
  PAW double counting   =     46965.36242450   -50678.09188073
  entropy T*S    EENTRO =         0.00000000
  eigenvalues    EBANDS =     -1227.95797641
  atomic energy  EATOM  =     49192.43587254
  Solvation  Ediel_sol  =         0.00000000
  ---------------------------------------------------
  free energy    TOTEN  =      -139.71395848 eV

  energy without entropy =     -139.71395848  energy(sigma->0) =     -139.71395848


--------------------------------------------------------------------------------------------------------




--------------------------------------- Iteration      1(  11)  ---------------------------------------


    EDDIAG:  cpu time    1.0527: real time    1.0528
  RMM-DIIS:  cpu time    2.5620: real time    2.5621
    ORTHCH:  cpu time    0.2075: real time    0.2075
 BZINTS: Fermi energy:   -0.165906;  395.000000 electrons
         Band energy:-0.122796E+04;  BLOECHL correction:   -0.076669
       DOS:  cpu time    0.0091: real time    0.0091
    --------------------------------------------
      LOOP:  cpu time    3.8313: real time    3.8315

 eigenvalue-minimisations  :  3783
 total energy-change (2. order) :-0.1798238E-05  (-0.1784035E-05)
 number of electron     395.0000361 magnetization 
 augmentation part      395.0000361 magnetization 

 Free energy of the ion-electron system (eV)
  ---------------------------------------------------
  alpha Z        PSCENC =       879.96489322
  Ewald energy   TEWEN  =    143382.03389988
  -Hartree energ DENC   =   -190187.02953847
  -exchange      EXHF   =         0.00000000
  -V(xc)+E(xc)   XCENC  =      1533.56834700
  PAW double counting   =     46965.36242450   -50678.09188073
  entropy T*S    EENTRO =         0.00000000
  eigenvalues    EBANDS =     -1227.95797821
  atomic energy  EATOM  =     49192.43587254
  Solvation  Ediel_sol  =         0.00000000
  ---------------------------------------------------
  free energy    TOTEN  =      -139.71396027 eV

  energy without entropy =     -139.71396027  energy(sigma->0) =     -139.71396027


--------------------------------------------------------------------------------------------------------




 average (electrostatic) potential at core
  the test charge radii are     0.9430  1.2481  0.7215
  (the norm of the test charge is              1.0000)
       1 -71.1446       2 -71.1486       3 -71.1485       4 -71.1486       5 -71.1599
       6 -71.1482       7 -71.1485       8 -71.1482       9 -71.1385      10 -71.4195
      11 -71.4025      12 -71.4193      13 -71.4026      14 -71.4022      15 -71.4189
      16 -71.4192      17 -71.4189      18 -71.4191      19 -71.4312      20 -71.5642
      21 -71.5642      22 -71.4114      23 -71.5642      24 -71.4110      25 -71.4314
      26 -71.4311      27 -71.4113      28 -71.2384      29 -71.4296      30 -71.4297
      31 -71.4296      32 -71.4295      33 -71.4297      34 -71.4295      35 -71.2224
      36 -40.3153      37 -74.3709
 
 
 
 E-fermi :  -0.1659     XC(G=0):  -5.9571     alpha+bet : -5.4016

 Fermi energy:        -0.1659058809

 k-point     1 :       0.0000    0.0000    0.0000
  band No.  band energies     occupation 
      1     -16.2420      2.00000
      2      -9.0004      2.00000
      3      -7.7289      2.00000
      4      -6.1311      2.00000
      5      -6.0273      2.00000
      6      -6.0272      2.00000
      7      -6.0060      2.00000
      8      -5.9958      2.00000
      9      -5.9956      2.00000
     10      -5.9448      2.00000
     11      -5.2958      2.00000
     12      -5.2958      2.00000
     13      -5.2762      2.00000
     14      -5.2487      2.00000
     15      -5.2415      2.00000
     16      -5.2414      2.00000
     17      -5.1388      2.00000
     18      -4.6177      2.00000
     19      -4.6177      2.00000
     20      -4.5840      2.00000
     21      -4.5540      2.00000
     22      -4.5539      2.00000
     23      -4.5108      2.00000
     24      -4.2664      2.00000
     25      -4.2604      2.00000
     26      -4.2604      2.00000
     27      -4.2438      2.00000
     28      -4.2437      2.00000
     29      -4.2308      2.00000
     30      -4.1080      2.00000
     31      -4.1080      2.00000
     32      -4.1003      2.00000
     33      -4.0919      2.00000
     34      -4.0794      2.00000
     35      -4.0794      2.00000
     36      -4.0649      2.00000
     37      -4.0649      2.00000
     38      -4.0595      2.00000
     39      -4.0595      2.00000
     40      -4.0533      2.00000
     41      -4.0523      2.00000
     42      -3.9992      2.00000
     43      -3.9992      2.00000
     44      -3.9022      2.00000
     45      -3.9022      2.00000
     46      -3.8280      2.00000
     47      -3.8250      2.00000
     48      -3.8035      2.00000
     49      -3.7782      2.00000
     50      -3.7782      2.00000
     51      -3.7697      2.00000
     52      -3.7610      2.00000
     53      -3.7610      2.00000
     54      -3.6831      2.00000
     55      -3.6741      2.00000
     56      -3.4422      2.00000
     57      -3.4195      2.00000
     58      -3.4195      2.00000
     59      -3.4077      2.00000
     60      -3.4077      2.00000
     61      -3.4075      2.00000
     62      -3.3756      2.00000
     63      -3.3755      2.00000
     64      -3.3288      2.00000
     65      -3.3227      2.00000
     66      -3.3227      2.00000
     67      -3.2761      2.00000
     68      -3.2761      2.00000
     69      -3.2613      2.00000
     70      -3.2613      2.00000
     71      -3.2421      2.00000
     72      -3.2383      2.00000
     73      -3.1965      2.00000
     74      -3.1754      2.00000
     75      -3.1754      2.00000
     76      -3.1336      2.00000
     77      -3.1336      2.00000
     78      -3.0783      2.00000
     79      -3.0783      2.00000
     80      -3.0770      2.00000
     81      -3.0734      2.00000
     82      -3.0734      2.00000
     83      -3.0653      2.00000
     84      -3.0653      2.00000
     85      -3.0495      2.00000
     86      -3.0236      2.00000
     87      -3.0236      2.00000
     88      -2.9867      2.00000
     89      -2.9578      2.00000
     90      -2.9577      2.00000
     91      -2.9463      2.00000
     92      -2.9302      2.00000
     93      -2.9301      2.00000
     94      -2.9034      2.00000
     95      -2.8798      2.00000
     96      -2.8798      2.00000
     97      -2.8665      2.00000
     98      -2.8665      2.00000
     99      -2.8474      2.00000
    100      -2.8419      2.00000
    101      -2.8419      2.00000
    102      -2.8386      2.00000
    103      -2.8315      2.00000
    104      -2.8315      2.00000
    105      -2.8248      2.00000
    106      -2.8248      2.00000
    107      -2.7971      2.00000
    108      -2.7971      2.00000
    109      -2.6269      2.00000
    110      -2.5996      2.00000
    111      -2.5942      2.00000
    112      -2.5941      2.00000
    113      -2.5892      2.00000
    114      -2.5892      2.00000
    115      -2.5722      2.00000
    116      -2.5182      2.00000
    117      -2.5182      2.00000
    118      -2.5172      2.00000
    119      -2.4944      2.00000
    120      -2.4943      2.00000
    121      -2.4929      2.00000
    122      -2.4785      2.00000
    123      -2.4374      2.00000
    124      -2.4374      2.00000
    125      -2.3923      2.00000
    126      -2.3907      2.00000
    127      -2.3907      2.00000
    128      -2.3735      2.00000
    129      -2.3735      2.00000
    130      -2.3592      2.00000
    131      -2.3592      2.00000
    132      -2.3144      2.00000
    133      -2.2839      2.00000
    134      -2.2839      2.00000
    135      -2.2730      2.00000
    136      -2.2488      2.00000
    137      -2.2334      2.00000
    138      -2.2334      2.00000
    139      -2.2215      2.00000
    140      -2.2215      2.00000
    141      -2.2007      2.00000
    142      -2.1989      2.00000
    143      -2.1989      2.00000
    144      -2.1655      2.00000
    145      -2.1655      2.00000
    146      -2.1544      2.00000
    147      -2.1266      2.00000
    148      -2.1266      2.00000
    149      -2.1080      2.00000
    150      -2.0826      2.00000
    151      -2.0695      2.00000
    152      -2.0694      2.00000
    153      -2.0592      2.00000
    154      -2.0516      2.00000
    155      -2.0494      2.00000
    156      -2.0494      2.00000
    157      -2.0323      2.00000
    158      -2.0213      2.00000
    159      -2.0032      2.00000
    160      -2.0003      2.00000
    161      -2.0002      2.00000
    162      -1.9929      2.00000
    163      -1.9928      2.00000
    164      -1.9710      2.00000
    165      -1.9684      2.00000
    166      -1.9684      2.00000
    167      -1.9670      2.00000
    168      -1.9670      2.00000
    169      -1.9402      2.00000
    170      -1.9253      2.00000
    171      -1.9253      2.00000
    172      -1.9105      2.00000
    173      -1.9105      2.00000
    174      -1.8638      2.00000
    175      -1.8638      2.00000
    176      -1.8618      2.00000
    177      -1.8570      2.00000
    178      -1.8533      2.00000
    179      -1.8533      2.00000
    180      -1.8520      2.00000
    181      -1.8510      2.00000
    182      -1.8441      2.00000
    183      -1.8441      2.00000
    184      -1.8347      2.00000
    185      -1.8347      2.00000
    186      -1.7793      2.00000
    187      -1.7792      2.00000
    188      -1.7702      2.00000
    189      -1.7534      2.00000
    190      -1.7469      2.00000
    191      -1.7469      2.00000
    192      -1.7416      2.00000
    193      -1.7396      2.00000
    194      -1.7396      2.00000
    195      -1.3023      2.00000
    196      -0.6219      2.00000
    197      -0.6103      2.00000
    198      -0.6103      2.00000
    199      -0.5289      2.00000
    200      -0.4395      2.00000
    201      -0.4395      2.71847
    202      -0.2678      1.04972
    203       1.2109      0.00000
    204       1.2109      0.00000
    205       1.5992      0.00000
    206       1.8133      0.00000
    207       1.8134      0.00000
    208       1.8189      0.00000
    209       1.8728      0.00000
    210       1.8728      0.00000
    211       3.1592      0.00000
    212       3.1593      0.00000
    213       3.1800      0.00000
    214       3.2549      0.00000
    215       3.5235      0.00000
    216       3.5236      0.00000
    217       3.9656      0.00000
    218       3.9657      0.00000
    219       4.2050      0.00000
    220       4.2865      0.00000
    221       4.2865      0.00000
    222       4.3706      0.00000
    223       4.4195      0.00000
    224       4.4196      0.00000
    225       4.4606      0.00000
    226       4.8861      0.00000
    227       4.9579      0.00000
    228       4.9580      0.00000
    229       5.0554      0.00000
    230       5.1653      0.00000
    231       5.6571      0.00000
    232       5.6571      0.00000
    233       6.1586      0.00000
    234       6.1588      0.00000
    235       6.1588      0.00000
    236       6.2535      0.00000
    237       6.4962      0.00000
    238       6.4962      0.00000
    239       6.6940      0.00000
    240       6.8616      0.00000
    241       6.8752      0.00000
    242       6.8753      0.00000
    243       7.0746      0.00000
    244       7.0749      0.00000
    245       7.0922      0.00000
    246       7.2310      0.00000
    247       7.4266      0.00000
    248       7.5613      0.00000
    249       7.5638      0.00000
    250       7.7491      0.00000
    251       7.7809      0.00000
    252       7.9011      0.00000

 k-point     2 :       0.1250   -0.0000    0.0000
  band No.  band energies     occupation 
      1     -16.2419      2.00000
      2      -8.9450      2.00000
      3      -7.6750      2.00000
      4      -6.5681      2.00000
      5      -6.2544      2.00000
      6      -6.2376      2.00000
      7      -6.0679      2.00000
      8      -5.7224      2.00000
      9      -5.7071      2.00000
     10      -5.5947      2.00000
     11      -5.5187      2.00000
     12      -5.3993      2.00000
     13      -5.3457      2.00000
     14      -5.2277      2.00000
     15      -5.1115      2.00000
     16      -5.0817      2.00000
     17      -5.0090      2.00000
     18      -4.6411      2.00000
     19      -4.6011      2.00000
     20      -4.5819      2.00000
     21      -4.5535      2.00000
     22      -4.5390      2.00000
     23      -4.5015      2.00000
     24      -4.3165      2.00000
     25      -4.2686      2.00000
     26      -4.2686      2.00000
     27      -4.2262      2.00000
     28      -4.2137      2.00000
     29      -4.2047      2.00000
     30      -4.1946      2.00000
     31      -4.1858      2.00000
     32      -4.1687      2.00000
     33      -4.1617      2.00000
     34      -4.1497      2.00000
     35      -4.1069      2.00000
     36      -4.0971      2.00000
     37      -4.0487      2.00000
     38      -4.0456      2.00000
     39      -4.0244      2.00000
     40      -4.0046      2.00000
     41      -3.9849      2.00000
     42      -3.9685      2.00000
     43      -3.9672      2.00000
     44      -3.8697      2.00000
     45      -3.8654      2.00000
     46      -3.8630      2.00000
     47      -3.8322      2.00000
     48      -3.8234      2.00000
     49      -3.8149      2.00000
     50      -3.8120      2.00000
     51      -3.7424      2.00000
     52      -3.7165      2.00000
     53      -3.6786      2.00000
     54      -3.6721      2.00000
     55      -3.6605      2.00000
     56      -3.4856      2.00000
     57      -3.4648      2.00000
     58      -3.4636      2.00000
     59      -3.4358      2.00000
     60      -3.4293      2.00000
     61      -3.4186      2.00000
     62      -3.3900      2.00000
     63      -3.3857      2.00000
     64      -3.3488      2.00000
     65      -3.3312      2.00000
     66      -3.2994      2.00000
     67      -3.2912      2.00000
     68      -3.2873      2.00000
     69      -3.2763      2.00000
     70      -3.2524      2.00000
     71      -3.2400      2.00000
     72      -3.2225      2.00000
     73      -3.1992      2.00000
     74      -3.1725      2.00000
     75      -3.1564      2.00000
     76      -3.1211      2.00000
     77      -3.1207      2.00000
     78      -3.0882      2.00000
     79      -3.0877      2.00000
[...]
  0.000   0.000   0.000   0.000   0.000   0.000   0.000   0.000   0.000   0.000   0.000   0.000   0.000   0.000   0.000   0.000
  0.000   0.000   0.000   0.000   0.000   0.000   0.000   0.000   0.000   0.000   0.000   0.000   0.000   0.000   0.000   0.000
  0.000   0.000   0.000   0.000   0.000   0.000   0.000   0.000   0.000   0.000   0.000   0.000   0.000   0.000   0.000   0.000
  0.000   0.000   0.000   0.000   0.000   0.000   0.000   0.000   0.000   0.000   0.000   0.000   0.000   0.000   0.000   0.000
  0.000   0.000   0.000   0.000   0.000   0.000   0.000   0.000   0.000   0.000   0.000   0.000   0.000   0.000   0.000   0.000
  0.000   0.000   0.000   0.000   0.000   0.000   0.000   0.000   0.000   0.000   1.000   0.000   0.000   0.000   0.000   0.000
  0.000   0.000   0.000   0.000   0.000   0.000   0.000   0.000   0.000   0.000   0.000   0.000   0.000   0.000   0.000   0.000
  0.000   0.000   0.000   0.000   0.000   0.000   0.000   0.000   0.000   0.000   0.000   0.000   0.000   0.000   0.000   0.000
  0.000   0.000   0.000   0.000   0.000   0.000   0.000   0.000   0.000   0.000   0.000   0.000   0.000   0.000   0.000   0.000
  0.000   0.000   0.000   0.000   0.000   0.000   0.000   0.000   0.000   0.000   0.000   0.000   0.000   0.000   0.000   0.000
  0.000   0.000   0.000   0.000   0.000   0.000   0.000   0.000   0.000   0.000   0.000   0.000   0.000   0.000   0.000   0.000
  0.000   0.000   0.000   0.000   0.000   0.000   0.000   0.000   0.000   0.000   0.000   0.000   0.000   0.000   0.000   0.000
  0.000   0.000   0.000   0.000   0.000   0.000   0.000   0.000   0.000   0.000   0.000   0.000   0.000   0.000   0.000   0.000


------------------------ aborting loop because EDIFF is reached ----------------------------------------





 total charge

# of ion       s       p       d       tot
------------------------------------------
    1        0.448   0.283   9.189   9.920
    2        0.448   0.285   9.187   9.920
    3        0.448   0.285   9.187   9.920
    4        0.448   0.285   9.187   9.920
    5        0.449   0.285   9.185   9.919
    6        0.448   0.285   9.187   9.920
    7        0.448   0.285   9.187   9.920
    8        0.448   0.285   9.187   9.920
    9        0.447   0.284   9.188   9.920
   10        0.441   0.370   9.180   9.992
   11        0.441   0.366   9.181   9.989
   12        0.441   0.370   9.180   9.992
   13        0.441   0.366   9.181   9.989
   14        0.441   0.366   9.181   9.989
   15        0.440   0.372   9.178   9.989
   16        0.441   0.370   9.180   9.992
   17        0.440   0.372   9.178   9.989
   18        0.440   0.372   9.178   9.989
   19        0.443   0.370   9.181   9.995
   20        0.453   0.378   9.175  10.006
   21        0.453   0.378   9.175  10.006
   22        0.435   0.373   9.178   9.986
   23        0.453   0.378   9.175  10.006
   24        0.435   0.373   9.178   9.986
   25        0.443   0.370   9.181   9.995
   26        0.443   0.370   9.181   9.995
   27        0.435   0.373   9.178   9.986
   28        0.449   0.295   9.182   9.926
   29        0.481   0.306   9.179   9.966
   30        0.481   0.306   9.179   9.966
   31        0.481   0.306   9.179   9.966
   32        0.481   0.306   9.179   9.966
   33        0.481   0.306   9.179   9.966
   34        0.481   0.306   9.179   9.966
   35        0.450   0.297   9.180   9.927
   36        0.669   0.675   2.593   3.938
   37        1.594   3.318   0.000   4.911
--------------------------------------------------
tot         18.042  15.670 323.934 357.645
 
    CHARGE:  cpu time    0.2118: real time    0.2119
    FORLOC:  cpu time    0.0074: real time    0.0074
    FORNL :  cpu time    1.1935: real time    1.1938
    STRESS:  cpu time    3.5475: real time    3.5479
    FORCOR:  cpu time    0.0281: real time    0.0281
    FORHAR:  cpu time    0.0115: real time    0.0116
    OFIELD:  cpu time    0.0001: real time    0.0001

  FORCE on cell =-STRESS in cart. coord.  units (eV):
  Direction    XX          YY          ZZ          XY          YZ          ZX
  --------------------------------------------------------------------------------------
  Alpha Z   879.96489   879.96489   879.96489
  Ewald  168969.33446168969.33414************     0.00035     0.00014     0.00017
  Hartree181835.05116181835.05119************     0.00002     0.00007     0.00006
  E(xc)   -2293.17859 -2293.17816 -2300.28731    -0.00037    -0.00004    -0.00007
  Local  ************************363568.37790     0.01856    -0.00061    -0.00093
  n-local  -776.14414  -765.20824  -782.40845     6.50333    -0.11385     0.25340
  augment  3313.76541  3313.78522  3336.28798    -0.01717     0.00019     0.00033
  Kinetic  3298.16865  3297.89096  3322.80741     2.02076     2.00177    -1.34312
  Fock        0.00000     0.00000     0.00000     0.00000     0.00000     0.00000
  -------------------------------------------------------------------------------------
  Total       1.13538     1.13538     1.57335    -0.00000     0.00000     0.00000
  in kB       1.66586     1.66586     2.30848    -0.00000     0.00000     0.00000
  external pressure =        1.88 kB  Pullay stress =        0.00 kB


 VOLUME and BASIS-vectors are now :
 -----------------------------------------------------------------------------
  energy-cutoff  :      500.00
  volume of cell :     1091.97
      direct lattice vectors                 reciprocal lattice vectors
     7.696786404  0.000000000  0.000000000     0.129924354 -0.075011849  0.000000000
     3.848392758  6.665612809  0.000000000     0.000000000  0.150023716  0.000000000
     0.000000000  0.000000000 21.284399033     0.000000000  0.000000000  0.046982769

  length of vectors
     7.696786404  7.696786404 21.284399033     0.150023716  0.150023716  0.046982769


 FORCES acting on ions
    electron-ion (+dipol)            ewald-force                    non-local-force                 convergence-correction
 -----------------------------------------------------------------------------------------------
   -.414E-04 0.266E-06 0.345E+04   0.581E-04 -.424E-05 -.345E+04   0.225E-18 -.464E-17 -.215E+01   -.222E-03 -.147E-03 -.368E+00
   -.115E+01 -.152E+01 0.345E+04   0.114E+01 0.143E+01 -.345E+04   0.301E-01 0.109E+00 -.200E+01   -.159E-01 -.203E-01 -.337E+00
   0.115E+01 -.152E+01 0.345E+04   -.114E+01 0.143E+01 -.345E+04   -.301E-01 0.109E+00 -.200E+01   0.166E-01 -.178E-01 -.336E+00
   -.189E+01 -.240E+00 0.345E+04   0.181E+01 0.273E+00 -.345E+04   0.109E+00 -.284E-01 -.200E+01   -.255E-01 -.367E-02 -.337E+00
   -.642E-04 -.475E-05 0.345E+04   0.116E-03 -.101E-04 -.344E+04   -.373E-17 0.342E-17 -.193E+01   0.122E-01 0.744E-02 -.328E+00
   0.189E+01 -.239E+00 0.345E+04   -.181E+01 0.273E+00 -.345E+04   -.109E+00 -.284E-01 -.200E+01   0.239E-01 -.235E-02 -.336E+00
   -.739E+00 0.176E+01 0.345E+04   0.670E+00 -.171E+01 -.345E+04   0.793E-01 -.806E-01 -.200E+01   -.700E-02 0.233E-01 -.336E+00
   0.739E+00 0.176E+01 0.345E+04   -.670E+00 -.171E+01 -.345E+04   -.793E-01 -.806E-01 -.200E+01   0.106E-01 0.219E-01 -.336E+00
   -.143E-03 -.326E-04 0.345E+04   0.263E-03 0.204E-04 -.345E+04   0.469E-17 -.622E-18 -.216E+01   -.133E-01 -.683E-02 -.398E+00
   -.123E+02 -.709E+01 0.114E+04   0.125E+02 0.721E+01 -.114E+04   -.119E+00 -.687E-01 -.706E+00   -.840E-01 -.488E-01 -.148E-01
   -.906E-04 -.132E+02 0.112E+04   0.189E-03 0.132E+02 -.112E+04   -.138E-07 0.207E+00 -.502E+00   0.113E-01 -.109E+00 -.205E-01
   0.123E+02 -.709E+01 0.114E+04   -.125E+02 0.721E+01 -.114E+04   0.119E+00 -.687E-01 -.706E+00   0.830E-01 -.471E-01 -.161E-01
   -.115E+02 0.662E+01 0.112E+04   0.114E+02 -.658E+01 -.112E+04   0.180E+00 -.104E+00 -.502E+00   -.880E-01 0.649E-01 -.211E-01
   0.115E+02 0.662E+01 0.112E+04   -.114E+02 -.658E+01 -.112E+04   -.180E+00 -.104E+00 -.502E+00   0.112E+00 0.646E-01 -.215E-01
   -.139E-03 -.717E+00 0.114E+04   0.295E-03 0.707E+00 -.114E+04   -.211E-08 0.317E-01 -.889E+00   -.345E-02 -.131E-01 0.116E-01
   -.929E-04 0.142E+02 0.114E+04   0.187E-03 -.144E+02 -.114E+04   -.915E-08 0.137E+00 -.706E+00   0.849E-04 0.939E-01 -.153E-01
   -.621E+00 0.359E+00 0.114E+04   0.613E+00 -.353E+00 -.114E+04   0.274E-01 -.158E-01 -.889E+00   -.126E-01 0.362E-02 0.118E-01
   0.621E+00 0.359E+00 0.114E+04   -.613E+00 -.353E+00 -.114E+04   -.274E-01 -.158E-01 -.889E+00   0.131E-01 0.592E-02 0.114E-01
   -.713E-04 -.962E+01 -.115E+04   0.736E-04 0.957E+01 0.115E+04   -.185E-08 0.278E-01 0.126E+01   0.104E-02 0.169E-01 0.149E+00
   -.755E+02 -.436E+02 -.129E+04   0.759E+02 0.438E+02 0.129E+04   -.446E+00 -.258E+00 0.671E+00   -.164E+00 -.957E-01 0.795E-01
   0.755E+02 -.436E+02 -.129E+04   -.759E+02 0.438E+02 0.129E+04   0.446E+00 -.258E+00 0.671E+00   0.143E+00 -.937E-01 0.779E-01
   -.359E+02 0.207E+02 -.118E+04   0.360E+02 -.208E+02 0.118E+04   0.147E+00 -.847E-01 0.892E+00   -.183E+00 0.905E-01 0.121E+00
   -.694E-04 0.872E+02 -.129E+04   0.157E-03 -.876E+02 0.129E+04   -.343E-07 0.516E+00 0.671E+00   0.132E-02 0.190E+00 0.778E-01
   0.359E+02 0.207E+02 -.118E+04   -.360E+02 -.208E+02 0.118E+04   -.147E+00 -.847E-01 0.892E+00   0.160E+00 0.926E-01 0.121E+00
   0.833E+01 0.481E+01 -.115E+04   -.829E+01 -.479E+01 0.115E+04   -.241E-01 -.139E-01 0.126E+01   -.118E-01 -.775E-02 0.150E+00
   -.833E+01 0.481E+01 -.115E+04   0.829E+01 -.479E+01 0.115E+04   0.241E-01 -.139E-01 0.126E+01   0.150E-01 -.878E-02 0.150E+00
   -.138E-03 -.415E+02 -.118E+04   0.239E-03 0.416E+02 0.118E+04   -.113E-07 0.169E+00 0.892E+00   -.132E-01 -.203E+00 0.121E+00
   -.285E-04 0.232E-04 -.340E+04   0.484E-04 -.308E-04 0.340E+04   -.290E-17 0.460E-18 0.191E+01   -.107E-02 -.939E-03 0.346E+00
   -.574E+02 -.109E+03 -.339E+04   0.573E+02 0.108E+03 0.338E+04   -.217E-01 0.142E+00 0.216E+01   -.452E-01 -.897E-01 0.326E+00
   0.574E+02 -.109E+03 -.339E+04   -.573E+02 0.108E+03 0.338E+04   0.217E-01 0.142E+00 0.216E+01   0.673E-01 -.877E-01 0.327E+00
   -.123E+03 0.460E+01 -.339E+04   0.123E+03 -.451E+01 0.338E+04   0.112E+00 -.899E-01 0.216E+01   -.100E+00 0.550E-02 0.326E+00
   0.123E+03 0.460E+01 -.339E+04   -.123E+03 -.451E+01 0.338E+04   -.112E+00 -.899E-01 0.216E+01   0.122E+00 0.730E-02 0.327E+00
   -.654E+02 0.104E+03 -.339E+04   0.652E+02 -.104E+03 0.338E+04   0.134E+00 -.523E-01 0.216E+01   -.419E-01 0.102E+00 0.327E+00
   0.654E+02 0.104E+03 -.339E+04   -.652E+02 -.104E+03 0.338E+04   -.134E+00 -.523E-01 0.216E+01   0.675E-01 0.102E+00 0.326E+00
   -.125E-03 -.123E-04 -.342E+04   0.249E-03 -.196E-05 0.342E+04   -.241E-17 0.494E-17 0.199E+01   -.149E-01 -.760E-02 0.321E+00
   -.189E-04 -.496E-05 -.118E+04   0.434E-04 0.109E-04 0.119E+04   0.744E-18 0.408E-18 -.340E+01   -.546E-04 -.666E-04 0.102E+00
   0.170E-03 -.855E-04 -.200E+04   0.113E-04 0.592E-05 0.202E+04   0.884E-18 -.307E-18 -.244E+02   0.270E-02 0.165E-02 0.160E-01
 -----------------------------------------------------------------------------------------------
   -.107E-03 -.899E-04 0.263E+02   0.132E-12 0.284E-12 0.250E-11   0.825E-16 -.505E-16 -.270E+02   0.379E-01 0.306E-01 0.609E+00
 
 
 POSITION                                       TOTAL-FORCE (eV/Angst)
 -----------------------------------------------------------------------------------
      0.00000      0.00000      5.37156        -0.000000     -0.000000      0.026874
      2.56560      0.00000      5.37156         0.003421      0.003851      0.065049
      5.13119      0.00000      5.37156        -0.003421      0.003851      0.065049
      1.28280      2.22187      5.37156         0.005046      0.001037      0.065049
      3.84839      2.22187      5.37156        -0.000000     -0.000000      0.070988
      6.41399      2.22187      5.37156        -0.005046      0.001037      0.065049
      2.56560      4.44374      5.37156         0.001625     -0.004888      0.065049
      5.13119      4.44374      5.37156        -0.001625     -0.004888      0.065049
      7.69679      4.44374      5.37156        -0.000000     -0.000000      0.042712
      1.28280      0.74062      7.46636         0.012869      0.007430     -0.088563
      3.84839      0.74062      7.46636        -0.000000      0.001845     -0.005311
      6.41399      0.74062      7.46636        -0.012869      0.007430     -0.088563
      2.56560      2.96249      7.46636         0.001598     -0.000923     -0.005311
      5.13119      2.96249      7.46636        -0.001598     -0.000923     -0.005311
      7.69679      2.96249      7.46636        -0.000000      0.008204     -0.031300
      3.84839      5.18437      7.46636         0.000000     -0.014860     -0.088563
      6.41399      5.18437      7.46636         0.007105     -0.004102     -0.031300
      8.97958      5.18437      7.46636        -0.007105     -0.004102     -0.031300
      7.69679      1.47625      9.53578         0.000000     -0.006437      0.067834
      2.57143      1.48462      9.57247        -0.240390     -0.138789     -0.290919
      5.12535      1.48462      9.57247         0.240390     -0.138789     -0.290919
      8.97869      3.70363      9.55450         0.045219     -0.026107      0.067318
      3.84839      3.69638      9.57247        -0.000000      0.277578     -0.290919
      6.41488      3.70363      9.55450        -0.045219     -0.026107      0.067318
     10.26671      5.92749      9.53578         0.005575      0.003219      0.067834
      5.12686      5.92749      9.53578        -0.005575      0.003219      0.067834
      7.69679      5.92396      9.55450        -0.000000      0.052214      0.067318
      0.00000      0.00000     11.64309        -0.000000     -0.000000     -0.087652
      6.39641      6.62889     11.65568        -0.171503     -0.286285     -0.144854
      8.99717      6.62889     11.65568         0.171503     -0.286285     -0.144854
      8.93899      2.22500     11.65568        -0.333681     -0.005383     -0.144854
      6.45458      2.22500     11.65568         0.333681     -0.005383     -0.144854
     10.23937      4.47733     11.65568        -0.162178      0.291668     -0.144854
      5.15420      4.47733     11.65568         0.162178      0.291668     -0.144854
      7.69679      4.44374     11.66757        -0.000000      0.000000     -0.099049
      3.84839      2.22187     11.91603        -0.000000     -0.000000      1.398089
      3.84839      2.22187     13.71283        -0.000000     -0.000000     -0.030310
 -----------------------------------------------------------------------------------
    total drift:                                0.037779      0.030475     -0.061834


--------------------------------------------------------------------------------------------------------



  FREE ENERGIE OF THE ION-ELECTRON SYSTEM (eV)
  ---------------------------------------------------
  free  energy   TOTEN  =      -139.71396027 eV

  energy  without entropy=     -139.71396027  energy(sigma->0) =     -139.71396027
 


--------------------------------------------------------------------------------------------------------


    POTLOK:  cpu time    0.0279: real time    0.0279


--------------------------------------------------------------------------------------------------------


 stress matrix after NEB project (eV)
      1.13538     -0.00000      0.00000
     -0.00000      1.13538     -0.00000
     -0.00000      0.00000      1.57335
  FORCES: max atom, RMS     0.030310    0.004983
  FORCE total and by dimension    0.030310    0.030310
  Stress total and by dimension    2.248020    1.573353
     LOOP+:  cpu time   65.7070: real time   65.7217
 -----------------------------------------------------------------------------
|                                                                             |
|           W    W    AA    RRRRR   N    N  II  N    N   GGGG   !!!           |
|           W    W   A  A   R    R  NN   N  II  NN   N  G    G  !!!           |
|           W    W  A    A  R    R  N N  N  II  N N  N  G       !!!           |
|           W WW W  AAAAAA  RRRRR   N  N N  II  N  N N  G  GGG   !            |
|           WW  WW  A    A  R   R   N   NN  II  N   NN  G    G                |
|           W    W  A    A  R    R  N    N  II  N    N   GGGG   !!!           |
|                                                                             |
|     Tetrahedron method does not include variations of the Fermi             |
|     occupations, so forces and stress will be inaccurate. We suggest        |
|     using a different smearing scheme ISMEAR = 1 or 2 for metals in         |
|     relaxations.                                                            |
|                                                                             |
 -----------------------------------------------------------------------------

    4ORBIT:  cpu time    0.0000: real time    0.0000



 total charge

# of ion       s       p       d       tot
------------------------------------------
    1        0.448   0.283   9.189   9.920
    2        0.448   0.285   9.187   9.920
    3        0.448   0.285   9.187   9.920
    4        0.448   0.285   9.187   9.920
    5        0.449   0.285   9.185   9.919
    6        0.448   0.285   9.187   9.920
    7        0.448   0.285   9.187   9.920
    8        0.448   0.285   9.187   9.920
    9        0.447   0.284   9.188   9.920
   10        0.441   0.370   9.180   9.992
   11        0.441   0.366   9.181   9.989
   12        0.441   0.370   9.180   9.992
   13        0.441   0.366   9.181   9.989
   14        0.441   0.366   9.181   9.989
   15        0.440   0.372   9.178   9.989
   16        0.441   0.370   9.180   9.992
   17        0.440   0.372   9.178   9.989
   18        0.440   0.372   9.178   9.989
   19        0.443   0.370   9.181   9.995
   20        0.453   0.378   9.175  10.006
   21        0.453   0.378   9.175  10.006
   22        0.435   0.373   9.178   9.986
   23        0.453   0.378   9.175  10.006
   24        0.435   0.373   9.178   9.986
   25        0.443   0.370   9.181   9.995
   26        0.443   0.370   9.181   9.995
   27        0.435   0.373   9.178   9.986
   28        0.449   0.295   9.182   9.926
   29        0.481   0.306   9.179   9.966
   30        0.481   0.306   9.179   9.966
   31        0.481   0.306   9.179   9.966
   32        0.481   0.306   9.179   9.966
   33        0.481   0.306   9.179   9.966
   34        0.481   0.306   9.179   9.966
   35        0.450   0.297   9.180   9.927
   36        0.669   0.675   2.593   3.938
   37        1.594   3.318   0.000   4.911
--------------------------------------------------
tot         18.042  15.670 323.934 357.645
 
 BZINTS: Fermi energy:   -0.165906;  395.000000 electrons
         Band energy:-0.122796E+04;  BLOECHL correction:   -0.076669

 total amount of memory used by VASP MPI-rank0   105185. kBytes
=======================================================================

   base      :      30000. kBytes
   nonlr-proj:      18299. kBytes
   fftplans  :       2916. kBytes
   grid      :      12390. kBytes
   one-center:        575. kBytes
   wavefun   :      41005. kBytes
 
  
  
 General timing and accounting informations for this job:
 ========================================================
  
                  Total CPU time used (sec):       71.661
                            User time (sec):       68.789
                          System time (sec):        2.873
                         Elapsed time (sec):       72.032
  
                   Maximum memory used (kb):      342524.
                   Average memory used (kb):          N/A
  
                          Minor page faults:        78710
                          Major page faults:            0
                 Voluntary context switches:         5015
