PROCAR new format
# of k-points:   10         # of bands:  252         # of ions:   37

 k-point     1 :    0.00000000 0.00000000 0.00000000     weight = 0.01562500

band     1 # energy  -16.24196969 # occ.  2.00000000
 
ion      s      p      d    tot
    1  0.000  0.000  0.000  0.000
    2  0.000  0.000  0.000  0.000
    3  0.000  0.000  0.000  0.000
    4  0.000  0.000  0.000  0.000
    5  0.000  0.000  0.000  0.000
    6  0.000  0.000  0.000  0.000
    7  0.000  0.000  0.000  0.000
    8  0.000  0.000  0.000  0.000
    9  0.000  0.000  0.000  0.000
   10  0.000  0.000  0.000  0.000
   11  0.000  0.000  0.000  0.000
   12  0.000  0.000  0.000  0.000
   13  0.000  0.000  0.000  0.000
   14  0.000  0.000  0.000  0.000
   15  0.000  0.000  0.000  0.000
   16  0.000  0.000  0.000  0.000
   17  0.000  0.000  0.000  0.000
   18  0.000  0.000  0.000  0.000
   19  0.000  0.000  0.000  0.000
   20  0.000  0.000  0.000  0.000
   21  0.000  0.000  0.000  0.000
   22  0.000  0.000  0.000  0.000
   23  0.000  0.000  0.000  0.000
   24  0.000  0.000  0.000  0.000
   25  0.000  0.000  0.000  0.000
   26  0.000  0.000  0.000  0.000
   27  0.000  0.000  0.000  0.000
   28  0.000  0.000  0.000  0.000
   29  0.000  0.000  0.000  0.000
   30  0.000  0.000  0.000  0.000
   31  0.000  0.000  0.000  0.000
   32  0.000  0.000  0.000  0.000
   33  0.000  0.000  0.000  0.000
   34  0.000  0.000  0.000  0.000
   35  0.000  0.000  0.000  0.000
   36  0.044  0.057  0.113  0.214
   37  0.778  0.007  0.000  0.785
tot    0.822  0.065  0.113  1.000
 
band     2 # energy   -9.00038519 # occ.  2.00000000
 
ion      s      p      d    tot
    1  0.006  0.001  0.000  0.007
    2  0.006  0.001  0.000  0.007
    3  0.006  0.001  0.000  0.007
    4  0.006  0.001  0.000  0.007
    5  0.006  0.001  0.000  0.007
    6  0.006  0.001  0.000  0.007
    7  0.006  0.001  0.000  0.007
    8  0.006  0.001  0.000  0.007
    9  0.006  0.001  0.000  0.007
   10  0.024  0.000  0.000  0.024
   11  0.024  0.000  0.000  0.024
   12  0.024  0.000  0.000  0.024
   13  0.024  0.000  0.000  0.024
   14  0.024  0.000  0.000  0.024
   15  0.024  0.000  0.000  0.024
   16  0.024  0.000  0.000  0.024
   17  0.024  0.000  0.000  0.024
   18  0.024  0.000  0.000  0.024
   19  0.026  0.000  0.000  0.026
   20  0.025  0.000  0.000  0.025
   21  0.025  0.000  0.000  0.025
   22  0.025  0.000  0.000  0.025
   23  0.025  0.000  0.000  0.025
   24  0.025  0.000  0.000  0.025
   25  0.026  0.000  0.000  0.026
   26  0.026  0.000  0.000  0.026
   27  0.025  0.000  0.000  0.025
   28  0.008  0.001  0.000  0.008
   29  0.007  0.001  0.000  0.008
   30  0.007  0.001  0.000  0.008
   31  0.007  0.001  0.000  0.008
   32  0.007  0.001  0.000  0.008
   33  0.007  0.001  0.000  0.008
   34  0.007  0.001  0.000  0.008
   35  0.007  0.001  0.000  0.008
   36  0.008  0.002  0.000  0.010
   37  0.001  0.000  0.000  0.001
tot    0.565  0.017  0.001  0.584
 
band     3 # energy   -7.72887662 # occ.  2.00000000
 
ion      s      p      d    tot
    1  0.018  0.001  0.000  0.019
    2  0.018  0.001  0.000  0.019
    3  0.018  0.001  0.000  0.019
    4  0.018  0.001  0.000  0.019
    5  0.018  0.001  0.000  0.019
    6  0.018  0.001  0.000  0.019
    7  0.018  0.001  0.000  0.019
    8  0.018  0.001  0.000  0.019
    9  0.018  0.001  0.000  0.019
   10  0.011  0.002  0.001  0.013
   11  0.011  0.002  0.001  0.013
   12  0.011  0.002  0.001  0.013
   13  0.011  0.002  0.001  0.013
   14  0.011  0.002  0.001  0.013
   15  0.011  0.002  0.001  0.013
   16  0.011  0.002  0.001  0.013
   17  0.011  0.002  0.001  0.013
   18  0.011  0.002  0.001  0.013
   19  0.009  0.003  0.000  0.012
   20  0.008  0.002  0.001  0.011
   21  0.008  0.002  0.001  0.011
   22  0.009  0.002  0.000  0.012
   23  0.008  0.002  0.001  0.011
   24  0.009  0.002  0.000  0.012
   25  0.009  0.003  0.000  0.012
   26  0.009  0.003  0.000  0.012
   27  0.009  0.002  0.000  0.012
   28  0.020  0.001  0.001  0.021
   29  0.020  0.001  0.001  0.021
   30  0.020  0.001  0.001  0.021
   31  0.020  0.001  0.001  0.021
   32  0.020  0.001  0.001  0.021
   33  0.020  0.001  0.001  0.021
   34  0.020  0.001  0.001  0.021
   35  0.020  0.001  0.001  0.021
   36  0.021  0.003  0.002  0.025
   37  0.001  0.000  0.000  0.001
tot    0.514  0.055  0.021  0.590
 
band     4 # energy   -6.13111806 # occ.  2.00000000
 
ion      s      p      d    tot
    1  0.016  0.000  0.005  0.022
    2  0.016  0.000  0.005  0.021
    3  0.016  0.000  0.005  0.021
    4  0.016  0.000  0.005  0.021
    5  0.010  0.000  0.006  0.017
    6  0.016  0.000  0.005  0.021
    7  0.016  0.000  0.005  0.021
    8  0.016  0.000  0.005  0.021
    9  0.022  0.000  0.004  0.026
   10  0.003  0.004  0.002  0.008
   11  0.007  0.004  0.001  0.013
   12  0.003  0.004  0.002  0.008
   13  0.007  0.004  0.001  0.013
   14  0.007  0.004  0.001  0.013
   15  0.000  0.003  0.002  0.006
   16  0.003  0.004  0.002  0.008
   17  0.000  0.003  0.002  0.006
   18  0.000  0.003  0.002  0.006
   19  0.003  0.003  0.005  0.011
   20  0.014  0.003  0.003  0.021
   21  0.014  0.003  0.003  0.021
   22  0.002  0.003  0.004  0.009
   23  0.014  0.003  0.003  0.021
   24  0.002  0.003  0.004  0.009
   25  0.003  0.003  0.005  0.011
   26  0.003  0.003  0.005  0.011
   27  0.002  0.003  0.004  0.009
   28  0.020  0.000  0.007  0.027
   29  0.018  0.000  0.009  0.027
   30  0.018  0.000  0.009  0.027
   31  0.018  0.000  0.009  0.027
   32  0.018  0.000  0.009  0.027
   33  0.018  0.000  0.009  0.027
   34  0.018  0.000  0.009  0.027
   35  0.025  0.000  0.007  0.031
   36  0.010  0.000  0.015  0.025
   37  0.000  0.000  0.000  0.000
tot    0.392  0.065  0.181  0.638
 
band     5 # energy   -6.02728235 # occ.  2.00000000
 
ion      s      p      d    tot
    1  0.000  0.003  0.004  0.007
    2  0.005  0.002  0.002  0.009
    3  0.007  0.002  0.002  0.011
    4  0.006  0.002  0.002  0.009
    5  0.000  0.000  0.002  0.002
    6  0.000  0.001  0.002  0.003
    7  0.007  0.002  0.002  0.011
    8  0.000  0.001  0.002  0.002
    9  0.000  0.001  0.004  0.006
   10  0.042  0.001  0.006  0.049
   11  0.000  0.007  0.004  0.011
   12  0.010  0.008  0.006  0.024
   13  0.000  0.007  0.004  0.011
   14  0.000  0.001  0.004  0.005
   15  0.011  0.001  0.011  0.024
   16  0.011  0.008  0.006  0.025
   17  0.010  0.001  0.012  0.023
   18  0.043  0.005  0.002  0.050
   19  0.018  0.005  0.011  0.033
   20  0.022  0.004  0.003  0.029
   21  0.005  0.003  0.012  0.020
   22  0.003  0.011  0.002  0.015
   23  0.006  0.003  0.012  0.020
   24  0.011  0.000  0.006  0.018
   25  0.066  0.003  0.005  0.074
   26  0.016  0.005  0.011  0.031
   27  0.003  0.010  0.002  0.015
   28  0.000  0.004  0.007  0.011
   29  0.006  0.002  0.003  0.011
   30  0.015  0.003  0.004  0.022
   31  0.007  0.002  0.003  0.012
   32  0.002  0.001  0.004  0.007
   33  0.015  0.003  0.004  0.022
   34  0.002  0.001  0.004  0.006
   35  0.000  0.002  0.004  0.006
   36  0.000  0.000  0.007  0.007
   37  0.000  0.000  0.000  0.000
tot    0.347  0.114  0.181  0.642
 
band     6 # energy   -6.02717127 # occ.  2.00000000
 
ion      s      p      d    tot
    1  0.000  0.003  0.004  0.007
    2  0.003  0.001  0.002  0.006
    3  0.001  0.001  0.002  0.004
    4  0.003  0.001  0.002  0.006
    5  0.000  0.000  0.002  0.002
    6  0.008  0.002  0.002  0.013
    7  0.001  0.001  0.002  0.004
    8  0.008  0.002  0.002  0.013
    9  0.000  0.001  0.004  0.006
   10  0.000  0.010  0.006  0.016
   11  0.000  0.003  0.004  0.007
   12  0.032  0.003  0.006  0.041
   13  0.000  0.003  0.004  0.007
   14  0.000  0.009  0.004  0.013
   15  0.031  0.003  0.006  0.040
   16  0.030  0.004  0.006  0.040
   17  0.033  0.004  0.005  0.041
   18  0.000  0.000  0.015  0.015
   19  0.049  0.004  0.007  0.060
   20  0.000  0.002  0.015  0.017
   21  0.017  0.004  0.006  0.026
   22  0.008  0.003  0.005  0.017
   23  0.016  0.004  0.006  0.026
   24  0.000  0.014  0.001  0.015
   25  0.000  0.005  0.013  0.018
   26  0.051  0.004  0.007  0.061
   27  0.008  0.004  0.005  0.017
   28  0.000  0.004  0.007  0.011
   29  0.009  0.002  0.004  0.016
   30  0.001  0.001  0.003  0.005
   31  0.009  0.002  0.004  0.015
   32  0.013  0.003  0.004  0.020
   33  0.000  0.001  0.003  0.005
   34  0.014  0.003  0.004  0.020
   35  0.000  0.002  0.004  0.006
   36  0.000  0.000  0.007  0.007
   37  0.000  0.000  0.000  0.000
tot    0.347  0.114  0.181  0.642
 
band     7 # energy   -6.00604757 # occ.  2.00000000
 
ion      s      p      d    tot
    1  0.019  0.003  0.001  0.023
    2  0.000  0.002  0.004  0.005
    3  0.000  0.002  0.004  0.005
    4  0.000  0.002  0.004  0.005
    5  0.003  0.001  0.000  0.004
    6  0.000  0.002  0.004  0.005
    7  0.000  0.002  0.004  0.005
    8  0.000  0.002  0.004  0.005
    9  0.007  0.001  0.000  0.008
   10  0.030  0.007  0.005  0.041
   11  0.007  0.000  0.011  0.019
   12  0.030  0.007  0.005  0.042
   13  0.007  0.000  0.011  0.019
   14  0.007  0.000  0.011  0.018
   15  0.008  0.007  0.004  0.019
   16  0.030  0.007  0.005  0.042
   17  0.008  0.007  0.004  0.019
   18  0.008  0.007  0.004  0.019
   19  0.026  0.009  0.002  0.038
   20  0.000  0.003  0.010  0.013
   21  0.000  0.003  0.010  0.013
   22  0.022  0.001  0.010  0.034
   23  0.000  0.003  0.010  0.013
   24  0.021  0.001  0.010  0.033
   25  0.027  0.009  0.002  0.038
   26  0.026  0.009  0.002  0.038
   27  0.022  0.001  0.010  0.033
   28  0.020  0.003  0.001  0.024
   29  0.000  0.002  0.005  0.007
   30  0.000  0.002  0.005  0.007
   31  0.000  0.002  0.005  0.007
   32  0.000  0.002  0.005  0.007
   33  0.000  0.002  0.005  0.007
   34  0.000  0.002  0.005  0.007
   35  0.013  0.002  0.001  0.016
   36  0.001  0.000  0.000  0.001
   37  0.000  0.000  0.000  0.000
tot    0.345  0.115  0.182  0.641
 
band     8 # energy   -5.99575333 # occ.  2.00000000
 
ion      s      p      d    tot
    1  0.000  0.000  0.003  0.003
    2  0.004  0.002  0.002  0.008
    3  0.007  0.002  0.002  0.011
    4  0.007  0.002  0.002  0.012
    5  0.000  0.003  0.005  0.008
    6  0.001  0.001  0.002  0.004
    7  0.009  0.002  0.002  0.013
    8  0.000  0.001  0.002  0.003
    9  0.000  0.002  0.003  0.004
   10  0.001  0.003  0.012  0.015
   11  0.034  0.004  0.008  0.046
   12  0.014  0.004  0.003  0.021
   13  0.053  0.004  0.005  0.061
   14  0.002  0.004  0.013  0.019
   15  0.008  0.006  0.004  0.018
   16  0.010  0.003  0.006  0.019
   17  0.012  0.002  0.006  0.019
   18  0.000  0.012  0.002  0.015
   19  0.000  0.005  0.005  0.010
   20  0.001  0.012  0.005  0.018
   21  0.039  0.002  0.007  0.048
   22  0.048  0.004  0.004  0.056
   23  0.025  0.006  0.006  0.037
   24  0.002  0.000  0.017  0.019
   25  0.000  0.009  0.006  0.015
   26  0.001  0.003  0.005  0.008
   27  0.031  0.003  0.009  0.043
   28  0.000  0.000  0.003  0.003
   29  0.004  0.001  0.003  0.008
   30  0.009  0.003  0.004  0.016
   31  0.008  0.002  0.003  0.013
   32  0.002  0.001  0.003  0.007
   33  0.011  0.003  0.004  0.018
   34  0.000  0.001  0.003  0.004
   35  0.000  0.002  0.006  0.008
   36  0.000  0.005  0.007  0.012
   37  0.000  0.000  0.000  0.000
tot    0.343  0.117  0.182  0.642
 
band     9 # energy   -5.99563977 # occ.  2.00000000
 
ion      s      p      d    tot
    1  0.000  0.000  0.003  0.003
    2  0.005  0.002  0.002  0.009
    3  0.003  0.001  0.002  0.006
    4  0.002  0.001  0.002  0.005
    5  0.000  0.003  0.005  0.008
    6  0.008  0.002  0.002  0.013
    7  0.000  0.001  0.002  0.003
    8  0.009  0.002  0.002  0.014
    9  0.000  0.002  0.003  0.004
   10  0.016  0.004  0.003  0.022
   11  0.025  0.004  0.009  0.038
   12  0.002  0.003  0.011  0.015
   13  0.006  0.004  0.012  0.022
   14  0.058  0.004  0.005  0.066
   15  0.006  0.008  0.004  0.017
   16  0.007  0.003  0.008  0.018
   17  0.002  0.011  0.002  0.015
   18  0.013  0.001  0.006  0.019
   19  0.000  0.006  0.005  0.011
   20  0.042  0.001  0.007  0.050
   21  0.005  0.011  0.005  0.021
   22  0.006  0.001  0.016  0.023
   23  0.018  0.008  0.006  0.032
   24  0.053  0.005  0.003  0.060
   25  0.001  0.002  0.004  0.007
   26  0.000  0.008  0.006  0.014
   27  0.023  0.002  0.011  0.036
   28  0.000  0.000  0.003  0.003
   29  0.007  0.002  0.004  0.014
   30  0.002  0.001  0.003  0.006
   31  0.003  0.002  0.004  0.009
   32  0.009  0.002  0.003  0.015
   33  0.000  0.001  0.003  0.004
   34  0.011  0.003  0.003  0.018
   35  0.000  0.002  0.006  0.008
   36  0.000  0.005  0.007  0.012
   37  0.000  0.000  0.000  0.000
tot    0.343  0.117  0.182  0.642
 
band    10 # energy   -5.94477940 # occ.  2.00000000
 
ion      s      p      d    tot
    1  0.000  0.000  0.000  0.000
    2  0.001  0.002  0.005  0.008
    3  0.001  0.002  0.005  0.008
    4  0.001  0.002  0.005  0.008
    5  0.029  0.003  0.000  0.031
    6  0.001  0.002  0.005  0.008
    7  0.001  0.002  0.005  0.008
    8  0.001  0.002  0.005  0.008
    9  0.007  0.002  0.003  0.012
   10  0.001  0.003  0.009  0.013
   11  0.020  0.009  0.003  0.032
   12  0.001  0.003  0.009  0.013
   13  0.020  0.009  0.003  0.032
   14  0.020  0.009  0.003  0.032
   15  0.028  0.002  0.009  0.040
   16  0.001  0.003  0.009  0.013
   17  0.028  0.002  0.009  0.040
   18  0.028  0.002  0.009  0.040
   19  0.006  0.001  0.011  0.018
   20  0.024  0.005  0.007  0.036
   21  0.024  0.005  0.007  0.036
   22  0.012  0.008  0.003  0.024
   23  0.024  0.005  0.007  0.036
   24  0.012  0.008  0.004  0.024
   25  0.006  0.001  0.011  0.018
   26  0.006  0.001  0.011  0.018
   27  0.012  0.008  0.003  0.024
   28  0.000  0.000  0.002  0.002
   29  0.001  0.001  0.004  0.006
   30  0.001  0.001  0.004  0.006
   31  0.001  0.001  0.004  0.006
   32  0.001  0.001  0.004  0.006
   33  0.001  0.001  0.004  0.006
   34  0.001  0.001  0.004  0.006
   35  0.003  0.001  0.001  0.005
   36  0.023  0.005  0.000  0.028
   37  0.001  0.002  0.000  0.003
tot    0.349  0.116  0.189  0.654
 
band    11 # energy   -5.29583419 # occ.  2.00000000
 
ion      s      p      d    tot
    1  0.000  0.004  0.010  0.014
    2  0.002  0.002  0.005  0.009
    3  0.020  0.004  0.005  0.029
    4  0.005  0.002  0.005  0.012
    5  0.000  0.000  0.010  0.010
    6  0.008  0.002  0.005  0.015
    7  0.020  0.004  0.005  0.029
    8  0.005  0.002  0.005  0.012
    9  0.000  0.005  0.008  0.013
   10  0.012  0.001  0.006  0.019
   11  0.001  0.002  0.012  0.016
   12  0.002  0.004  0.015  0.021
   13  0.001  0.003  0.013  0.016
   14  0.004  0.001  0.007  0.012
   15  0.009  0.002  0.016  0.027
   16  0.004  0.003  0.013  0.021
   17  0.005  0.001  0.019  0.025
   18  0.028  0.005  0.005  0.038
   19  0.004  0.002  0.012  0.018
   20  0.000  0.001  0.010  0.011
   21  0.000  0.002  0.014  0.016
   22  0.001  0.002  0.026  0.029
   23  0.000  0.002  0.013  0.015
   24  0.007  0.003  0.003  0.013
   25  0.011  0.007  0.009  0.027
   26  0.002  0.001  0.013  0.016
   27  0.002  0.002  0.022  0.026
   28  0.000  0.005  0.008  0.013
   29  0.004  0.002  0.008  0.014
   30  0.027  0.003  0.010  0.041
   31  0.008  0.002  0.009  0.019
   32  0.010  0.002  0.008  0.021
   33  0.027  0.003  0.010  0.040
   34  0.006  0.002  0.008  0.016
   35  0.000  0.005  0.011  0.016
   36  0.000  0.000  0.016  0.016
   37  0.000  0.000  0.000  0.000
tot    0.236  0.094  0.375  0.705
 
band    12 # energy   -5.29576677 # occ.  2.00000000
 
ion      s      p      d    tot
    1  0.000  0.004  0.010  0.014
    2  0.018  0.003  0.005  0.026
    3  0.000  0.002  0.005  0.006
    4  0.015  0.003  0.005  0.023
    5  0.000  0.000  0.010  0.010
    6  0.012  0.003  0.005  0.020
    7  0.001  0.002  0.005  0.007
    8  0.015  0.003  0.005  0.024
    9  0.000  0.005  0.008  0.013
   10  0.000  0.005  0.017  0.022
   11  0.003  0.002  0.010  0.014
   12  0.010  0.002  0.008  0.019
   13  0.003  0.002  0.009  0.013
   14  0.000  0.003  0.014  0.017
   15  0.019  0.003  0.010  0.033
   16  0.008  0.002  0.010  0.020
   17  0.023  0.004  0.008  0.035
   18  0.000  0.000  0.022  0.022
   19  0.007  0.005  0.011  0.023
   20  0.000  0.002  0.015  0.017
   21  0.000  0.001  0.011  0.012
   22  0.006  0.003  0.008  0.016
   23  0.000  0.001  0.012  0.013
   24  0.000  0.002  0.031  0.032
   25  0.000  0.000  0.013  0.014
   26  0.009  0.006  0.010  0.025
   27  0.005  0.002  0.012  0.019
   28  0.000  0.005  0.008  0.013
   29  0.023  0.003  0.010  0.036
   30  0.000  0.002  0.008  0.010
   31  0.019  0.003  0.009  0.031
   32  0.017  0.003  0.009  0.029
   33  0.000  0.002  0.008  0.010
   34  0.021  0.003  0.010  0.034
   35  0.000  0.005  0.011  0.016
   36  0.000  0.000  0.016  0.016
   37  0.000  0.000  0.000  0.000
tot    0.236  0.094  0.375  0.705
 
band    13 # energy   -5.27616755 # occ.  2.00000000
 
ion      s      p      d    tot
    1  0.006  0.000  0.010  0.016
    2  0.006  0.001  0.010  0.016
    3  0.006  0.001  0.010  0.016
    4  0.006  0.001  0.010  0.016
    5  0.001  0.001  0.010  0.012
    6  0.006  0.001  0.010  0.016
    7  0.006  0.001  0.010  0.016
    8  0.006  0.001  0.010  0.016
    9  0.015  0.000  0.008  0.023
   10  0.008  0.000  0.025  0.033
   11  0.012  0.000  0.021  0.033
   12  0.008  0.000  0.025  0.033
   13  0.012  0.000  0.021  0.033
   14  0.012  0.000  0.021  0.033
   15  0.003  0.000  0.023  0.026
   16  0.008  0.000  0.025  0.033
   17  0.003  0.000  0.023  0.026
   18  0.003  0.000  0.023  0.026
   19  0.004  0.000  0.019  0.024
   20  0.009  0.001  0.024  0.034
   21  0.009  0.001  0.024  0.034
   22  0.003  0.000  0.020  0.023
   23  0.009  0.001  0.024  0.034
   24  0.003  0.000  0.020  0.023
   25  0.004  0.000  0.019  0.024
   26  0.004  0.000  0.019  0.024
   27  0.003  0.000  0.020  0.023
   28  0.002  0.000  0.006  0.009
   29  0.003  0.001  0.009  0.012
   30  0.003  0.001  0.009  0.012
   31  0.003  0.001  0.009  0.012
   32  0.003  0.001  0.009  0.012
   33  0.003  0.001  0.009  0.012
   34  0.003  0.001  0.009  0.012
   35  0.009  0.000  0.006  0.016
   36  0.000  0.001  0.010  0.011
   37  0.000  0.001  0.000  0.001
tot    0.205  0.016  0.557  0.778
 
band    14 # energy   -5.24868844 # occ.  2.00000000
 
ion      s      p      d    tot
    1  0.033  0.003  0.000  0.036
    2  0.000  0.003  0.010  0.013
    3  0.000  0.003  0.010  0.013
    4  0.000  0.003  0.010  0.013
    5  0.000  0.000  0.001  0.001
    6  0.000  0.003  0.010  0.013
    7  0.000  0.003  0.010  0.013
    8  0.000  0.003  0.010  0.013
    9  0.027  0.004  0.001  0.032
   10  0.009  0.003  0.010  0.022
   11  0.001  0.000  0.015  0.016
   12  0.009  0.003  0.010  0.022
   13  0.001  0.000  0.015  0.016
   14  0.001  0.000  0.015  0.016
   15  0.009  0.004  0.014  0.026
   16  0.009  0.003  0.010  0.022
   17  0.009  0.004  0.014  0.026
   18  0.009  0.004  0.014  0.027
   19  0.003  0.003  0.021  0.027
   20  0.000  0.000  0.014  0.014
   21  0.000  0.000  0.014  0.014
   22  0.010  0.004  0.009  0.022
   23  0.000  0.000  0.014  0.014
   24  0.010  0.004  0.009  0.022
   25  0.003  0.003  0.021  0.027
   26  0.003  0.003  0.021  0.027
   27  0.010  0.004  0.009  0.022
   28  0.038  0.003  0.000  0.041
   29  0.000  0.003  0.014  0.017
   30  0.000  0.003  0.014  0.017
   31  0.000  0.003  0.014  0.017
   32  0.000  0.003  0.014  0.017
   33  0.000  0.003  0.014  0.017
   34  0.000  0.003  0.014  0.017
   35  0.029  0.003  0.001  0.033
   36  0.000  0.000  0.000  0.000
   37  0.000  0.000  0.000  0.000
tot    0.224  0.091  0.391  0.706
 
band    15 # energy   -5.24149204 # occ.  2.00000000
 
ion      s      p      d    tot
    1  0.000  0.002  0.009  0.012
    2  0.000  0.002  0.005  0.007
    3  0.020  0.004  0.005  0.029
    4  0.009  0.003  0.005  0.017
    5  0.000  0.006  0.009  0.015
    6  0.014  0.003  0.005  0.022
    7  0.017  0.004  0.005  0.026
    8  0.002  0.002  0.005  0.009
    9  0.000  0.001  0.012  0.013
   10  0.002  0.001  0.017  0.019
   11  0.010  0.003  0.016  0.028
   12  0.015  0.004  0.008  0.027
   13  0.021  0.004  0.006  0.030
   14  0.002  0.002  0.023  0.027
   15  0.000  0.002  0.013  0.015
   16  0.007  0.002  0.013  0.022
   17  0.000  0.000  0.008  0.009
   18  0.000  0.004  0.016  0.020
   19  0.001  0.002  0.016  0.019
   20  0.002  0.001  0.029  0.032
   21  0.018  0.005  0.007  0.030
   22  0.008  0.004  0.011  0.022
   23  0.008  0.003  0.020  0.031
   24  0.001  0.001  0.012  0.014
   25  0.000  0.003  0.022  0.025
   26  0.002  0.000  0.007  0.010
   27  0.004  0.002  0.011  0.017
   28  0.000  0.002  0.014  0.016
   29  0.001  0.001  0.006  0.008
   30  0.019  0.004  0.008  0.030
   31  0.010  0.003  0.007  0.020
   32  0.012  0.003  0.007  0.022
   33  0.018  0.004  0.008  0.029
   34  0.001  0.002  0.006  0.009
   35  0.000  0.001  0.011  0.012
   36  0.000  0.008  0.010  0.018
   37  0.000  0.000  0.000  0.000
tot    0.222  0.095  0.394  0.712
 
band    16 # energy   -5.24144657 # occ.  2.00000000
 
ion      s      p      d    tot
    1  0.000  0.002  0.009  0.011
    2  0.021  0.004  0.005  0.030
    3  0.001  0.002  0.005  0.008
    4  0.012  0.003  0.005  0.020
    5  0.000  0.006  0.009  0.015
    6  0.007  0.002  0.005  0.015
    7  0.004  0.002  0.005  0.011
    8  0.019  0.004  0.005  0.028
    9  0.000  0.001  0.012  0.013
   10  0.014  0.004  0.009  0.027
   11  0.012  0.003  0.014  0.029
   12  0.001  0.001  0.017  0.019
   13  0.001  0.002  0.024  0.027
   14  0.019  0.004  0.007  0.030
   15  0.000  0.002  0.012  0.014
   16  0.009  0.002  0.012  0.023
   17  0.000  0.004  0.016  0.020
   18  0.000  0.000  0.009  0.010
   19  0.001  0.001  0.014  0.017
   20  0.017  0.005  0.008  0.030
   21  0.001  0.001  0.030  0.032
   22  0.000  0.001  0.012  0.013
   23  0.010  0.003  0.017  0.031
   24  0.007  0.003  0.011  0.022
   25  0.002  0.000  0.008  0.010
   26  0.000  0.003  0.023  0.026
   27  0.004  0.002  0.011  0.018
   28  0.000  0.002  0.014  0.016
   29  0.019  0.004  0.008  0.031
   30  0.002  0.002  0.007  0.010
   31  0.010  0.003  0.007  0.019
   32  0.008  0.002  0.007  0.017
   33  0.002  0.002  0.007  0.011
   34  0.019  0.004  0.008  0.030
   35  0.000  0.001  0.011  0.012
   36  0.000  0.008  0.010  0.018
   37  0.000  0.000  0.000  0.000
tot    0.222  0.095  0.394  0.712
 
band    17 # energy   -5.13883184 # occ.  2.00000000
 
ion      s      p      d    tot
    1  0.013  0.002  0.001  0.015
    2  0.000  0.003  0.011  0.014
    3  0.000  0.003  0.011  0.014
    4  0.000  0.003  0.011  0.014
    5  0.045  0.004  0.000  0.049
    6  0.000  0.003  0.011  0.014
    7  0.000  0.003  0.011  0.014
    8  0.000  0.003  0.011  0.014
    9  0.004  0.001  0.001  0.006
   10  0.002  0.001  0.022  0.025
   11  0.005  0.004  0.016  0.026
   12  0.002  0.001  0.022  0.025
   13  0.005  0.004  0.016  0.026
   14  0.005  0.004  0.016  0.026
   15  0.005  0.001  0.011  0.017
   16  0.002  0.001  0.022  0.025
   17  0.005  0.001  0.011  0.017
   18  0.005  0.001  0.011  0.017
   19  0.010  0.001  0.017  0.027
   20  0.009  0.004  0.011  0.024
   21  0.009  0.004  0.011  0.024
   22  0.002  0.001  0.018  0.021
   23  0.009  0.004  0.011  0.024
   24  0.002  0.001  0.018  0.021
   25  0.010  0.001  0.017  0.027
   26  0.010  0.001  0.017  0.027
   27  0.002  0.001  0.018  0.021
   28  0.004  0.002  0.004  0.010
   29  0.001  0.002  0.013  0.015
   30  0.001  0.002  0.013  0.015
   31  0.001  0.002  0.013  0.015
   32  0.001  0.002  0.013  0.015
   33  0.001  0.002  0.013  0.015
   34  0.001  0.002  0.013  0.015
   35  0.004  0.001  0.001  0.007
   36  0.046  0.008  0.000  0.055
   37  0.002  0.005  0.000  0.006
tot    0.223  0.092  0.434  0.748
 
band    18 # energy   -4.61768692 # occ.  2.00000000
 
ion      s      p      d    tot
    1  0.000  0.001  0.028  0.029
    2  0.014  0.001  0.008  0.024
    3  0.012  0.001  0.008  0.021
    4  0.012  0.001  0.008  0.021
    5  0.000  0.001  0.015  0.016
    6  0.008  0.001  0.008  0.017
    7  0.001  0.001  0.008  0.009
    8  0.000  0.001  0.008  0.009
    9  0.000  0.003  0.003  0.006
   10  0.000  0.000  0.051  0.052
   11  0.000  0.004  0.019  0.023
   12  0.000  0.000  0.040  0.040
   13  0.000  0.002  0.013  0.014
   14  0.000  0.001  0.010  0.011
   15  0.000  0.007  0.013  0.020
   16  0.000  0.000  0.005  0.005
   17  0.000  0.003  0.021  0.023
   18  0.000  0.001  0.024  0.025
   19  0.004  0.005  0.018  0.027
   20  0.000  0.000  0.047  0.047
   21  0.000  0.000  0.038  0.038
   22  0.001  0.001  0.019  0.022
   23  0.000  0.000  0.011  0.011
   24  0.001  0.001  0.022  0.023
   25  0.001  0.001  0.020  0.021
   26  0.002  0.002  0.019  0.023
   27  0.004  0.003  0.012  0.018
   28  0.000  0.001  0.008  0.010
   29  0.004  0.001  0.020  0.025
   30  0.001  0.001  0.017  0.019
   31  0.014  0.001  0.025  0.040
   32  0.015  0.001  0.024  0.039
   33  0.003  0.001  0.014  0.018
   34  0.007  0.001  0.016  0.023
   35  0.000  0.002  0.013  0.015
   36  0.000  0.000  0.024  0.024
   37  0.000  0.000  0.000  0.000
tot    0.105  0.048  0.656  0.809
 
band    19 # energy   -4.61766821 # occ.  2.00000000
 
ion      s      p      d    tot
    1  0.000  0.001  0.028  0.029
    2  0.001  0.001  0.008  0.010
    3  0.004  0.001  0.008  0.013
    4  0.004  0.001  0.008  0.012
    5  0.000  0.001  0.015  0.016
    6  0.007  0.001  0.008  0.016
    7  0.015  0.001  0.008  0.024
    8  0.015  0.001  0.008  0.025
    9  0.000  0.003  0.003  0.006
   10  0.000  0.000  0.012  0.013
   11  0.000  0.000  0.009  0.009
   12  0.000  0.000  0.024  0.025
   13  0.000  0.003  0.015  0.018
   14  0.000  0.003  0.018  0.021
   15  0.000  0.000  0.025  0.025
   16  0.000  0.000  0.059  0.059
   17  0.000  0.004  0.017  0.022
   18  0.000  0.006  0.015  0.021
   19  0.000  0.000  0.020  0.020
   20  0.000  0.000  0.017  0.017
   21  0.000  0.000  0.026  0.026
   22  0.003  0.002  0.016  0.020
   23  0.000  0.000  0.053  0.053
   24  0.003  0.002  0.013  0.019
   25  0.004  0.004  0.018  0.026
   26  0.003  0.003  0.019  0.025
   27  0.000  0.000  0.023  0.024
   28  0.000  0.001  0.008  0.010
   29  0.011  0.001  0.019  0.030
   30  0.014  0.001  0.021  0.035
   31  0.001  0.001  0.014  0.015
   32  0.000  0.001  0.015  0.016
   33  0.012  0.001  0.024  0.037
   34  0.008  0.001  0.023  0.032
   35  0.000  0.002  0.014  0.015
   36  0.000  0.000  0.024  0.024
   37  0.000  0.000  0.000  0.000
tot    0.105  0.048  0.656  0.809
 
band    20 # energy   -4.58400638 # occ.  2.00000000
 
ion      s      p      d    tot
    1  0.003  0.000  0.001  0.004
    2  0.000  0.001  0.015  0.017
    3  0.000  0.001  0.015  0.017
    4  0.000  0.001  0.015  0.017
    5  0.012  0.000  0.000  0.013
    6  0.000  0.001  0.015  0.017
    7  0.000  0.001  0.015  0.017
    8  0.000  0.001  0.015  0.017
    9  0.028  0.001  0.001  0.030
   10  0.000  0.001  0.006  0.008
   11  0.000  0.000  0.019  0.019
   12  0.000  0.001  0.006  0.008
   13  0.000  0.000  0.019  0.019
   14  0.000  0.000  0.019  0.019
   15  0.000  0.003  0.036  0.040
   16  0.000  0.001  0.006  0.008
   17  0.000  0.003  0.036  0.040
   18  0.000  0.003  0.036  0.040
   19  0.000  0.001  0.021  0.023
   20  0.001  0.000  0.013  0.014
   21  0.001  0.000  0.013  0.014
   22  0.002  0.003  0.031  0.035
   23  0.001  0.000  0.013  0.014
   24  0.002  0.003  0.031  0.035
   25  0.000  0.001  0.021  0.023
   26  0.000  0.001  0.021  0.023
   27  0.002  0.003  0.031  0.035
   28  0.022  0.000  0.003  0.025
   29  0.000  0.001  0.031  0.033
   30  0.000  0.001  0.031  0.033
   31  0.000  0.001  0.031  0.033
   32  0.000  0.001  0.031  0.032
   33  0.000  0.001  0.031  0.033
   34  0.000  0.001  0.031  0.032
   35  0.021  0.000  0.006  0.027
   36  0.000  0.000  0.000  0.000
   37  0.000  0.000  0.000  0.000
tot    0.095  0.045  0.669  0.809
 
band    21 # energy   -4.55395591 # occ.  2.00000000
 
ion      s      p      d    tot
    1  0.000  0.002  0.003  0.005
    2  0.015  0.001  0.009  0.025
    3  0.011  0.001  0.009  0.021
    4  0.012  0.001  0.009  0.022
    5  0.000  0.002  0.017  0.019
    6  0.006  0.001  0.009  0.016
    7  0.002  0.001  0.008  0.011
    8  0.000  0.001  0.008  0.009
    9  0.000  0.000  0.030  0.030
   10  0.001  0.006  0.019  0.026
   11  0.000  0.000  0.049  0.049
   12  0.000  0.004  0.014  0.018
   13  0.000  0.002  0.024  0.026
   14  0.001  0.003  0.009  0.013
   15  0.000  0.000  0.039  0.039
   16  0.000  0.000  0.005  0.006
   17  0.000  0.000  0.023  0.023
   18  0.000  0.001  0.014  0.015
   19  0.000  0.000  0.052  0.052
   20  0.002  0.005  0.019  0.027
   21  0.001  0.003  0.019  0.023
   22  0.000  0.002  0.020  0.022
   23  0.000  0.000  0.017  0.018
   24  0.000  0.003  0.016  0.019
   25  0.001  0.001  0.010  0.011
   26  0.000  0.000  0.026  0.026
   27  0.000  0.000  0.026  0.026
   28  0.000  0.001  0.038  0.039
   29  0.005  0.001  0.015  0.021
   30  0.001  0.000  0.015  0.017
   31  0.013  0.001  0.015  0.029
   32  0.014  0.001  0.015  0.029
   33  0.002  0.001  0.014  0.017
   34  0.006  0.001  0.014  0.021
   35  0.000  0.000  0.032  0.032
   36  0.000  0.004  0.001  0.004