PROCAR new format
# of k-points:   10         # of bands:  252         # of ions:   37

 k-point     1 :    0.00000000 0.00000000 0.00000000     weight = 0.01562500

band     1 # energy  -48.14961362 # occ.  2.00000000
 
ion      s      p      d    tot
    1  0.000  0.000  0.000  0.000
    2  0.000  0.000  0.000  0.000
    3  0.000  0.000  0.000  0.000
    4  0.000  0.000  0.000  0.000
    5  0.000  0.000  0.000  0.000
    6  0.000  0.000  0.000  0.000
    7  0.000  0.000  0.000  0.000
    8  0.000  0.000  0.000  0.000
    9  0.000  0.000  0.000  0.000
   10  0.000  0.000  0.000  0.000
   11  0.000  0.000  0.000  0.000
   12  0.000  0.000  0.000  0.000
   13  0.000  0.000  0.000  0.000
   14  0.000  0.000  0.000  0.000
   15  0.000  0.000  0.000  0.000
   16  0.000  0.000  0.000  0.000
   17  0.000  0.000  0.000  0.000
   18  0.000  0.000  0.000  0.000
   19  0.000  0.000  0.000  0.000
   20  0.000  0.000  0.000  0.000
   21  0.000  0.000  0.000  0.000
   22  0.000  0.000  0.000  0.000
   23  0.000  0.000  0.000  0.000
   24  0.000  0.000  0.000  0.000
   25  0.000  0.000  0.000  0.000
   26  0.000  0.000  0.000  0.000
   27  0.000  0.000  0.000  0.000
   28  0.000  0.000  0.000  0.000
   29  0.000  0.000  0.000  0.000
   30  0.000  0.000  0.000  0.000
   31  0.000  0.000  0.000  0.000
   32  0.000  0.000  0.000  0.000
   33  0.000  0.000  0.000  0.000
   34  0.000  0.000  0.000  0.000
   35  0.000  0.000  0.000  0.000
   36  0.992  0.000  0.000  0.992
   37  0.000  0.000  0.000  0.001
tot    0.993  0.000  0.000  0.993
 
band     2 # energy  -26.35789227 # occ.  2.00000000
 
ion      s      p      d    tot
    1  0.000  0.000  0.000  0.000
    2  0.000  0.000  0.000  0.000
    3  0.000  0.000  0.000  0.000
    4  0.000  0.000  0.000  0.000
    5  0.000  0.000  0.000  0.000
    6  0.000  0.000  0.000  0.000
    7  0.000  0.000  0.000  0.000
    8  0.000  0.000  0.000  0.000
    9  0.000  0.000  0.000  0.000
   10  0.000  0.000  0.000  0.000
   11  0.000  0.000  0.000  0.000
   12  0.000  0.000  0.000  0.000
   13  0.000  0.000  0.000  0.000
   14  0.000  0.000  0.000  0.000
   15  0.000  0.000  0.000  0.000
   16  0.000  0.000  0.000  0.000
   17  0.000  0.000  0.000  0.000
   18  0.000  0.000  0.000  0.000
   19  0.000  0.000  0.000  0.000
   20  0.000  0.000  0.000  0.000
   21  0.000  0.000  0.000  0.000
   22  0.000  0.000  0.000  0.000
   23  0.000  0.000  0.000  0.000
   24  0.000  0.000  0.000  0.000
   25  0.000  0.000  0.000  0.000
   26  0.000  0.000  0.000  0.000
   27  0.000  0.000  0.000  0.000
   28  0.000  0.000  0.000  0.000
   29  0.000  0.000  0.000  0.000
   30  0.000  0.000  0.000  0.001
   31  0.000  0.000  0.000  0.000
   32  0.000  0.000  0.000  0.000
   33  0.000  0.000  0.000  0.001
   34  0.000  0.000  0.000  0.000
   35  0.000  0.000  0.000  0.000
   36  0.000  0.968  0.000  0.968
   37  0.000  0.000  0.000  0.000
tot    0.001  0.969  0.001  0.971
 
band     3 # energy  -26.35787985 # occ.  2.00000000
 
ion      s      p      d    tot
    1  0.000  0.000  0.000  0.000
    2  0.000  0.000  0.000  0.000
    3  0.000  0.000  0.000  0.000
    4  0.000  0.000  0.000  0.000
    5  0.000  0.000  0.000  0.000
    6  0.000  0.000  0.000  0.000
    7  0.000  0.000  0.000  0.000
    8  0.000  0.000  0.000  0.000
    9  0.000  0.000  0.000  0.000
   10  0.000  0.000  0.000  0.000
   11  0.000  0.000  0.000  0.000
   12  0.000  0.000  0.000  0.000
   13  0.000  0.000  0.000  0.000
   14  0.000  0.000  0.000  0.000
   15  0.000  0.000  0.000  0.000
   16  0.000  0.000  0.000  0.000
   17  0.000  0.000  0.000  0.000
   18  0.000  0.000  0.000  0.000
   19  0.000  0.000  0.000  0.000
   20  0.000  0.000  0.000  0.000
   21  0.000  0.000  0.000  0.000
   22  0.000  0.000  0.000  0.000
   23  0.000  0.000  0.000  0.000
   24  0.000  0.000  0.000  0.000
   25  0.000  0.000  0.000  0.000
   26  0.000  0.000  0.000  0.000
   27  0.000  0.000  0.000  0.000
   28  0.000  0.000  0.000  0.000
   29  0.000  0.000  0.000  0.001
   30  0.000  0.000  0.000  0.000
   31  0.000  0.000  0.000  0.001
   32  0.000  0.000  0.000  0.001
   33  0.000  0.000  0.000  0.000
   34  0.000  0.000  0.000  0.001
   35  0.000  0.000  0.000  0.000
   36  0.000  0.968  0.000  0.968
   37  0.000  0.000  0.000  0.000
tot    0.001  0.969  0.001  0.971
 
band     4 # energy  -26.26357433 # occ.  2.00000000
 
ion      s      p      d    tot
    1  0.000  0.000  0.000  0.000
    2  0.000  0.000  0.000  0.000
    3  0.000  0.000  0.000  0.000
    4  0.000  0.000  0.000  0.000
    5  0.000  0.000  0.000  0.000
    6  0.000  0.000  0.000  0.000
    7  0.000  0.000  0.000  0.000
    8  0.000  0.000  0.000  0.000
    9  0.000  0.000  0.000  0.000
   10  0.000  0.000  0.000  0.000
   11  0.000  0.000  0.000  0.000
   12  0.000  0.000  0.000  0.000
   13  0.000  0.000  0.000  0.000
   14  0.000  0.000  0.000  0.000
   15  0.000  0.000  0.000  0.000
   16  0.000  0.000  0.000  0.000
   17  0.000  0.000  0.000  0.000
   18  0.000  0.000  0.000  0.000
   19  0.000  0.000  0.000  0.000
   20  0.000  0.000  0.000  0.001
   21  0.000  0.000  0.000  0.001
   22  0.000  0.000  0.000  0.000
   23  0.000  0.000  0.000  0.001
   24  0.000  0.000  0.000  0.000
   25  0.000  0.000  0.000  0.000
   26  0.000  0.000  0.000  0.000
   27  0.000  0.000  0.000  0.000
   28  0.000  0.000  0.000  0.000
   29  0.000  0.000  0.000  0.000
   30  0.000  0.000  0.000  0.000
   31  0.000  0.000  0.000  0.000
   32  0.000  0.000  0.000  0.000
   33  0.000  0.000  0.000  0.000
   34  0.000  0.000  0.000  0.000
   35  0.000  0.000  0.000  0.000
   36  0.000  0.954  0.000  0.955
   37  0.006  0.005  0.000  0.011
tot    0.007  0.960  0.001  0.968
 
band     5 # energy   -8.66697513 # occ.  2.00000000
 
ion      s      p      d    tot
    1  0.007  0.001  0.000  0.007
    2  0.006  0.001  0.000  0.007
    3  0.006  0.001  0.000  0.007
    4  0.006  0.001  0.000  0.007
    5  0.006  0.001  0.000  0.007
    6  0.006  0.001  0.000  0.007
    7  0.006  0.001  0.000  0.007
    8  0.006  0.001  0.000  0.007
    9  0.006  0.001  0.000  0.007
   10  0.026  0.000  0.000  0.026
   11  0.027  0.000  0.000  0.027
   12  0.026  0.000  0.000  0.026
   13  0.027  0.000  0.000  0.027
   14  0.027  0.000  0.000  0.027
   15  0.025  0.000  0.000  0.026
   16  0.026  0.000  0.000  0.026
   17  0.025  0.000  0.000  0.026
   18  0.025  0.000  0.000  0.026
   19  0.023  0.000  0.000  0.023
   20  0.026  0.000  0.000  0.027
   21  0.026  0.000  0.000  0.027
   22  0.023  0.000  0.000  0.024
   23  0.026  0.000  0.000  0.027
   24  0.023  0.000  0.000  0.024
   25  0.023  0.000  0.000  0.023
   26  0.023  0.000  0.000  0.023
   27  0.023  0.000  0.000  0.024
   28  0.005  0.000  0.000  0.005
   29  0.005  0.000  0.000  0.005
   30  0.005  0.000  0.000  0.005
   31  0.005  0.000  0.000  0.005
   32  0.005  0.000  0.000  0.005
   33  0.005  0.000  0.000  0.005
   34  0.005  0.000  0.000  0.005
   35  0.005  0.000  0.000  0.005
   36  0.005  0.000  0.001  0.006
   37  0.010  0.000  0.000  0.011
tot    0.561  0.011  0.005  0.577
 
band     6 # energy   -7.83601285 # occ.  2.00000000
 
ion      s      p      d    tot
    1  0.004  0.000  0.000  0.004
    2  0.004  0.000  0.000  0.004
    3  0.004  0.000  0.000  0.004
    4  0.004  0.000  0.000  0.004
    5  0.004  0.000  0.000  0.004
    6  0.004  0.000  0.000  0.004
    7  0.004  0.000  0.000  0.004
    8  0.004  0.000  0.000  0.004
    9  0.004  0.000  0.000  0.005
   10  0.005  0.000  0.001  0.006
   11  0.005  0.000  0.001  0.005
   12  0.005  0.000  0.001  0.006
   13  0.005  0.000  0.001  0.005
   14  0.005  0.000  0.001  0.005
   15  0.006  0.000  0.000  0.007
   16  0.005  0.000  0.001  0.006
   17  0.006  0.000  0.000  0.007
   18  0.006  0.000  0.000  0.007
   19  0.000  0.000  0.000  0.001
   20  0.003  0.001  0.003  0.007
   21  0.003  0.001  0.003  0.007
   22  0.000  0.000  0.000  0.001
   23  0.003  0.001  0.003  0.007
   24  0.000  0.000  0.000  0.001
   25  0.000  0.000  0.000  0.001
   26  0.000  0.000  0.000  0.001
   27  0.000  0.000  0.000  0.001
   28  0.002  0.000  0.000  0.002
   29  0.004  0.000  0.001  0.005
   30  0.004  0.000  0.001  0.005
   31  0.004  0.000  0.001  0.005
   32  0.004  0.000  0.001  0.005
   33  0.004  0.000  0.001  0.005
   34  0.004  0.000  0.001  0.005
   35  0.002  0.000  0.000  0.002
   36  0.032  0.014  0.046  0.092
   37  0.349  0.005  0.000  0.353
tot    0.499  0.028  0.067  0.594
 
band     7 # energy   -7.37153940 # occ.  2.00000000
 
ion      s      p      d    tot
    1  0.015  0.000  0.001  0.016
    2  0.013  0.000  0.001  0.015
    3  0.013  0.000  0.001  0.015
    4  0.013  0.000  0.001  0.015
    5  0.013  0.000  0.001  0.015
    6  0.013  0.000  0.001  0.015
    7  0.013  0.000  0.001  0.015
    8  0.013  0.000  0.001  0.015
    9  0.013  0.000  0.001  0.014
   10  0.007  0.001  0.002  0.010
   11  0.006  0.001  0.002  0.009
   12  0.007  0.001  0.002  0.010
   13  0.006  0.001  0.002  0.009
   14  0.006  0.001  0.002  0.009
   15  0.005  0.002  0.002  0.008
   16  0.007  0.001  0.002  0.010
   17  0.005  0.002  0.002  0.008
   18  0.005  0.002  0.002  0.008
   19  0.016  0.001  0.004  0.021
   20  0.010  0.000  0.007  0.017
   21  0.010  0.000  0.007  0.017
   22  0.019  0.001  0.004  0.023
   23  0.010  0.000  0.007  0.017
   24  0.019  0.001  0.004  0.023
   25  0.016  0.001  0.004  0.021
   26  0.016  0.001  0.004  0.021
   27  0.019  0.001  0.004  0.023
   28  0.013  0.001  0.000  0.014
   29  0.009  0.001  0.001  0.011
   30  0.009  0.001  0.001  0.011
   31  0.009  0.001  0.001  0.011
   32  0.009  0.001  0.001  0.011
   33  0.009  0.001  0.001  0.011
   34  0.009  0.001  0.001  0.011
   35  0.014  0.001  0.000  0.015
   36  0.001  0.006  0.016  0.023
   37  0.089  0.001  0.000  0.090
tot    0.479  0.033  0.093  0.605
 
band     8 # energy   -6.55138675 # occ.  2.00000000
 
ion      s      p      d    tot
    1  0.010  0.000  0.020  0.030
    2  0.017  0.000  0.016  0.033
    3  0.017  0.000  0.016  0.033
    4  0.017  0.000  0.016  0.033
    5  0.013  0.000  0.015  0.027
    6  0.017  0.000  0.016  0.033
    7  0.017  0.000  0.016  0.033
    8  0.017  0.000  0.016  0.033
    9  0.032  0.000  0.012  0.044
   10  0.012  0.001  0.015  0.028
   11  0.012  0.002  0.014  0.027
   12  0.012  0.001  0.015  0.028
   13  0.012  0.002  0.014  0.027
   14  0.012  0.002  0.014  0.027
   15  0.000  0.001  0.018  0.019
   16  0.012  0.001  0.015  0.028
   17  0.000  0.001  0.018  0.019
   18  0.000  0.001  0.018  0.019
   19  0.000  0.001  0.005  0.006
   20  0.007  0.001  0.004  0.013
   21  0.007  0.001  0.004  0.013
   22  0.002  0.001  0.001  0.004
   23  0.007  0.001  0.004  0.013
   24  0.002  0.001  0.001  0.004
   25  0.000  0.001  0.005  0.006
   26  0.000  0.001  0.005  0.006
   27  0.002  0.001  0.001  0.004
   28  0.010  0.000  0.002  0.012
   29  0.007  0.000  0.005  0.012
   30  0.007  0.000  0.005  0.012
   31  0.007  0.000  0.005  0.012
   32  0.007  0.000  0.005  0.012
   33  0.007  0.000  0.005  0.012
   34  0.007  0.000  0.005  0.012
   35  0.014  0.000  0.003  0.017
   36  0.000  0.000  0.003  0.003
   37  0.000  0.000  0.000  0.000
tot    0.322  0.021  0.350  0.693
 
band     9 # energy   -6.51535054 # occ.  2.00000000
 
ion      s      p      d    tot
    1  0.000  0.001  0.009  0.009
    2  0.004  0.001  0.004  0.009
    3  0.007  0.001  0.003  0.012
    4  0.004  0.001  0.004  0.009
    5  0.000  0.001  0.007  0.008
    6  0.000  0.000  0.003  0.004
    7  0.007  0.001  0.003  0.012
    8  0.000  0.000  0.003  0.004
    9  0.000  0.000  0.001  0.001
   10  0.000  0.000  0.040  0.040
   11  0.040  0.001  0.015  0.056
   12  0.029  0.002  0.013  0.044
   13  0.040  0.001  0.015  0.057
   14  0.000  0.004  0.023  0.027
   15  0.001  0.001  0.011  0.013
   16  0.029  0.002  0.013  0.044
   17  0.001  0.001  0.011  0.013
   18  0.000  0.003  0.005  0.009
   19  0.008  0.001  0.011  0.020
   20  0.000  0.002  0.037  0.039
   21  0.044  0.002  0.015  0.061
   22  0.011  0.001  0.010  0.023
   23  0.043  0.002  0.016  0.061
   24  0.000  0.000  0.025  0.025
   25  0.000  0.004  0.004  0.008
   26  0.008  0.001  0.011  0.020
   27  0.011  0.001  0.011  0.023
   28  0.000  0.000  0.001  0.001
   29  0.000  0.000  0.002  0.002
   30  0.003  0.001  0.003  0.007
   31  0.000  0.000  0.002  0.002
   32  0.004  0.001  0.003  0.008
   33  0.003  0.001  0.003  0.007
   34  0.004  0.001  0.003  0.008
   35  0.000  0.000  0.004  0.004
   36  0.000  0.001  0.003  0.004
   37  0.000  0.000  0.000  0.000
tot    0.303  0.042  0.346  0.691
 
band    10 # energy   -6.51530770 # occ.  2.00000000
 
ion      s      p      d    tot
    1  0.000  0.001  0.009  0.009
    2  0.004  0.001  0.003  0.007
    3  0.001  0.000  0.003  0.004
    4  0.004  0.001  0.003  0.007
    5  0.000  0.001  0.007  0.008
    6  0.007  0.001  0.004  0.012
    7  0.001  0.000  0.003  0.004
    8  0.007  0.001  0.004  0.012
    9  0.000  0.000  0.001  0.001
   10  0.039  0.002  0.004  0.045
   11  0.014  0.003  0.020  0.037
   12  0.010  0.001  0.031  0.041
   13  0.013  0.003  0.020  0.037
   14  0.053  0.001  0.013  0.066
   15  0.000  0.003  0.007  0.010
   16  0.010  0.001  0.031  0.041
   17  0.000  0.003  0.007  0.010
   18  0.001  0.000  0.013  0.014
   19  0.003  0.003  0.006  0.012
   20  0.058  0.002  0.008  0.068
   21  0.014  0.002  0.030  0.046
   22  0.004  0.001  0.020  0.025
   23  0.015  0.002  0.030  0.046
   24  0.015  0.002  0.006  0.022
   25  0.011  0.000  0.013  0.024
   26  0.003  0.003  0.006  0.012
   27  0.004  0.001  0.020  0.025
   28  0.000  0.000  0.001  0.001
   29  0.005  0.001  0.003  0.009
   30  0.002  0.000  0.003  0.005
   31  0.005  0.001  0.003  0.009
   32  0.001  0.000  0.002  0.003
   33  0.002  0.000  0.003  0.005
   34  0.001  0.000  0.002  0.003
   35  0.000  0.000  0.004  0.004
   36  0.000  0.001  0.003  0.004
   37  0.000  0.000  0.000  0.000
tot    0.303  0.042  0.346  0.691
 
band    11 # energy   -6.50730168 # occ.  2.00000000
 
ion      s      p      d    tot
    1  0.009  0.000  0.003  0.012
    2  0.004  0.000  0.007  0.012
    3  0.004  0.000  0.007  0.012
    4  0.004  0.000  0.007  0.012
    5  0.011  0.000  0.005  0.016
    6  0.004  0.000  0.007  0.012
    7  0.004  0.000  0.007  0.012
    8  0.004  0.000  0.007  0.012
    9  0.000  0.001  0.009  0.010
   10  0.001  0.000  0.027  0.027
   11  0.000  0.001  0.019  0.020
   12  0.001  0.000  0.027  0.027
   13  0.000  0.001  0.019  0.020
   14  0.000  0.001  0.019  0.020
   15  0.025  0.001  0.011  0.036
   16  0.001  0.000  0.027  0.027
   17  0.025  0.001  0.011  0.036
   18  0.025  0.001  0.011  0.037
   19  0.001  0.000  0.026  0.027
   20  0.025  0.001  0.017  0.042
   21  0.025  0.001  0.017  0.042
   22  0.000  0.001  0.018  0.019
   23  0.025  0.001  0.017  0.042
   24  0.000  0.001  0.018  0.019
   25  0.001  0.000  0.026  0.027
   26  0.001  0.000  0.026  0.027
   27  0.000  0.001  0.018  0.019
   28  0.009  0.000  0.003  0.012
   29  0.005  0.000  0.007  0.013
   30  0.005  0.000  0.007  0.013
   31  0.005  0.000  0.007  0.013
   32  0.005  0.000  0.007  0.013
   33  0.005  0.000  0.007  0.013
   34  0.005  0.000  0.007  0.013
   35  0.012  0.000  0.005  0.017
   36  0.000  0.001  0.003  0.004
   37  0.001  0.000  0.000  0.001
tot    0.251  0.016  0.465  0.733
 
band    12 # energy   -6.49290369 # occ.  2.00000000
 
ion      s      p      d    tot
    1  0.013  0.001  0.000  0.015
    2  0.000  0.001  0.006  0.007
    3  0.000  0.001  0.006  0.007
    4  0.000  0.001  0.006  0.007
    5  0.011  0.002  0.003  0.016
    6  0.000  0.001  0.006  0.007
    7  0.000  0.001  0.006  0.007
    8  0.000  0.001  0.006  0.007
    9  0.000  0.000  0.000  0.000
   10  0.024  0.003  0.004  0.031
   11  0.023  0.000  0.022  0.046
   12  0.024  0.003  0.003  0.030
   13  0.023  0.000  0.022  0.046
   14  0.023  0.000  0.022  0.046
   15  0.000  0.001  0.022  0.024
   16  0.024  0.003  0.003  0.030
   17  0.000  0.001  0.022  0.024
   18  0.000  0.001  0.022  0.024
   19  0.027  0.003  0.003  0.033
   20  0.002  0.002  0.021  0.025
   21  0.002  0.002  0.021  0.026
   22  0.010  0.000  0.025  0.034
   23  0.002  0.002  0.021  0.026
   24  0.010  0.000  0.025  0.035
   25  0.027  0.003  0.003  0.033
   26  0.027  0.003  0.003  0.033
   27  0.010  0.000  0.025  0.034
   28  0.009  0.001  0.001  0.011
   29  0.000  0.000  0.004  0.004
   30  0.000  0.000  0.004  0.004
   31  0.000  0.000  0.004  0.004
   32  0.000  0.000  0.004  0.004
   33  0.000  0.000  0.004  0.004
   34  0.000  0.000  0.004  0.004
   35  0.006  0.001  0.001  0.009
   36  0.000  0.000  0.000  0.000
   37  0.000  0.000  0.000  0.000
tot    0.299  0.040  0.355  0.694
 
band    13 # energy   -6.46516603 # occ.  2.00000000
 
ion      s      p      d    tot
    1  0.000  0.001  0.003  0.004
    2  0.004  0.001  0.004  0.009
    3  0.008  0.001  0.004  0.013
    4  0.004  0.001  0.004  0.010
    5  0.000  0.000  0.005  0.005
    6  0.001  0.000  0.003  0.004
    7  0.008  0.001  0.004  0.013
    8  0.001  0.000  0.003  0.004
    9  0.000  0.001  0.011  0.012
   10  0.025  0.000  0.017  0.042
   11  0.002  0.001  0.022  0.026
   12  0.006  0.004  0.007  0.017
   13  0.002  0.001  0.022  0.026
   14  0.010  0.001  0.007  0.018
   15  0.016  0.001  0.033  0.051
   16  0.006  0.004  0.007  0.017
   17  0.016  0.001  0.034  0.050
   18  0.064  0.002  0.005  0.071
   19  0.010  0.001  0.027  0.038
   20  0.000  0.001  0.013  0.014
   21  0.000  0.002  0.011  0.013
   22  0.009  0.003  0.015  0.026
   23  0.000  0.002  0.011  0.013
   24  0.035  0.001  0.011  0.047
   25  0.039  0.002  0.003  0.044
   26  0.010  0.001  0.028  0.038
   27  0.009  0.003  0.015  0.027
   28  0.000  0.000  0.006  0.007
   29  0.000  0.000  0.002  0.002
   30  0.002  0.000  0.002  0.005
   31  0.000  0.000  0.002  0.002
   32  0.004  0.001  0.002  0.007
   33  0.002  0.000  0.002  0.004
   34  0.004  0.001  0.002  0.007
   35  0.000  0.001  0.004  0.005
   36  0.000  0.000  0.000  0.000
   37  0.000  0.000  0.000  0.000
tot    0.298  0.041  0.353  0.692
 
band    14 # energy   -6.46512184 # occ.  2.00000000
 
ion      s      p      d    tot
    1  0.000  0.001  0.003  0.004
    2  0.004  0.001  0.003  0.009
    3  0.001  0.000  0.004  0.005
    4  0.004  0.001  0.003  0.009
    5  0.000  0.000  0.005  0.005
    6  0.008  0.001  0.004  0.014
    7  0.001  0.000  0.004  0.005
    8  0.008  0.001  0.004  0.014
    9  0.000  0.001  0.011  0.012
   10  0.000  0.005  0.004  0.008
   11  0.007  0.001  0.012  0.021
   12  0.019  0.001  0.014  0.034
   13  0.007  0.001  0.012  0.021
   14  0.000  0.001  0.027  0.028
   15  0.048  0.001  0.015  0.064
   16  0.018  0.001  0.014  0.034
   17  0.048  0.001  0.015  0.064
   18  0.000  0.001  0.043  0.044
   19  0.029  0.002  0.011  0.042
   20  0.000  0.002  0.010  0.012
   21  0.000  0.001  0.012  0.013
   22  0.027  0.001  0.012  0.040
   23  0.000  0.001  0.012  0.013
   24  0.000  0.004  0.016  0.020
   25  0.000  0.000  0.036  0.036
   26  0.030  0.002  0.011  0.042
   27  0.026  0.001  0.012  0.040
   28  0.000  0.000  0.006  0.007
   29  0.004  0.001  0.002  0.007
   30  0.002  0.000  0.002  0.005
   31  0.004  0.001  0.002  0.007
   32  0.000  0.000  0.002  0.002
   33  0.002  0.000  0.002  0.005
   34  0.000  0.000  0.002  0.002
   35  0.000  0.001  0.004  0.005
   36  0.000  0.000  0.000  0.000
   37  0.000  0.000  0.000  0.000
tot    0.298  0.041  0.353  0.692
 
band    15 # energy   -6.41110717 # occ.  2.00000000
 
ion      s      p      d    tot
    1  0.004  0.000  0.000  0.005
    2  0.000  0.000  0.004  0.005
    3  0.000  0.000  0.004  0.005
    4  0.000  0.000  0.004  0.005
    5  0.005  0.000  0.000  0.005
    6  0.000  0.000  0.004  0.005
    7  0.000  0.000  0.004  0.005
    8  0.000  0.000  0.004  0.005
    9  0.006  0.001  0.002  0.009
   10  0.003  0.000  0.018  0.022
   11  0.006  0.002  0.005  0.012
   12  0.003  0.000  0.018  0.022
   13  0.006  0.002  0.005  0.012
   14  0.006  0.002  0.005  0.012
   15  0.018  0.001  0.008  0.028
   16  0.003  0.000  0.018  0.022
   17  0.018  0.001  0.008  0.028
   18  0.018  0.001  0.008  0.028
   19  0.002  0.001  0.015  0.018
   20  0.001  0.000  0.026  0.027
   21  0.001  0.000  0.026  0.027
   22  0.017  0.002  0.011  0.031
   23  0.001  0.000  0.026  0.027
   24  0.017  0.002  0.011  0.031
   25  0.002  0.001  0.015  0.018
   26  0.002  0.001  0.015  0.018
   27  0.017  0.002  0.011  0.031
   28  0.015  0.000  0.016  0.032
   29  0.015  0.000  0.013  0.028
   30  0.015  0.000  0.013  0.028
   31  0.015  0.000  0.013  0.028
   32  0.015  0.000  0.013  0.028
   33  0.015  0.000  0.013  0.028
   34  0.015  0.000  0.013  0.028
   35  0.010  0.000  0.015  0.025
   36  0.003  0.001  0.007  0.011
   37  0.008  0.000  0.000  0.008
tot    0.288  0.026  0.393  0.707
 
band    16 # energy   -6.03781510 # occ.  2.00000000
 
ion      s      p      d    tot
    1  0.011  0.002  0.002  0.015
    2  0.000  0.001  0.008  0.008
    3  0.000  0.001  0.008  0.008
    4  0.000  0.001  0.008  0.008
    5  0.001  0.000  0.002  0.002
    6  0.000  0.001  0.008  0.008
    7  0.000  0.001  0.008  0.008
    8  0.000  0.001  0.008  0.008
    9  0.017  0.001  0.000  0.018
   10  0.010  0.001  0.014  0.025
   11  0.002  0.000  0.044  0.047
   12  0.010  0.001  0.014  0.025
   13  0.002  0.000  0.044  0.047
   14  0.002  0.000  0.045  0.047
   15  0.003  0.001  0.020  0.024
   16  0.010  0.001  0.014  0.025
   17  0.003  0.001  0.020  0.024
   18  0.004  0.001  0.020  0.025
   19  0.003  0.001  0.015  0.019
   20  0.002  0.000  0.054  0.056
   21  0.002  0.000  0.054  0.056
   22  0.012  0.001  0.016  0.029
   23  0.002  0.000  0.054  0.056
   24  0.012  0.001  0.016  0.029
   25  0.003  0.001  0.015  0.019
   26  0.003  0.001  0.015  0.019
   27  0.012  0.001  0.016  0.029
   28  0.013  0.001  0.000  0.014
   29  0.000  0.000  0.006  0.007
   30  0.000  0.000  0.006  0.007
   31  0.000  0.000  0.006  0.007
   32  0.000  0.000  0.006  0.007
   33  0.000  0.000  0.006  0.007
   34  0.000  0.000  0.006  0.007
   35  0.009  0.001  0.002  0.013
   36  0.000  0.000  0.000  0.000
   37  0.000  0.000  0.000  0.000
tot    0.147  0.027  0.580  0.754
 
band    17 # energy   -6.03100699 # occ.  2.00000000
 
ion      s      p      d    tot
    1  0.000  0.001  0.003  0.004
    2  0.009  0.001  0.004  0.014
    3  0.001  0.000  0.004  0.006
    4  0.009  0.001  0.004  0.014
    5  0.000  0.001  0.011  0.012
    6  0.004  0.001  0.005  0.010
    7  0.001  0.000  0.004  0.006
    8  0.004  0.001  0.005  0.010
    9  0.000  0.000  0.009  0.009
   10  0.009  0.002  0.009  0.020
   11  0.005  0.000  0.041  0.046
   12  0.002  0.001  0.039  0.042
   13  0.005  0.000  0.041  0.046
   14  0.018  0.001  0.012  0.031
   15  0.000  0.001  0.014  0.015
   16  0.002  0.001  0.039  0.042
   17  0.000  0.001  0.014  0.015
   18  0.002  0.000  0.022  0.024
   19  0.002  0.001  0.014  0.017
   20  0.024  0.001  0.008  0.033
   21  0.006  0.000  0.061  0.068
   22  0.001  0.001  0.031  0.033
   23  0.006  0.000  0.061  0.068
   24  0.004  0.001  0.013  0.019
   25  0.008  0.000  0.023  0.031
   26  0.002  0.001  0.014  0.016
   27  0.001  0.001  0.031  0.033
   28  0.000  0.000  0.008  0.008
   29  0.006  0.001  0.004  0.011
   30  0.000  0.000  0.004  0.004
   31  0.006  0.001  0.004  0.011
   32  0.006  0.001  0.004  0.011
   33  0.000  0.000  0.004  0.004
   34  0.006  0.001  0.004  0.011
   35  0.000  0.000  0.003  0.003
   36  0.000  0.001  0.003  0.004
   37  0.000  0.000  0.000  0.000
tot    0.149  0.028  0.574  0.751
 
band    18 # energy   -6.03099846 # occ.  2.00000000
 
ion      s      p      d    tot
    1  0.000  0.001  0.003  0.004
    2  0.000  0.000  0.005  0.006
    3  0.008  0.001  0.005  0.014
    4  0.000  0.000  0.005  0.006
    5  0.000  0.001  0.011  0.012
    6  0.005  0.001  0.004  0.010
    7  0.008  0.001  0.005  0.014
    8  0.005  0.001  0.004  0.010
    9  0.000  0.000  0.009  0.009
   10  0.000  0.001  0.049  0.050
   11  0.014  0.001  0.022  0.036
   12  0.007  0.002  0.019  0.027
   13  0.014  0.001  0.022  0.036
   14  0.000  0.000  0.050  0.050
   15  0.001  0.000  0.019  0.021
   16  0.007  0.002  0.019  0.027
   17  0.001  0.000  0.019  0.021
   18  0.000  0.001  0.011  0.012
   19  0.006  0.000  0.020  0.026
   20  0.000  0.000  0.079  0.079
   21  0.018  0.001  0.026  0.045
   22  0.003  0.001  0.019  0.023
   23  0.018  0.001  0.026  0.045
   24  0.000  0.001  0.037  0.038
   25  0.000  0.001  0.011  0.012
   26  0.006  0.000  0.020  0.026
   27  0.003  0.001  0.019  0.023
   28  0.000  0.000  0.008  0.008
   29  0.002  0.000  0.004  0.007
   30  0.008  0.001  0.004  0.013
   31  0.002  0.000  0.004  0.007
   32  0.002  0.001  0.004  0.007
   33  0.008  0.001  0.004  0.013
   34  0.002  0.001  0.004  0.007
   35  0.000  0.000  0.003  0.003
   36  0.000  0.001  0.003  0.004
   37  0.000  0.000  0.000  0.000
tot    0.149  0.028  0.574  0.750
 
band    19 # energy   -5.98071316 # occ.  2.00000000
 
ion      s      p      d    tot
    1  0.000  0.001  0.015  0.015
    2  0.010  0.001  0.005  0.016
    3  0.002  0.000  0.005  0.007
    4  0.010  0.001  0.005  0.016
    5  0.000  0.000  0.005  0.005
    6  0.003  0.001  0.005  0.010
    7  0.002  0.000  0.005  0.007
    8  0.003  0.001  0.005  0.010
    9  0.000  0.001  0.007  0.008
   10  0.000  0.001  0.030  0.030
   11  0.001  0.001  0.020  0.021
   12  0.007  0.000  0.022  0.030
   13  0.001  0.001  0.020  0.021
   14  0.000  0.001  0.019  0.020
   15  0.010  0.002  0.021  0.033
   16  0.007  0.000  0.022  0.030
   17  0.011  0.002  0.020  0.033
   18  0.000  0.000  0.063  0.063
   19  0.013  0.001  0.020  0.034
   20  0.000  0.002  0.018  0.020
   21  0.000  0.001  0.023  0.024
   22  0.018  0.001  0.020  0.039
   23  0.000  0.001  0.023  0.024
   24  0.000  0.000  0.033  0.033
   25  0.000  0.000  0.067  0.067
   26  0.013  0.001  0.019  0.034
   27  0.018  0.001  0.020  0.039
   28  0.000  0.001  0.005  0.006
   29  0.006  0.001  0.004  0.010
   30  0.000  0.000  0.005  0.005
   31  0.006  0.001  0.004  0.010
   32  0.004  0.001  0.003  0.008
   33  0.000  0.000  0.005  0.005
   34  0.004  0.001  0.003  0.008
   35  0.000  0.001  0.008  0.010
   36  0.000  0.000  0.001  0.001
   37  0.000  0.000  0.000  0.000
tot    0.149  0.028  0.572  0.749
 
band    20 # energy   -5.98068194 # occ.  2.00000000
 
ion      s      p      d    tot
    1  0.000  0.001  0.015  0.015
    2  0.000  0.000  0.005  0.006
    3  0.008  0.001  0.005  0.014
    4  0.000  0.000  0.005  0.006
    5  0.000  0.000  0.005  0.005
    6  0.007  0.001  0.005  0.012
    7  0.008  0.001  0.005  0.014
    8  0.007  0.001  0.005  0.012
    9  0.000  0.001  0.007  0.008
   10  0.009  0.000  0.020  0.029
   11  0.000  0.001  0.019  0.020
   12  0.002  0.001  0.027  0.030
   13  0.000  0.001  0.019  0.020
   14  0.001  0.001  0.020  0.022
   15  0.004  0.001  0.049  0.053
   16  0.002  0.001  0.027  0.030
   17  0.003  0.001  0.049  0.053
   18  0.014  0.002  0.006  0.023
   19  0.004  0.001  0.051  0.056
   20  0.000  0.000  0.024  0.025
   21  0.000  0.001  0.020  0.021
   22  0.006  0.001  0.029  0.035
   23  0.000  0.001  0.020  0.021
   24  0.024  0.001  0.016  0.040
   25  0.018  0.001  0.004  0.023
   26  0.004  0.001  0.051  0.056
   27  0.006  0.001  0.029  0.035
   28  0.000  0.001  0.005  0.006
   29  0.001  0.000  0.004  0.005
   30  0.007  0.001  0.003  0.010
   31  0.001  0.000  0.004  0.005
   32  0.003  0.001  0.005  0.008
   33  0.007  0.001  0.003  0.010
   34  0.003  0.001  0.005  0.008
   35  0.000  0.001  0.009  0.010
   36  0.000  0.000  0.001  0.001
   37  0.000  0.000  0.000  0.000
tot    0.149  0.028  0.572  0.749
 
band    21 # energy   -5.94916997 # occ.  2.00000000
 
ion      s      p      d    tot
    1  0.014  0.001  0.001  0.015
    2  0.000  0.001  0.010  0.011
    3  0.000  0.001  0.010  0.011
    4  0.000  0.001  0.010  0.011
    5  0.017  0.002  0.001  0.020
    6  0.000  0.001  0.010  0.011
    7  0.000  0.001  0.010  0.011
    8  0.000  0.001  0.010  0.011
    9  0.000  0.000  0.002  0.003
   10  0.000  0.001  0.042  0.042
   11  0.006  0.002  0.012  0.019
   12  0.000  0.001  0.042  0.042
   13  0.006  0.002  0.012  0.019
   14  0.006  0.002  0.012  0.019
   15  0.004  0.001  0.030  0.034
   16  0.000  0.001  0.042  0.042
   17  0.004  0.001  0.030  0.034
   18  0.004  0.001  0.030  0.034
   19  0.010  0.001  0.046  0.057
   20  0.010  0.001  0.003  0.014
   21  0.010  0.001  0.003  0.014
   22  0.000  0.000  0.037  0.037
   23  0.010  0.001  0.003  0.014
   24  0.000  0.000  0.037  0.037
   25  0.010  0.001  0.046  0.057
   26  0.010  0.001  0.046  0.057
   27  0.000  0.000  0.037  0.037
   28  0.000  0.001  0.009  0.010
   29  0.001  0.000  0.005  0.006
   30  0.001  0.000  0.005  0.006
   31  0.001  0.000  0.005  0.006
   32  0.001  0.000  0.005  0.006
   33  0.001  0.000  0.005  0.006
   34  0.001  0.000  0.005  0.006
   35  0.001  0.000  0.000  0.001
   36  0.002  0.002  0.000  0.004