 vasp.6.2.0 18Jan21 (build Jun 12 2021 23:27:24) complex                        
  
 executed on             LinuxIFC date 2022.05.30  16:48:59
 running on   28 total cores
 distrk:  each k-point on   28 cores,    1 groups
 distr:  one band on NCORE=   1 cores,   28 groups


--------------------------------------------------------------------------------------------------------


 INCAR:
   ISMEAR = -5
   SIGMA = 0.1
   ISPIN = 1
   EDIFF = 1.d-5
   EDIFFG = -0.01
   NSW = 0
   NELM = 150
   ENCUT = 500
   ISIF = 2
   IBRION = 2
   LREAL = Auto
   ALGO = Fast
   ICHARG = 11
   LORBIT = 10
   LCHARG = .F.
   LWAVE = .F.

 POTCAR:    PAW_PBE Ag 02Apr2005                  
 POTCAR:    PAW_PBE Ti 08Apr2002                  
 POTCAR:    PAW_PBE O 08Apr2002                   
 -----------------------------------------------------------------------------
|                                                                             |
|           W    W    AA    RRRRR   N    N  II  N    N   GGGG   !!!           |
|           W    W   A  A   R    R  NN   N  II  NN   N  G    G  !!!           |
|           W    W  A    A  R    R  N N  N  II  N N  N  G       !!!           |
|           W WW W  AAAAAA  RRRRR   N  N N  II  N  N N  G  GGG   !            |
|           WW  WW  A    A  R   R   N   NN  II  N   NN  G    G                |
|           W    W  A    A  R    R  N    N  II  N    N   GGGG   !!!           |
|                                                                             |
|     For optimal performance we recommend to set                             |
|       NCORE = 2 up to number-of-cores-per-socket                            |
|     NCORE specifies how many cores store one orbital (NPAR=cpu/NCORE).      |
|     This setting can greatly improve the performance of VASP for DFT.       |
|     The default, NCORE=1 might be grossly inefficient on modern             |
|     multi-core architectures or massively parallel machines. Do your        |
|     own testing! More info at https://www.vasp.at/wiki/index.php/NCORE      |
|     Unfortunately you need to use the default for GW and RPA                |
|     calculations (for HF NCORE is supported but not extensively tested      |
|     yet).                                                                   |
|                                                                             |
 -----------------------------------------------------------------------------

 POTCAR:    PAW_PBE Ag 02Apr2005                  
   VRHFIN =Ag : s1 d10                                                                              
   LEXCH  = PE                                                                                      
   EATOM  =  1037.2675 eV,   76.2370 Ry                                                             
                                                                                                    
   TITEL  = PAW_PBE Ag 02Apr2005                                                                    
   LULTRA =        F    use ultrasoft PP ?                                                          
   IUNSCR =        1    unscreen: 0-lin 1-nonlin 2-no                                               
   RPACOR =    2.000    partial core radius                                                         
   POMASS =  107.868; ZVAL   =   11.000    mass and valenz                                          
   RCORE  =    2.500    outmost cutoff radius                                                       
   RWIGS  =    2.840; RWIGS  =    1.503    wigner-seitz radius (au A)                               
   ENMAX  =  249.844; ENMIN  =  187.383 eV                                                          
   ICORE  =        3    local potential                                                             
   LCOR   =        T    correct aug charges                                                         
   LPAW   =        T    paw PP                                                                      
   EAUG   =  412.496                                                                                
   DEXC   =    0.000                                                                                
   RMAX   =    2.560    core radius for proj-oper                                                   
   RAUG   =    1.300    factor for augmentation sphere                                              
   RDEP   =    2.576    radius for radial grids                                                     
   RDEPT  =    2.072    core radius for aug-charge                                                  
                                                                                                    
   Atomic configuration                                                                             
   12 entries                                                                                       
     n  l   j            E        occ.                                                              
     1  0  0.50    -25324.9161   2.0000                                                             
     2  0  0.50     -3728.5341   2.0000                                                             
     2  1  1.50     -3344.0404   6.0000                                                             
     3  0  0.50      -683.5581   2.0000                                                             
     3  1  1.50      -557.3225   6.0000                                                             
     3  2  2.50      -358.3853  10.0000                                                             
     4  0  0.50       -95.0341   2.0000                                                             
     4  1  1.50       -58.5511   6.0000                                                             
     4  2  2.50        -7.4440  10.0000                                                             
     5  0  0.50        -4.4045   1.0000                                                             
     5  1  0.50        -1.3606   0.0000                                                             
     4  3  2.50        -1.3606   0.0000                                                             
   Description                                                                                      
     l       E           TYP  RCUT    TYP  RCUT                                                     
     2     -7.4439781     23  2.400                                                                 
     2     -8.8045607     23  2.400                                                                 
     0     -4.4044681     23  2.400                                                                 
     0      1.9520038     23  2.400                                                                 
     1     -1.3605826     23  2.500                                                                 
     1     27.2116520     23  2.500                                                                 
     3     -4.0817478     23  2.400                                                                 
  local pseudopotential read in
  partial core-charges read in
  partial kinetic energy density read in
  atomic valenz-charges read in
  non local Contribution for L=           2  read in
    real space projection operators read in
  non local Contribution for L=           2  read in
    real space projection operators read in
  non local Contribution for L=           0  read in
    real space projection operators read in
  non local Contribution for L=           0  read in
    real space projection operators read in
  non local Contribution for L=           1  read in
    real space projection operators read in
  non local Contribution for L=           1  read in
    real space projection operators read in
    PAW grid and wavefunctions read in
 
   number of l-projection  operators is LMAX  =           6
   number of lm-projection operators is LMMAX =          18
 
 POTCAR:    PAW_PBE Ti 08Apr2002                  
   VRHFIN =Ti: d3 s1                                                                                
   LEXCH  = PE                                                                                      
   EATOM  =    94.7928 eV,    6.9671 Ry                                                             
                                                                                                    
   TITEL  = PAW_PBE Ti 08Apr2002                                                                    
   LULTRA =        F    use ultrasoft PP ?                                                          
   IUNSCR =        1    unscreen: 0-lin 1-nonlin 2-no                                               
   RPACOR =    2.200    partial core radius                                                         
   POMASS =   47.880; ZVAL   =    4.000    mass and valenz                                          
   RCORE  =    2.800    outmost cutoff radius                                                       
   RWIGS  =    2.500; RWIGS  =    1.323    wigner-seitz radius (au A)                               
   ENMAX  =  178.330; ENMIN  =  133.747 eV                                                          
   RCLOC  =    2.215    cutoff for local pot                                                        
   LCOR   =        T    correct aug charges                                                         
   LPAW   =        T    paw PP                                                                      
   EAUG   =  328.883                                                                                
   DEXC   =    0.000                                                                                
   RMAX   =    2.868    core radius for proj-oper                                                   
   RAUG   =    1.300    factor for augmentation sphere                                              
   RDEP   =    2.885    radius for radial grids                                                     
   RDEPT  =    2.320    core radius for aug-charge                                                  
                                                                                                    
   Atomic configuration                                                                             
    9 entries                                                                                       
     n  l   j            E        occ.                                                              
     1  0  0.50     -4865.3608   2.0000                                                             
     2  0  0.50      -533.1367   2.0000                                                             
     2  1  1.50      -440.5031   6.0000                                                             
     3  0  0.50       -59.3186   2.0000                                                             
     3  1  1.50       -35.7012   6.0000                                                             
     3  2  2.50        -1.9157   3.0000                                                             
     4  0  0.50        -3.7291   1.0000                                                             
     4  1  1.50        -4.0817   0.0000                                                             
     4  3  2.50        -1.3606   0.0000                                                             
   Description                                                                                      
     l       E           TYP  RCUT    TYP  RCUT                                                     
     2     -1.9156924     23  2.800                                                                 
     2     -0.4062961     23  2.800                                                                 
     0     -3.7290832     23  2.800                                                                 
     0     20.4087390     23  2.800                                                                 
     1     -5.4423304     23  2.800                                                                 
  local pseudopotential read in
  partial core-charges read in
  partial kinetic energy density read in
  atomic valenz-charges read in
  non local Contribution for L=           2  read in
    real space projection operators read in
  non local Contribution for L=           2  read in
    real space projection operators read in
  non local Contribution for L=           0  read in
    real space projection operators read in
  non local Contribution for L=           0  read in
    real space projection operators read in
  non local Contribution for L=           1  read in
    real space projection operators read in
    PAW grid and wavefunctions read in
 
   number of l-projection  operators is LMAX  =           5
   number of lm-projection operators is LMMAX =          15
 
 POTCAR:    PAW_PBE O 08Apr2002                   
   VRHFIN =O: s2p4                                                                                  
   LEXCH  = PE                                                                                      
   EATOM  =   432.3788 eV,   31.7789 Ry                                                             
                                                                                                    
   TITEL  = PAW_PBE O 08Apr2002                                                                     
   LULTRA =        F    use ultrasoft PP ?                                                          
   IUNSCR =        1    unscreen: 0-lin 1-nonlin 2-no                                               
   RPACOR =    1.200    partial core radius                                                         
   POMASS =   16.000; ZVAL   =    6.000    mass and valenz                                          
   RCORE  =    1.520    outmost cutoff radius                                                       
   RWIGS  =    1.550; RWIGS  =    0.820    wigner-seitz radius (au A)                               
   ENMAX  =  400.000; ENMIN  =  300.000 eV                                                          
   ICORE  =        2    local potential                                                             
   LCOR   =        T    correct aug charges                                                         
   LPAW   =        T    paw PP                                                                      
   EAUG   =  605.392                                                                                
   DEXC   =    0.000                                                                                
   RMAX   =    1.553    core radius for proj-oper                                                   
   RAUG   =    1.300    factor for augmentation sphere                                              
   RDEP   =    1.550    radius for radial grids                                                     
   RDEPT  =    1.329    core radius for aug-charge                                                  
                                                                                                    
   Atomic configuration                                                                             
    4 entries                                                                                       
     n  l   j            E        occ.                                                              
     1  0  0.50      -514.6923   2.0000                                                             
     2  0  0.50       -23.9615   2.0000                                                             
     2  1  0.50        -9.0305   4.0000                                                             
     3  2  1.50        -9.5241   0.0000                                                             
   Description                                                                                      
     l       E           TYP  RCUT    TYP  RCUT                                                     
     0    -23.9615318     23  1.200                                                                 
     0     -9.5240782     23  1.200                                                                 
     1     -9.0304911     23  1.520                                                                 
     1      8.1634956     23  1.520                                                                 
     2     -9.5240782      7  1.500                                                                 
  local pseudopotential read in
  partial core-charges read in
  partial kinetic energy density read in
  kinetic energy density of atom read in
  atomic valenz-charges read in
  non local Contribution for L=           0  read in
    real space projection operators read in
  non local Contribution for L=           0  read in
    real space projection operators read in
  non local Contribution for L=           1  read in
    real space projection operators read in
  non local Contribution for L=           1  read in
    real space projection operators read in
    PAW grid and wavefunctions read in
 
   number of l-projection  operators is LMAX  =           4
   number of lm-projection operators is LMMAX =           8
 
 Optimization of the real space projectors (new method)

 maximal supplied QI-value         = 15.12
 optimisation between [QCUT,QGAM] = [ 11.34, 22.83] = [ 36.00,145.93] Ry 
 Optimized for a Real-space Cutoff    1.43 Angstroem

   l    n(q)    QCUT    max X(q) W(low)/X(q) W(high)/X(q)  e(spline) 
   2      9    11.338    53.897    0.16E-03    0.20E-03    0.28E-06
   2      9    11.338    52.416    0.16E-03    0.20E-03    0.29E-06
   0     10    11.338   122.045    0.31E-04    0.76E-04    0.15E-06
   0     10    11.338    73.629    0.30E-04    0.72E-04    0.15E-06
   1      9    11.338    15.255    0.20E-03    0.19E-04    0.17E-06
   1      9    11.338     9.562    0.16E-03    0.15E-04    0.14E-06
 Optimization of the real space projectors (new method)

 maximal supplied QI-value         = 13.42
 optimisation between [QCUT,QGAM] = [ 11.40, 22.81] = [ 36.42,145.68] Ry 
 Optimized for a Real-space Cutoff    1.56 Angstroem

   l    n(q)    QCUT    max X(q) W(low)/X(q) W(high)/X(q)  e(spline) 
   2     10    11.404    49.363    0.27E-03    0.67E-03    0.76E-06
   2     10    11.404    47.669    0.26E-03    0.65E-03    0.73E-06
   0     11    11.404    26.374    0.17E-03    0.20E-03    0.34E-06
   0     11    11.404    11.549    0.14E-03    0.16E-03    0.29E-06
   1     10    11.404     9.492    0.33E-04    0.56E-04    0.16E-06
 Optimization of the real space projectors (new method)

 maximal supplied QI-value         = 24.76
 optimisation between [QCUT,QGAM] = [ 11.39, 22.77] = [ 36.31,145.25] Ry 
 Optimized for a Real-space Cutoff    1.00 Angstroem

   l    n(q)    QCUT    max X(q) W(low)/X(q) W(high)/X(q)  e(spline) 
   0      7    11.387    20.381    0.39E-03    0.13E-02    0.15E-06
   0      7    11.387    15.268    0.42E-03    0.14E-02    0.17E-06
   1      6    11.387     5.964    0.41E-03    0.11E-02    0.17E-06
   1      6    11.387     5.382    0.39E-03    0.87E-03    0.15E-06
  PAW_PBE Ag 02Apr2005                  :
 energy of atom  1       EATOM=-1037.2675
 kinetic energy error for atom=    0.0052 (will be added to EATOM!!)
  PAW_PBE Ti 08Apr2002                  :
 energy of atom  2       EATOM=  -94.7928
 kinetic energy error for atom=    0.0002 (will be added to EATOM!!)
  PAW_PBE O 08Apr2002                   :
 energy of atom  3       EATOM= -432.3788
 kinetic energy error for atom=    0.0224 (will be added to EATOM!!)
 
 
 POSCAR: Ag-Ti-O2
  positions in direct lattice
  velocities in cartesian coordinates
 exchange correlation table for  LEXCH =        8
   RHO(1)=    0.500       N(1)  =     2000
   RHO(2)=  100.500       N(2)  =     4000

 VTST: version 3.2, (02/03/18)

 CHAIN: initializing optimizer
 
 OPT: Using VASP Conjugate-Gradient optimizer
 CHAIN: Read ICHAIN            0
 
 POSCAR: Ag-Ti-O2
  positions in direct lattice
  velocities in cartesian coordinates
 


--------------------------------------------------------------------------------------------------------


 ion  position               nearest neighbor table
   1  0.000  0.000  0.217-   2 2.93   8 2.93   7 2.93   6 2.93   4 2.93  12 2.93  16 2.93  10 2.93
                             3 2.93
   2  0.333  0.000  0.217-   1 2.93   8 2.93   9 2.93   3 2.93   4 2.93   5 2.93  10 2.93  17 2.93
                            11 2.93
   3  0.667  0.000  0.217-   9 2.93   2 2.93   5 2.93  11 2.93   7 2.93  18 2.93   1 2.93   6 2.93
                            12 2.93
   4  0.000  0.333  0.217-   5 2.93   6 2.93   2 2.93   1 2.93   7 2.93  13 2.93  15 2.93   9 2.93
                            10 2.93
   5  0.333  0.333  0.217-   4 2.93   3 2.93   7 2.93   2 2.93   8 2.93  14 2.93  13 2.93  11 2.93
                             6 2.93
   6  0.667  0.333  0.217-   4 2.93   9 2.93   1 2.93  15 2.93   8 2.93  12 2.93   3 2.93   5 2.93
                            14 2.93
   7  0.000  0.667  0.217-   8 2.93   1 2.93   5 2.93   3 2.93   4 2.93  16 2.93  18 2.93  13 2.93
                             9 2.93
   8  0.333  0.667  0.217-   7 2.93   1 2.93   2 2.93   9 2.93   5 2.93  16 2.93   6 2.93  17 2.93
                            14 2.93
   9  0.667  0.667  0.217-   3 2.93   2 2.93   8 2.93   6 2.93  17 2.93   4 2.93  15 2.93   7 2.93
                            18 2.93
  10  0.111  0.111  0.315-  20 2.91  19 2.92  26 2.92  12 2.93  16 2.93  15 2.93  17 2.93  13 2.93
                            11 2.93   2 2.93   1 2.93   4 2.93
  11  0.444  0.111  0.315-  21 2.91  20 2.91  27 2.92  14 2.93  17 2.93  18 2.93   3 2.93  12 2.93
                            13 2.93  10 2.93   5 2.93   2 2.93
  12  0.778  0.111  0.315-  21 2.91  25 2.92  19 2.92  10 2.93  16 2.93  18 2.93  15 2.93  11 2.93
                             1 2.93  14 2.93   6 2.93   3 2.93
  13  0.111  0.444  0.315-  20 2.91  23 2.91  22 2.92  15 2.93  14 2.93  18 2.93  10 2.93  11 2.93
                            16 2.93   4 2.93   5 2.93   7 2.93
  14  0.444  0.444  0.315-  23 2.91  21 2.91  24 2.92  13 2.93  11 2.93  16 2.93   5 2.93  12 2.93
                            17 2.93   8 2.93  15 2.93   6 2.93
  15  0.778  0.444  0.315-  19 2.92  24 2.92  22 2.92  13 2.93  10 2.93  12 2.93  17 2.93  18 2.93
                             4 2.93   6 2.93   9 2.93  14 2.93
  16  0.111  0.778  0.315-  23 2.91  26 2.92  25 2.92  18 2.93  12 2.93  10 2.93  14 2.93  17 2.93
                            13 2.93   7 2.93   8 2.93   1 2.93
  17  0.444  0.778  0.315-  26 2.92  27 2.92  24 2.92  11 2.93  10 2.93   9 2.93  18 2.93  15 2.93
                            16 2.93   2 2.93  14 2.93   8 2.93
  18  0.778  0.778  0.315-  25 2.92  22 2.92  27 2.92  16 2.93  12 2.93  13 2.93  11 2.93  17 2.93
                            15 2.93   7 2.93   3 2.93   9 2.93
  19  0.889  0.222  0.413-  10 2.92  12 2.92  15 2.92  28 2.92  26 2.93  25 2.93  24 2.93  22 2.93
                            20 2.94  21 2.94  32 2.96  31 2.96
  20  0.223  0.223  0.412-  36 2.82  13 2.91  11 2.91  10 2.91  21 2.92  23 2.92  27 2.93  22 2.93
                            19 2.94  26 2.94  31 2.94  29 2.94
  21  0.555  0.223  0.412-  36 2.82  11 2.91  14 2.91  12 2.91  20 2.92  23 2.92  27 2.93  24 2.93
                            25 2.94  19 2.94  30 2.94  32 2.94
  22  0.889  0.556  0.413-  18 2.92  15 2.92  13 2.92  24 2.93  27 2.93  25 2.93  19 2.93  35 2.93
                            23 2.93  20 2.93  33 2.94  31 2.94
  23  0.223  0.555  0.412-  36 2.82  14 2.91  13 2.91  16 2.91  21 2.92  20 2.92  22 2.93  24 2.93
                            26 2.94  25 2.94  34 2.94  33 2.94
  24  0.556  0.556  0.413-  15 2.92  17 2.92  14 2.92  27 2.93  22 2.93  19 2.93  26 2.93  35 2.93
                            23 2.93  21 2.93  32 2.94  34 2.94
  25  0.889  0.889  0.413-  16 2.92  12 2.92  18 2.92  28 2.92  26 2.93  19 2.93  22 2.93  27 2.93
                            23 2.94  21 2.94  33 2.96  30 2.96
  26  0.222  0.889  0.413-  16 2.92  10 2.92  17 2.92  28 2.92  25 2.93  19 2.93  27 2.93  24 2.93
                            23 2.94  20 2.94  34 2.96  29 2.96
  27  0.556  0.889  0.413-  17 2.92  18 2.92  11 2.92  24 2.93  22 2.93  26 2.93  25 2.93  35 2.93
                            20 2.93  21 2.93  29 2.94  30 2.94
  28  0.000  0.000  0.510-  26 2.92  25 2.92  19 2.92  29 2.95  34 2.95  33 2.95  32 2.95  31 2.95
                            30 2.95
  29  0.334  0.004  0.511-  30 2.89  31 2.90  36 2.90  20 2.94  27 2.94  35 2.95  28 2.95  26 2.96
                            34 3.00
  30  0.662  0.004  0.511-  29 2.89  32 2.90  36 2.90  21 2.94  27 2.94  35 2.95  28 2.95  25 2.96
                            33 3.00
  31  0.004  0.334  0.511-  37 2.06  33 2.89  29 2.90  36 2.90  20 2.94  22 2.94  35 2.95  28 2.95
                            19 2.96  32 3.00
  32  0.662  0.334  0.511-  38 2.06  34 2.89  30 2.90  36 2.90  21 2.94  24 2.94  35 2.95  28 2.95
                            19 2.96  31 3.00
  33  0.004  0.662  0.511-  37 2.35  31 2.89  34 2.90  36 2.90  23 2.94  22 2.94  35 2.95  28 2.95
                            25 2.96  30 3.00
  34  0.334  0.662  0.511-  38 2.35  32 2.89  33 2.90  36 2.90  23 2.94  24 2.94  35 2.95  28 2.95
                            26 2.96  29 3.00
  35  0.667  0.667  0.511-  24 2.93  27 2.93  22 2.93  30 2.95  32 2.95  29 2.95  34 2.95  31 2.95
                            33 2.95
  36  0.333  0.333  0.505-  37 1.80  38 1.80  21 2.82  20 2.82  23 2.82  31 2.90  33 2.90  30 2.90
                            29 2.90  34 2.90  32 2.90
  37  0.166  0.392  0.556-  36 1.80  31 2.06  33 2.35
  38  0.442  0.392  0.556-  36 1.80  32 2.06  34 2.35
 
  LATTYP: Found a hexagonal cell.
 ALAT       =     8.7913665772
 C/A-ratio  =     2.7711238095
  
  Lattice vectors:
  
 A1 = (  -4.3956832886,  -7.6135467898,   0.0000000000)
 A2 = (   8.7913665771,   0.0000000000,   0.0000000000)
 A3 = (   0.0000000000,   0.0000000000,  24.3619652401)


Analysis of symmetry for initial positions (statically):
=====================================================================
 Subroutine PRICEL returns:
 Original cell was already a primitive cell.
 

 Routine SETGRP: Setting up the symmetry group for a 
 hexagonal supercell.


 Subroutine GETGRP returns: Found  2 space group operations
 (whereof  2 operations were pure point group operations)
 out of a pool of 24 trial point group operations.


The static configuration has the point symmetry C_1h.


Analysis of symmetry for dynamics (positions and initial velocities):
=====================================================================
 Subroutine PRICEL returns:
 Original cell was already a primitive cell.
 

 Routine SETGRP: Setting up the symmetry group for a 
 hexagonal supercell.


 Subroutine GETGRP returns: Found  2 space group operations
 (whereof  2 operations were pure point group operations)
 out of a pool of 24 trial point group operations.


The dynamic configuration has the point symmetry C_1h.


Analysis of constrained symmetry for selective dynamics:
=====================================================================
 Subroutine PRICEL returns:
 Original cell was already a primitive cell.
 

 Routine SETGRP: Setting up the symmetry group for a 
 hexagonal supercell.


 Subroutine GETGRP returns: Found  2 space group operations
 (whereof  2 operations were pure point group operations)
 out of a pool of 24 trial point group operations.


The constrained configuration has the point symmetry C_1h.


 Subroutine INISYM returns: Found  2 space group operations
 (whereof  2 operations are pure point group operations),
 and found     1 'primitive' translations


----------------------------------------------------------------------------------------

                                     Primitive cell                                     

  volume of cell :    1630.6311

  direct lattice vectors                    reciprocal lattice vectors
     8.791366577  0.000000000  0.000000000     0.113747958 -0.065672414  0.000000000
     4.395683289  7.613546790  0.000000000     0.000000000  0.131344829  0.000000000
     0.000000000  0.000000000 24.361965240     0.000000000  0.000000000  0.041047592

  length of vectors
     8.791366577  8.791366577 24.361965240     0.131344829  0.131344829  0.041047592

  position of ions in fractional coordinates (direct lattice)
     0.000000000  0.000000000  0.216821102
     0.333333313  0.000000000  0.216821102
     0.666666627  0.000000000  0.216821102
     1.000000000  0.333333343  0.216821102
     0.333333313  0.333333343  0.216821102
     0.666666687  0.333333343  0.216821102
     1.000000000  0.666666687  0.216821102
     0.333333313  0.666666687  0.216821102
     0.666666627  0.666666687  0.216821102
     0.111111104  0.111111112  0.315035970
     0.444444448  0.111111112  0.315035970
     0.777777791  0.111111112  0.315035970
     0.111111097  0.444444448  0.315035970
     0.444444418  0.444444448  0.315035970
     0.777777791  0.444444448  0.315035970
     0.111111104  0.777777791  0.315035970
     0.444444448  0.777777791  0.315035970
     0.777777791  0.777777791  0.315035970
     0.888965348  0.222069319  0.412587630
     0.222608922  0.222608937  0.412157002
     0.554782097  0.222608937  0.412157002
     0.888549089  0.555725486  0.412834109
     0.222608937  0.554782157  0.412157002
     0.555725486  0.555725486  0.412834109
     0.888965348  0.888965348  0.412587630
     0.222069289  0.888965348  0.412587630
     0.555725426  0.888549089  0.412834109
     0.000000000  0.000000000  0.510391242
     0.333630460  0.003871759  0.511419003
     0.662497721  0.003871759  0.511419003
     0.003871759  0.333630490  0.511419003
     0.662497781  0.333630490  0.511419003
     0.003871759  0.662497781  0.511419003
     0.333630460  0.662497781  0.511419003
     0.666666627  0.666666687  0.511218239
     0.333333313  0.333333343  0.504979628
     0.165979399  0.391902975  0.556403424
     0.442117596  0.391902975  0.556403424

  ion indices of the primitive-cell ions
   primitive index   ion index
                 1           1
                 2           2
                 3           3
                 4           4
                 5           5
                 6           6
                 7           7
                 8           8
                 9           9
                10          10
                11          11
                12          12
                13          13
                14          14
                15          15
                16          16
                17          17
                18          18
                19          19
                20          20
                21          21
                22          22
                23          23
                24          24
                25          25
                26          26
                27          27
                28          28
                29          29
                30          30
                31          31
                32          32
                33          33
                34          34
                35          35
                36          36
                37          37
                38          38

----------------------------------------------------------------------------------------

 
 
 KPOINTS: Automatic mesh                          

Automatic generation of k-mesh.
 Grid dimensions read from file:
 generate k-points for:    8    8    1

 Generating k-lattice:

  Cartesian coordinates                     Fractional coordinates (reciprocal lattice)
     0.014218495 -0.008209052  0.000000000     0.125000000 -0.000000000  0.000000000
     0.000000000  0.016418104  0.000000000     0.000000000  0.125000000  0.000000000
     0.000000000  0.000000000  0.041047592     0.000000000  0.000000000  1.000000000

  Length of vectors
     0.016418104  0.016418104  0.041047592

  Shift w.r.t. Gamma in fractional coordinates (k-lattice)
     0.000000000  0.000000000  0.000000000

 TETIRR: Found    100 inequivalent tetrahedra from      384
 
 Subroutine IBZKPT returns following result:
 ===========================================
 
 Found     21 irreducible k-points:
 
 Following reciprocal coordinates:
            Coordinates               Weight
  0.000000  0.000000  0.000000      1.000000
  0.125000  0.000000  0.000000      4.000000
  0.000000  0.125000  0.000000      2.000000
  0.250000  0.000000  0.000000      4.000000
  0.000000  0.250000  0.000000      2.000000
  0.375000 -0.000000  0.000000      4.000000
  0.000000  0.375000  0.000000      2.000000
  0.500000  0.000000  0.000000      2.000000
  0.000000  0.500000  0.000000      1.000000
  0.250000  0.125000  0.000000      2.000000
  0.125000  0.250000  0.000000      4.000000
  0.375000  0.125000  0.000000      4.000000
  0.250000  0.375000  0.000000      4.000000
 -0.125000  0.250000  0.000000      4.000000
  0.500000  0.125000  0.000000      4.000000
  0.375000  0.500000  0.000000      4.000000
 -0.125000  0.375000  0.000000      4.000000
  0.500000  0.250000  0.000000      2.000000
  0.250000  0.500000  0.000000      4.000000
 -0.375000  0.250000  0.000000      4.000000
 -0.250000  0.375000  0.000000      2.000000
 
 Following cartesian coordinates:
            Coordinates               Weight
  0.000000  0.000000  0.000000      1.000000
  0.014218 -0.008209  0.000000      4.000000
  0.000000  0.016418  0.000000      2.000000
  0.028437 -0.016418  0.000000      4.000000
  0.000000  0.032836  0.000000      2.000000
  0.042655 -0.024627  0.000000      4.000000
  0.000000  0.049254  0.000000      2.000000
  0.056874 -0.032836  0.000000      2.000000
  0.000000  0.065672  0.000000      1.000000
  0.028437 -0.000000  0.000000      2.000000
  0.014218  0.024627  0.000000      4.000000
  0.042655 -0.008209  0.000000      4.000000
  0.028437  0.032836  0.000000      4.000000
 -0.014218  0.041045  0.000000      4.000000
  0.056874 -0.016418  0.000000      4.000000
  0.042655  0.041045  0.000000      4.000000
 -0.014218  0.057463  0.000000      4.000000
  0.056874 -0.000000  0.000000      2.000000
  0.028437  0.049254  0.000000      4.000000
 -0.042655  0.057463  0.000000      4.000000
 -0.028437  0.065672  0.000000      2.000000
 


--------------------------------------------------------------------------------------------------------




 Dimension of arrays:
   k-points           NKPTS =     21   k-points in BZ     NKDIM =     21   number of bands    NBANDS=    252
   number of dos      NEDOS =    301   number of ions     NIONS =     38
   non local maximal  LDIM  =      6   non local SUM 2l+1 LMDIM =     18
   total plane-waves  NPLWV = 322560
   max r-space proj   IRMAX =   3221   max aug-charges    IRDMAX=  13860
   dimension x,y,z NGX =    48 NGY =   48 NGZ =  140
   dimension x,y,z NGXF=    96 NGYF=   96 NGZF=  280
   support grid    NGXF=    96 NGYF=   96 NGZF=  280
   ions per type =              35   1   2
   NGX,Y,Z   is equivalent  to a cutoff of   9.08,  9.08,  9.55 a.u.
   NGXF,Y,Z  is equivalent  to a cutoff of  18.15, 18.15, 19.11 a.u.

 SYSTEM =  unknown system                          
 POSCAR =  Ag-Ti-O2                                

 Startparameter for this run:
   NWRITE =      2    write-flag & timer
   PREC   = normal    normal or accurate (medium, high low for compatibility)
   ISTART =      0    job   : 0-new  1-cont  2-samecut
   ICHARG =     11    charge: 1-file 2-atom 10-const
   ISPIN  =      1    spin polarized calculation?
   LNONCOLLINEAR =      F non collinear calculations
   LSORBIT =      F    spin-orbit coupling
   INIWAV =      1    electr: 0-lowe 1-rand  2-diag
   LASPH  =      F    aspherical Exc in radial PAW
   METAGGA=      F    non-selfconsistent MetaGGA calc.

 Electronic Relaxation 1
   ENCUT  =  500.0 eV  36.75 Ry    6.06 a.u.  16.03 16.03 44.42*2*pi/ulx,y,z
   ENINI  =  500.0     initial cutoff
   ENAUG  =  605.4 eV  augmentation charge cutoff
   NELM   =    150;   NELMIN=  2; NELMDL= -5     # of ELM steps 
   EDIFF  = 0.1E-04   stopping-criterion for ELM
   LREAL  =      T    real-space projection
   NLSPLINE    = F    spline interpolate recip. space projectors
   LCOMPAT=      F    compatible to vasp.4.4
   GGA_COMPAT  = T    GGA compatible to vasp.4.4-vasp.4.6
   LMAXPAW     = -100 max onsite density
   LMAXMIX     =    2 max onsite mixed and CHGCAR
   VOSKOWN=      0    Vosko Wilk Nusair interpolation
   ROPT   =   -0.00050  -0.00050  -0.00050
 Ionic relaxation
   EDIFFG = -.1E-01   stopping-criterion for IOM
   NSW    =      0    number of steps for IOM
   NBLOCK =      1;   KBLOCK =      1    inner block; outer block 
   IBRION =     -1    ionic relax: 0-MD 1-quasi-New 2-CG
   NFREE  =      1    steps in history (QN), initial steepest desc. (CG)
   ISIF   =      2    stress and relaxation
   IWAVPR =     10    prediction:  0-non 1-charg 2-wave 3-comb
   ISYM   =      2    0-nonsym 1-usesym 2-fastsym
   LCORR  =      T    Harris-Foulkes like correction to forces

   POTIM  = 0.5000    time-step for ionic-motion
   TEIN   =    0.0    initial temperature
   TEBEG  =    0.0;   TEEND  =   0.0 temperature during run
   SMASS  =  -3.00    Nose mass-parameter (am)
   estimated Nose-frequenzy (Omega)   =  0.10E-29 period in steps = 0.13E+47 mass=  -0.177E-26a.u.
   SCALEE = 1.0000    scale energy and forces
   NPACO  =    256;   APACO  = 16.0  distance and # of slots for P.C.
   PSTRESS=    0.0 pullay stress

  Mass of Ions in am
   POMASS = 107.87 47.88 16.00
  Ionic Valenz
   ZVAL   =  11.00  4.00  6.00
  Atomic Wigner-Seitz radii
   RWIGS  =  -1.00 -1.00 -1.00
  virtual crystal weights 
   VCA    =   1.00  1.00  1.00
   NELECT =     401.0000    total number of electrons
   NUPDOWN=      -1.0000    fix difference up-down

 DOS related values:
   EMIN   =  10.00;   EMAX   =-10.00  energy-range for DOS
   EFERMI =   0.00
   ISMEAR =    -5;   SIGMA  =   0.10  broadening in eV -4-tet -1-fermi 0-gaus

 Electronic relaxation 2 (details)
   IALGO  =     68    algorithm
   LDIAG  =      T    sub-space diagonalisation (order eigenvalues)
   LSUBROT=      F    optimize rotation matrix (better conditioning)
   TURBO    =      0    0=normal 1=particle mesh
   IRESTART =      0    0=no restart 2=restart with 2 vectors
   NREBOOT  =      0    no. of reboots
   NMIN     =      0    reboot dimension
   EREF     =   0.00    reference energy to select bands
   IMIX   =      4    mixing-type and parameters
     AMIX     =   0.40;   BMIX     =  1.00
     AMIX_MAG =   1.60;   BMIX_MAG =  1.00
     AMIN     =   0.10
     WC   =   100.;   INIMIX=   1;  MIXPRE=   1;  MAXMIX= -45

 Intra band minimization:
   WEIMIN = 0.0000     energy-eigenvalue tresh-hold
   EBREAK =  0.99E-08  absolut break condition
   DEPER  =   0.30     relativ break condition  

   TIME   =   0.40     timestep for ELM

  volume/ion in A,a.u.               =      42.91       289.58
  Fermi-wavevector in a.u.,A,eV,Ry     =   1.025662  1.938221 14.313099  1.051983
  Thomas-Fermi vector in A             =   2.159514
 
 Write flags
   LWAVE        =      F    write WAVECAR
   LDOWNSAMPLE  =      F    k-point downsampling of WAVECAR
   LCHARG       =      F    write CHGCAR
   LVTOT        =      F    write LOCPOT, total local potential
   LVHAR        =      F    write LOCPOT, Hartree potential only
   LELF         =      F    write electronic localiz. function (ELF)
   LORBIT       =     10    0 simple, 1 ext, 2 COOP (PROOUT), +10 PAW based schemes


 Dipole corrections
   LMONO  =      F    monopole corrections only (constant potential shift)
   LDIPOL =      F    correct potential (dipole corrections)
   IDIPOL =      0    1-x, 2-y, 3-z, 4-all directions 
   EPSILON=  1.0000000 bulk dielectric constant

 Exchange correlation treatment:
   GGA     =    --    GGA type
   LEXCH   =     8    internal setting for exchange type
   VOSKOWN=      0    Vosko Wilk Nusair interpolation
   LHFCALC =     F    Hartree Fock is set to
   LHFONE  =     F    Hartree Fock one center treatment
   AEXX    =    0.0000 exact exchange contribution

 Linear response parameters
   LEPSILON=     F    determine dielectric tensor
   LRPA    =     F    only Hartree local field effects (RPA)
   LNABLA  =     F    use nabla operator in PAW spheres
   LVEL    =     F    velocity operator in full k-point grid
   LINTERFAST=   F  fast interpolation
   KINTER  =     0    interpolate to denser k-point grid
   CSHIFT  =0.1000    complex shift for real part using Kramers Kronig
   OMEGAMAX=  -1.0    maximum frequency
   DEG_THRESHOLD= 0.2000000E-02 threshold for treating states as degnerate
   RTIME   =   -0.100 relaxation time in fs
  (WPLASMAI=    0.000 imaginary part of plasma frequency in eV, 0.658/RTIME)
   DFIELD  = 0.0000000 0.0000000 0.0000000 field for delta impulse in time
 
 Orbital magnetization related:
   ORBITALMAG=     F  switch on orbital magnetization
   LCHIMAG   =     F  perturbation theory with respect to B field
   DQ        =  0.001000  dq finite difference perturbation B field
   LLRAUG    =     F  two centre corrections for induced B field



--------------------------------------------------------------------------------------------------------


 Static calculation
 charge density and potential remain constant during run
 non-spin polarized calculation
 RMM-DIIS sequential band-by-band and
  variant of blocked Davidson during initial phase
 perform sub-space diagonalisation
    before iterative eigenvector-optimisation
 no mixing
 using additional bands           51
 real space projection scheme for non local part
 use partial core corrections
 calculate Harris-corrections to forces 
   (improved forces if not selfconsistent)
 use gradient corrections 
 WARNING: stress and forces are not correct
  (second derivative of E(xc) not defined)
 use of overlap-Matrix (Vanderbilt PP)
 Fermi weights with tetrahedron method with Bloechl corrections


--------------------------------------------------------------------------------------------------------


  energy-cutoff  :      500.00
  volume of cell :     1630.63
      direct lattice vectors                 reciprocal lattice vectors
     8.791366577  0.000000000  0.000000000     0.113747958 -0.065672414  0.000000000
     4.395683289  7.613546790  0.000000000     0.000000000  0.131344829  0.000000000
     0.000000000  0.000000000 24.361965240     0.000000000  0.000000000  0.041047592

  length of vectors
     8.791366577  8.791366577 24.361965240     0.131344829  0.131344829  0.041047592


 
 k-points in units of 2pi/SCALE and weight: Automatic mesh                          
   0.00000000  0.00000000  0.00000000       0.016
   0.01421849 -0.00820905  0.00000000       0.062
   0.00000000  0.01641810  0.00000000       0.031
   0.02843699 -0.01641810  0.00000000       0.062
   0.00000000  0.03283621  0.00000000       0.031
   0.04265548 -0.02462716  0.00000000       0.062
   0.00000000  0.04925431  0.00000000       0.031
   0.05687398 -0.03283621  0.00000000       0.031
   0.00000000  0.06567241  0.00000000       0.016
   0.02843699 -0.00000000  0.00000000       0.031
   0.01421849  0.02462716  0.00000000       0.062
   0.04265548 -0.00820905  0.00000000       0.062
   0.02843699  0.03283621  0.00000000       0.062
  -0.01421849  0.04104526  0.00000000       0.062
   0.05687398 -0.01641810  0.00000000       0.062
   0.04265548  0.04104526  0.00000000       0.062
  -0.01421849  0.05746336  0.00000000       0.062
   0.05687398 -0.00000000  0.00000000       0.031
   0.02843699  0.04925431  0.00000000       0.062
  -0.04265548  0.05746336  0.00000000       0.062
  -0.02843699  0.06567241  0.00000000       0.031
 
 k-points in reciprocal lattice and weights: Automatic mesh                          
   0.00000000  0.00000000  0.00000000       0.016
   0.12500000  0.00000000  0.00000000       0.062
   0.00000000  0.12500000  0.00000000       0.031
   0.25000000  0.00000000  0.00000000       0.062
   0.00000000  0.25000000  0.00000000       0.031
   0.37500000 -0.00000000  0.00000000       0.062
   0.00000000  0.37500000  0.00000000       0.031
   0.50000000  0.00000000  0.00000000       0.031
   0.00000000  0.50000000  0.00000000       0.016
   0.25000000  0.12500000  0.00000000       0.031
   0.12500000  0.25000000  0.00000000       0.062
   0.37500000  0.12500000  0.00000000       0.062
   0.25000000  0.37500000  0.00000000       0.062
  -0.12500000  0.25000000  0.00000000       0.062
   0.50000000  0.12500000  0.00000000       0.062
   0.37500000  0.50000000  0.00000000       0.062
  -0.12500000  0.37500000  0.00000000       0.062
   0.50000000  0.25000000  0.00000000       0.031
   0.25000000  0.50000000  0.00000000       0.062
  -0.37500000  0.25000000  0.00000000       0.062
  -0.25000000  0.37500000  0.00000000       0.031
 
 position of ions in fractional coordinates (direct lattice) 
   0.00000000  0.00000000  0.21682110
   0.33333331  0.00000000  0.21682110
   0.66666663  0.00000000  0.21682110
   0.00000000  0.33333334  0.21682110
   0.33333331  0.33333334  0.21682110
   0.66666669  0.33333334  0.21682110
   0.00000000  0.66666669  0.21682110
   0.33333331  0.66666669  0.21682110
   0.66666663  0.66666669  0.21682110
   0.11111110  0.11111111  0.31503597
   0.44444445  0.11111111  0.31503597
   0.77777779  0.11111111  0.31503597
   0.11111110  0.44444445  0.31503597
   0.44444442  0.44444445  0.31503597
   0.77777779  0.44444445  0.31503597
   0.11111110  0.77777779  0.31503597
   0.44444445  0.77777779  0.31503597
   0.77777779  0.77777779  0.31503597
   0.88896535  0.22206932  0.41258763
   0.22260892  0.22260894  0.41215700
   0.55478210  0.22260894  0.41215700
   0.88854909  0.55572549  0.41283411
   0.22260894  0.55478216  0.41215700
   0.55572549  0.55572549  0.41283411
   0.88896535  0.88896535  0.41258763
   0.22206929  0.88896535  0.41258763
   0.55572543  0.88854909  0.41283411
   0.00000000  0.00000000  0.51039124
   0.33363046  0.00387176  0.51141900
   0.66249772  0.00387176  0.51141900
   0.00387176  0.33363049  0.51141900
   0.66249778  0.33363049  0.51141900
   0.00387176  0.66249778  0.51141900
   0.33363046  0.66249778  0.51141900
   0.66666663  0.66666669  0.51121824
   0.33333331  0.33333334  0.50497963
   0.16597940  0.39190297  0.55640342
   0.44211760  0.39190297  0.55640342
 
 position of ions in cartesian coordinates  (Angst):
   0.00000000  0.00000000  5.28218814
   2.93045535  0.00000000  5.28218814
   5.86091070  0.00000000  5.28218814
   1.46522781  2.53784900  5.28218814
   4.39568315  2.53784900  5.28218814
   7.32613904  2.53784900  5.28218814
   2.93045562  5.07569801  5.28218814
   5.86091096  5.07569801  5.28218814
   8.79136632  5.07569801  5.28218814
   1.46522770  0.84594965  7.67489535
   4.39568332  0.84594965  7.67489535
   7.32613893  0.84594965  7.67489535
   2.93045542  3.38379860  7.67489535
   5.86091083  3.38379860  7.67489535
   8.79136671  3.38379860  7.67489535
   4.39568328  5.92164760  7.67489535
   7.32613890  5.92164760  7.67489535
  10.25659451  5.92164760  7.67489535
   8.79136665  1.69073515 10.05144549
   2.93555502  1.69484356 10.04095455
   5.85581116  1.69484356 10.04095455
  10.25435399  4.23104199 10.05745020
   4.39568342  4.22385991 10.04095455
   7.32837969  4.23104199 10.05745020
  11.72283038  6.76817927 10.05144549
   5.85990265  6.76817927 10.05144549
   8.79136631  6.76501006 10.05745020
   0.00000000  0.00000000 12.43413371
   2.95008670  0.02947782 12.45917197
   5.84127935  0.02947782 12.45917197
   1.50057202  2.54011134 12.45917197
   7.29079482  2.54011134 12.45917197
   2.94616848  5.04395785 12.45917197
   5.84519810  5.04395785 12.45917197
   8.79136632  5.07569801 12.45428096
   4.39568315  2.53784900 12.30229615
   3.18186709  2.98377163 13.55508088
   5.60949921  2.98377163 13.55508088
 


--------------------------------------------------------------------------------------------------------


 k-point   1 :   0.0000 0.0000 0.0000  plane waves:   41267
 k-point   2 :   0.1250 0.0000 0.0000  plane waves:   41346
 k-point   3 :   0.0000 0.1250 0.0000  plane waves:   41346
 k-point   4 :   0.2500 0.0000 0.0000  plane waves:   41360
 k-point   5 :   0.0000 0.2500 0.0000  plane waves:   41360
 k-point   6 :   0.3750-0.0000 0.0000  plane waves:   41412
 k-point   7 :   0.0000 0.3750 0.0000  plane waves:   41412
 k-point   8 :   0.5000 0.0000 0.0000  plane waves:   41412
 k-point   9 :   0.0000 0.5000 0.0000  plane waves:   41412
 k-point  10 :   0.2500 0.1250 0.0000  plane waves:   41336
 k-point  11 :   0.1250 0.2500 0.0000  plane waves:   41336
 k-point  12 :   0.3750 0.1250 0.0000  plane waves:   41420
 k-point  13 :   0.2500 0.3750 0.0000  plane waves:   41420
 k-point  14 :  -0.1250 0.2500 0.0000  plane waves:   41420
 k-point  15 :   0.5000 0.1250 0.0000  plane waves:   41406
 k-point  16 :   0.3750 0.5000 0.0000  plane waves:   41406
 k-point  17 :  -0.1250 0.3750 0.0000  plane waves:   41406
 k-point  18 :   0.5000 0.2500 0.0000  plane waves:   41444
 k-point  19 :   0.2500 0.5000 0.0000  plane waves:   41444
 k-point  20 :  -0.3750 0.2500 0.0000  plane waves:   41438
 k-point  21 :  -0.2500 0.3750 0.0000  plane waves:   41438

 maximum and minimum number of plane-waves per node :     41444    41267

 maximum number of plane-waves:     41444
 maximum index in each direction: 
   IXMAX=   16   IYMAX=   16   IZMAX=   44
   IXMIN=  -16   IYMIN=  -16   IZMIN=  -44


 serial   3D FFT for wavefunctions
 parallel 3D FFT for charge:
    minimum data exchange during FFTs selected (reduces bandwidth)


 total amount of memory used by VASP MPI-rank0   198353. kBytes
=======================================================================

   base      :      30000. kBytes
   nonlr-proj:      15667. kBytes
   fftplans  :       4808. kBytes
   grid      :      19857. kBytes
   one-center:        590. kBytes
   wavefun   :     127431. kBytes
 
     INWAV:  cpu time    0.0000: real time    0.0001
 initial charge density was supplied:
 number of electron     401.0000079 magnetization 
 keeping initial charge density in first step


--------------------------------------------------------------------------------------------------------


 Maximum index for non-local projection operator         3054
 Maximum index for augmentation-charges          717 (set IRDMAX)


--------------------------------------------------------------------------------------------------------


 First call to EWALD:  gamma=   0.151
 Maximum number of real-space cells 4x 4x 2
 Maximum number of reciprocal cells 2x 2x 5

    FEWALD:  cpu time    0.0013: real time    0.0013


--------------------------------------- Iteration      1(   1)  ---------------------------------------


    POTLOK:  cpu time    0.0491: real time    0.0495
    SETDIJ:  cpu time    0.0050: real time    0.0051
     EDDAV:  cpu time   16.4839: real time   16.4863
 BZINTS: Fermi energy:    9.156514;  401.000000 electrons
         Band energy: 0.100034E+04;  BLOECHL correction:   -0.021384
       DOS:  cpu time    0.0304: real time    0.0304
    --------------------------------------------
      LOOP:  cpu time   16.5684: real time   16.5714

 eigenvalue-minimisations  : 10584
 total energy-change (2. order) : 0.2489022E+04  (-0.1824230E+05)
 number of electron     401.0000079 magnetization 
 augmentation part      401.0000079 magnetization 

 Free energy of the ion-electron system (eV)
  ---------------------------------------------------
  alpha Z        PSCENC =       698.60340641
  Ewald energy   TEWEN  =    130593.87759674
  -Hartree energ DENC   =   -168270.31672472
  -exchange      EXHF   =         0.00000000
  -V(xc)+E(xc)   XCENC  =      -368.53081153
  PAW double counting   =     39816.09345713   -38244.73192938
  entropy T*S    EENTRO =         0.00000000
  eigenvalues    EBANDS =      1000.34052542
  atomic energy  EATOM  =     37263.68633953
  Solvation  Ediel_sol  =         0.00000000
  ---------------------------------------------------
  free energy    TOTEN  =      2489.02185961 eV

  energy without entropy =     2489.02185961  energy(sigma->0) =     2489.02185961


--------------------------------------------------------------------------------------------------------




--------------------------------------- Iteration      1(   2)  ---------------------------------------


     EDDAV:  cpu time   17.2227: real time   17.2238
 BZINTS: Fermi energy:    0.877641;  401.000000 electrons
         Band energy:-0.148798E+04;  BLOECHL correction:   -0.036230
       DOS:  cpu time    0.0289: real time    0.0289
    --------------------------------------------
      LOOP:  cpu time   17.2516: real time   17.2527

 eigenvalue-minimisations  : 11172
 total energy-change (2. order) :-0.2488317E+04  (-0.2367949E+04)
 number of electron     401.0000079 magnetization 
 augmentation part      401.0000079 magnetization 

 Free energy of the ion-electron system (eV)
  ---------------------------------------------------
  alpha Z        PSCENC =       698.60340641
  Ewald energy   TEWEN  =    130593.87759674
  -Hartree energ DENC   =   -168270.31672472
  -exchange      EXHF   =         0.00000000
  -V(xc)+E(xc)   XCENC  =      -368.53081153
  PAW double counting   =     39816.09345713   -38244.73192938
  entropy T*S    EENTRO =         0.00000000
  eigenvalues    EBANDS =     -1487.97690791
  atomic energy  EATOM  =     37263.68633953
  Solvation  Ediel_sol  =         0.00000000
  ---------------------------------------------------
  free energy    TOTEN  =         0.70442627 eV

  energy without entropy =        0.70442627  energy(sigma->0) =        0.70442627


--------------------------------------------------------------------------------------------------------




--------------------------------------- Iteration      1(   3)  ---------------------------------------


     EDDAV:  cpu time   18.8961: real time   18.8990
 BZINTS: Fermi energy:    0.285481;  401.000000 electrons
         Band energy:-0.159718E+04;  BLOECHL correction:   -0.034714
       DOS:  cpu time    0.0291: real time    0.0291
    --------------------------------------------
      LOOP:  cpu time   18.9252: real time   18.9281

 eigenvalue-minimisations  : 12488
 total energy-change (2. order) :-0.1092030E+03  (-0.1060727E+03)
 number of electron     401.0000079 magnetization 
 augmentation part      401.0000079 magnetization 

 Free energy of the ion-electron system (eV)
  ---------------------------------------------------
  alpha Z        PSCENC =       698.60340641
  Ewald energy   TEWEN  =    130593.87759674
  -Hartree energ DENC   =   -168270.31672472
  -exchange      EXHF   =         0.00000000
  -V(xc)+E(xc)   XCENC  =      -368.53081153
  PAW double counting   =     39816.09345713   -38244.73192938
  entropy T*S    EENTRO =         0.00000000
  eigenvalues    EBANDS =     -1597.17990056
  atomic energy  EATOM  =     37263.68633953
  Solvation  Ediel_sol  =         0.00000000
  ---------------------------------------------------
  free energy    TOTEN  =      -108.49856637 eV

  energy without entropy =     -108.49856637  energy(sigma->0) =     -108.49856637


--------------------------------------------------------------------------------------------------------




--------------------------------------- Iteration      1(   4)  ---------------------------------------


     EDDAV:  cpu time   17.5487: real time   17.5496
 BZINTS: Fermi energy:    0.266841;  401.000000 electrons
         Band energy:-0.159975E+04;  BLOECHL correction:   -0.036270
       DOS:  cpu time    0.0286: real time    0.0286
    --------------------------------------------
      LOOP:  cpu time   17.5774: real time   17.5782

 eigenvalue-minimisations  : 11424
 total energy-change (2. order) :-0.2573039E+01  (-0.2565669E+01)
 number of electron     401.0000079 magnetization 
 augmentation part      401.0000079 magnetization 

 Free energy of the ion-electron system (eV)
  ---------------------------------------------------
  alpha Z        PSCENC =       698.60340641
  Ewald energy   TEWEN  =    130593.87759674
  -Hartree energ DENC   =   -168270.31672472
  -exchange      EXHF   =         0.00000000
  -V(xc)+E(xc)   XCENC  =      -368.53081153
  PAW double counting   =     39816.09345713   -38244.73192938
  entropy T*S    EENTRO =         0.00000000
  eigenvalues    EBANDS =     -1599.75293966
  atomic energy  EATOM  =     37263.68633953
  Solvation  Ediel_sol  =         0.00000000
  ---------------------------------------------------
  free energy    TOTEN  =      -111.07160547 eV

  energy without entropy =     -111.07160547  energy(sigma->0) =     -111.07160547


--------------------------------------------------------------------------------------------------------




--------------------------------------- Iteration      1(   5)  ---------------------------------------


     EDDAV:  cpu time   20.0456: real time   20.0468
 BZINTS: Fermi energy:    0.266619;  401.000000 electrons
         Band energy:-0.159980E+04;  BLOECHL correction:   -0.036288
       DOS:  cpu time    0.0292: real time    0.0292
    --------------------------------------------
      LOOP:  cpu time   20.0748: real time   20.0759

 eigenvalue-minimisations  : 13384
 total energy-change (2. order) :-0.4586621E-01  (-0.4585428E-01)
 number of electron     401.0000079 magnetization 
 augmentation part      401.0000079 magnetization 

 Free energy of the ion-electron system (eV)
  ---------------------------------------------------
  alpha Z        PSCENC =       698.60340641
  Ewald energy   TEWEN  =    130593.87759674
  -Hartree energ DENC   =   -168270.31672472
  -exchange      EXHF   =         0.00000000
  -V(xc)+E(xc)   XCENC  =      -368.53081153
  PAW double counting   =     39816.09345713   -38244.73192938
  entropy T*S    EENTRO =         0.00000000
  eigenvalues    EBANDS =     -1599.79880586
  atomic energy  EATOM  =     37263.68633953
  Solvation  Ediel_sol  =         0.00000000
  ---------------------------------------------------
  free energy    TOTEN  =      -111.11747168 eV

  energy without entropy =     -111.11747168  energy(sigma->0) =     -111.11747168


--------------------------------------------------------------------------------------------------------




--------------------------------------- Iteration      1(   6)  ---------------------------------------


    EDDIAG:  cpu time    3.2470: real time    3.2474
  RMM-DIIS:  cpu time    9.2346: real time    9.2350
    ORTHCH:  cpu time    0.5882: real time    0.5882
 BZINTS: Fermi energy:    0.266617;  401.000000 electrons
         Band energy:-0.159980E+04;  BLOECHL correction:   -0.036288
       DOS:  cpu time    0.0285: real time    0.0285
    --------------------------------------------
      LOOP:  cpu time   13.0982: real time   13.0991

 eigenvalue-minimisations  : 10664
 total energy-change (2. order) :-0.9192889E-03  (-0.9191740E-03)
 number of electron     401.0000079 magnetization 
 augmentation part      401.0000079 magnetization 

 Free energy of the ion-electron system (eV)
  ---------------------------------------------------
  alpha Z        PSCENC =       698.60340641
  Ewald energy   TEWEN  =    130593.87759674
  -Hartree energ DENC   =   -168270.31672472
  -exchange      EXHF   =         0.00000000
  -V(xc)+E(xc)   XCENC  =      -368.53081153
  PAW double counting   =     39816.09345713   -38244.73192938
  entropy T*S    EENTRO =         0.00000000
  eigenvalues    EBANDS =     -1599.79972515
  atomic energy  EATOM  =     37263.68633953
  Solvation  Ediel_sol  =         0.00000000
  ---------------------------------------------------
  free energy    TOTEN  =      -111.11839097 eV

  energy without entropy =     -111.11839097  energy(sigma->0) =     -111.11839097


--------------------------------------------------------------------------------------------------------




--------------------------------------- Iteration      1(   7)  ---------------------------------------


    EDDIAG:  cpu time    3.2495: real time    3.2496
  RMM-DIIS:  cpu time   12.9093: real time   12.9099
    ORTHCH:  cpu time    0.5872: real time    0.5872
 BZINTS: Fermi energy:    0.266617;  401.000000 electrons
         Band energy:-0.159980E+04;  BLOECHL correction:   -0.036288
       DOS:  cpu time    0.0292: real time    0.0292
    --------------------------------------------
      LOOP:  cpu time   16.7752: real time   16.7760

 eigenvalue-minimisations  : 14989
 total energy-change (2. order) :-0.3018797E-03  (-0.3015589E-03)
 number of electron     401.0000079 magnetization 
 augmentation part      401.0000079 magnetization 

 Free energy of the ion-electron system (eV)
  ---------------------------------------------------
  alpha Z        PSCENC =       698.60340641
  Ewald energy   TEWEN  =    130593.87759674
  -Hartree energ DENC   =   -168270.31672472
  -exchange      EXHF   =         0.00000000
  -V(xc)+E(xc)   XCENC  =      -368.53081153
  PAW double counting   =     39816.09345713   -38244.73192938
  entropy T*S    EENTRO =         0.00000000
  eigenvalues    EBANDS =     -1599.80002703
  atomic energy  EATOM  =     37263.68633953
  Solvation  Ediel_sol  =         0.00000000
  ---------------------------------------------------
  free energy    TOTEN  =      -111.11869285 eV

  energy without entropy =     -111.11869285  energy(sigma->0) =     -111.11869285


--------------------------------------------------------------------------------------------------------




--------------------------------------- Iteration      1(   8)  ---------------------------------------


    EDDIAG:  cpu time    3.2452: real time    3.2454
  RMM-DIIS:  cpu time    9.6785: real time    9.6789
    ORTHCH:  cpu time    0.5874: real time    0.5875
 BZINTS: Fermi energy:    0.266617;  401.000000 electrons
         Band energy:-0.159980E+04;  BLOECHL correction:   -0.036288
       DOS:  cpu time    0.0247: real time    0.0247
    --------------------------------------------
      LOOP:  cpu time   13.5358: real time   13.5365

 eigenvalue-minimisations  : 10240
 total energy-change (2. order) :-0.1907456E-04  (-0.1955335E-04)
 number of electron     401.0000079 magnetization 
 augmentation part      401.0000079 magnetization 

 Free energy of the ion-electron system (eV)
  ---------------------------------------------------
  alpha Z        PSCENC =       698.60340641
  Ewald energy   TEWEN  =    130593.87759674
  -Hartree energ DENC   =   -168270.31672472
  -exchange      EXHF   =         0.00000000
  -V(xc)+E(xc)   XCENC  =      -368.53081153
  PAW double counting   =     39816.09345713   -38244.73192938
  entropy T*S    EENTRO =         0.00000000
  eigenvalues    EBANDS =     -1599.80004611
  atomic energy  EATOM  =     37263.68633953
  Solvation  Ediel_sol  =         0.00000000
  ---------------------------------------------------
  free energy    TOTEN  =      -111.11871192 eV

  energy without entropy =     -111.11871192  energy(sigma->0) =     -111.11871192


--------------------------------------------------------------------------------------------------------




--------------------------------------- Iteration      1(   9)  ---------------------------------------


    EDDIAG:  cpu time    3.2479: real time    3.2480
  RMM-DIIS:  cpu time    7.4630: real time    7.4633
    ORTHCH:  cpu time    0.5870: real time    0.5870
 BZINTS: Fermi energy:    0.266617;  401.000000 electrons
         Band energy:-0.159980E+04;  BLOECHL correction:   -0.036288
       DOS:  cpu time    0.0266: real time    0.0266
    --------------------------------------------
      LOOP:  cpu time   11.3245: real time   11.3250

 eigenvalue-minimisations  :  6914
 total energy-change (2. order) :-0.2442015E-05  (-0.2512686E-05)
 number of electron     401.0000079 magnetization 
 augmentation part      401.0000079 magnetization 

 Free energy of the ion-electron system (eV)
  ---------------------------------------------------
  alpha Z        PSCENC =       698.60340641
  Ewald energy   TEWEN  =    130593.87759674
  -Hartree energ DENC   =   -168270.31672472
  -exchange      EXHF   =         0.00000000
  -V(xc)+E(xc)   XCENC  =      -368.53081153
  PAW double counting   =     39816.09345713   -38244.73192938
  entropy T*S    EENTRO =         0.00000000
  eigenvalues    EBANDS =     -1599.80004855
  atomic energy  EATOM  =     37263.68633953
  Solvation  Ediel_sol  =         0.00000000
  ---------------------------------------------------
  free energy    TOTEN  =      -111.11871436 eV

  energy without entropy =     -111.11871436  energy(sigma->0) =     -111.11871436


--------------------------------------------------------------------------------------------------------




 average (electrostatic) potential at core
  the test charge radii are     1.1249  1.2598  0.7215
  (the norm of the test charge is              1.0000)
       1 -78.6216       2 -78.6244       3 -78.6243       4 -78.6141       5 -78.6066
       6 -78.6138       7 -78.6133       8 -78.6131       9 -78.6177      10 -78.8574
      11 -78.8573      12 -78.8572      13 -78.8585      14 -78.8583      15 -78.8380
      16 -78.8612      17 -78.8475      18 -78.8476      19 -78.8479      20 -79.0386
      21 -79.0387      22 -78.8366      23 -79.0643      24 -78.8367      25 -78.8236
      26 -78.8236      27 -78.8349      28 -78.5649      29 -78.7160      30 -78.7161
      31 -78.8025      32 -78.8025      33 -78.6711      34 -78.6710      35 -78.5873
      36 -30.2110      37 -75.5167      38 -75.5166
 
 
 
 E-fermi :   0.2666     XC(G=0):  -5.4251     alpha+bet : -5.1351

 Fermi energy:         0.2666170532

 k-point     1 :       0.0000    0.0000    0.0000
  band No.  band energies     occupation 
      1     -18.0525      2.00000
      2     -17.7521      2.00000
      3      -6.8603      2.00000
      4      -6.0726      2.00000
      5      -5.9736      2.00000
      6      -5.7235      2.00000
      7      -5.6563      2.00000
      8      -5.6265      2.00000
      9      -5.6184      2.00000
     10      -5.6145      2.00000
     11      -5.5990      2.00000
     12      -5.5923      2.00000
     13      -5.5849      2.00000
     14      -5.5819      2.00000
     15      -5.5796      2.00000
     16      -5.5499      2.00000
     17      -5.5453      2.00000
     18      -5.5384      2.00000
     19      -5.5089      2.00000
     20      -5.4743      2.00000
     21      -5.4218      2.00000
     22      -5.4035      2.00000
     23      -5.4027      2.00000
     24      -5.3942      2.00000
     25      -5.3623      2.00000
     26      -5.3417      2.00000
     27      -5.3377      2.00000
     28      -5.2480      2.00000
     29      -5.2004      2.00000
     30      -5.1973      2.00000
     31      -5.1707      2.00000
     32      -5.1643      2.00000
     33      -5.1580      2.00000
     34      -5.1563      2.00000
     35      -5.1337      2.00000
     36      -5.1333      2.00000
     37      -5.1172      2.00000
     38      -5.1019      2.00000
     39      -5.1013      2.00000
     40      -5.0730      2.00000
     41      -5.0520      2.00000
     42      -5.0468      2.00000
     43      -4.8777      2.00000
     44      -4.8747      2.00000
     45      -4.8560      2.00000
     46      -4.8269      2.00000
     47      -4.8066      2.00000
     48      -4.7978      2.00000
     49      -4.7970      2.00000
     50      -4.7854      2.00000
     51      -4.7788      2.00000
     52      -4.7778      2.00000
     53      -4.7047      2.00000
     54      -4.6652      2.00000
     55      -4.6533      2.00000
     56      -4.6314      2.00000
     57      -4.6193      2.00000
     58      -4.6117      2.00000
     59      -4.5269      2.00000
     60      -4.5150      2.00000
     61      -4.4932      2.00000
     62      -4.4681      2.00000
     63      -4.4404      2.00000
     64      -4.4132      2.00000
     65      -4.4044      2.00000
     66      -4.3953      2.00000
     67      -4.3866      2.00000
     68      -4.3846      2.00000
     69      -4.3766      2.00000
     70      -4.3402      2.00000
     71      -4.3348      2.00000
     72      -4.3128      2.00000
     73      -4.2711      2.00000
     74      -4.2624      2.00000
     75      -4.2537      2.00000
     76      -4.2457      2.00000
     77      -4.2368      2.00000
     78      -4.2277      2.00000
     79      -4.2230      2.00000
     80      -4.2220      2.00000
     81      -4.2065      2.00000
     82      -4.1968      2.00000
     83      -4.1837      2.00000
     84      -4.1615      2.00000
     85      -4.1510      2.00000
     86      -4.1447      2.00000
     87      -4.1218      2.00000
     88      -4.1192      2.00000
     89      -4.0943      2.00000
     90      -4.0858      2.00000
     91      -4.0707      2.00000
     92      -4.0559      2.00000
     93      -4.0272      2.00000
     94      -4.0220      2.00000
     95      -4.0215      2.00000
     96      -4.0143      2.00000
     97      -3.9408      2.00000
     98      -3.9211      2.00000
     99      -3.9203      2.00000
    100      -3.9060      2.00000
    101      -3.8943      2.00000
    102      -3.8608      2.00000
    103      -3.8532      2.00000
    104      -3.7663      2.00000
    105      -3.7384      2.00000
    106      -3.7041      2.00000
    107      -3.6937      2.00000
    108      -3.6783      2.00000
    109      -3.6537      2.00000
    110      -3.6514      2.00000
    111      -3.6326      2.00000
    112      -3.6044      2.00000
    113      -3.5953      2.00000
    114      -3.5665      2.00000
    115      -3.5570      2.00000
    116      -3.5312      2.00000
    117      -3.5262      2.00000
    118      -3.5088      2.00000
    119      -3.5026      2.00000
    120      -3.4703      2.00000
    121      -3.4469      2.00000
    122      -3.4258      2.00000
    123      -3.3958      2.00000
    124      -3.3936      2.00000
    125      -3.3760      2.00000
    126      -3.3605      2.00000
    127      -3.3563      2.00000
    128      -3.3426      2.00000
    129      -3.3180      2.00000
    130      -3.3178      2.00000
    131      -3.3116      2.00000
    132      -3.3104      2.00000
    133      -3.3058      2.00000
    134      -3.3055      2.00000
    135      -3.2746      2.00000
    136      -3.2391      2.00000
    137      -3.2182      2.00000
    138      -3.2096      2.00000
    139      -3.1801      2.00000
    140      -3.1287      2.00000
    141      -3.1262      2.00000
    142      -3.1235      2.00000
    143      -3.1090      2.00000
    144      -3.1058      2.00000
    145      -3.0974      2.00000
    146      -3.0858      2.00000
    147      -3.0839      2.00000
    148      -3.0686      2.00000
    149      -3.0657      2.00000
    150      -3.0647      2.00000
    151      -3.0599      2.00000
    152      -3.0405      2.00000
    153      -3.0212      2.00000
    154      -3.0084      2.00000
    155      -3.0054      2.00000
    156      -2.9999      2.00000
    157      -2.9912      2.00000
    158      -2.9602      2.00000
    159      -2.9599      2.00000
    160      -2.9499      2.00000
    161      -2.9144      2.00000
    162      -2.9143      2.00000
    163      -2.9114      2.00000
    164      -2.9050      2.00000
    165      -2.8981      2.00000
    166      -2.8912      2.00000
    167      -2.8839      2.00000
    168      -2.8821      2.00000
    169      -2.8697      2.00000
    170      -2.8661      2.00000
    171      -2.8633      2.00000
    172      -2.8553      2.00000
    173      -2.8350      2.00000
    174      -2.8046      2.00000
    175      -2.8016      2.00000
    176      -2.7840      2.00000
    177      -2.7419      2.00000
    178      -2.7347      2.00000
    179      -2.7299      2.00000
    180      -2.7253      2.00000
    181      -2.7242      2.00000
    182      -2.7082      2.00000
    183      -2.7070      2.00000
    184      -2.6899      2.00000
    185      -2.6359      2.00000
    186      -2.6025      2.00000
    187      -2.5670      2.00000
    188      -2.5384      2.00000
    189      -2.3732      2.00000
    190      -2.3154      2.00000
    191      -2.1358      2.00000
    192      -2.0492      2.00000
    193      -1.8326      2.00000
    194      -1.7669      2.00000
    195      -1.6434      2.00000
    196      -1.5273      2.00000
    197      -1.3757      2.00000
    198      -0.8103      2.00000
    199      -0.4328      2.00000
    200      -0.1732      2.00000
    201      -0.0795      2.00000
    202      -0.0247      2.00000
    203       0.1140      1.96810
    204       0.3275      0.00000
    205       0.8121      0.00000
    206       0.9119      0.00000
    207       1.4177      0.00000
    208       1.5644      0.00000
    209       1.8717      0.00000
    210       2.1017      0.00000
    211       2.2202      0.00000
    212       2.2692      0.00000
    213       2.5627      0.00000
    214       2.6431      0.00000
    215       2.8462      0.00000
    216       3.1027      0.00000
    217       3.5248      0.00000
    218       3.5715      0.00000
    219       3.6391      0.00000
    220       3.7398      0.00000
    221       3.7418      0.00000
    222       3.8502      0.00000
    223       3.9486      0.00000
    224       4.4833      0.00000
    225       4.5208      0.00000
    226       4.5438      0.00000
    227       4.5528      0.00000
    228       4.5968      0.00000
    229       4.6520      0.00000
    230       4.7160      0.00000
    231       4.8072      0.00000
    232       4.8525      0.00000
    233       4.9448      0.00000
    234       4.9702      0.00000
    235       5.0608      0.00000
    236       5.4229      0.00000
    237       5.4739      0.00000
    238       5.7527      0.00000
    239       5.9900      0.00000
    240       6.1472      0.00000
    241       6.1646      0.00000
    242       6.3569      0.00000
    243       6.3898      0.00000
    244       6.5293      0.00000
    245       6.5406      0.00000
    246       6.5534      0.00000
    247       6.5794      0.00000
    248       6.6449      0.00000
    249       6.6532      0.00000
    250       6.8131      0.00000
    251       6.8366      0.00000
    252       6.9181      0.00000

 k-point     2 :       0.1250    0.0000    0.0000
  band No.  band energies     occupation 
      1     -18.0523      2.00000
      2     -17.7524      2.00000
      3      -6.8150      2.00000
      4      -6.0428      2.00000
      5      -5.9393      2.00000
      6      -5.7059      2.00000
      7      -5.6764      2.00000
      8      -5.6465      2.00000
      9      -5.6324      2.00000
     10      -5.6036      2.00000
     11      -5.5974      2.00000
     12      -5.5897      2.00000
     13      -5.5812      2.00000
     14      -5.5615      2.00000
     15      -5.5551      2.00000
     16      -5.5346      2.00000
     17      -5.5108      2.00000
     18      -5.5006      2.00000
     19      -5.4779      2.00000
     20      -5.4651      2.00000
     21      -5.4539      2.00000
     22      -5.4272      2.00000
     23      -5.4120      2.00000
     24      -5.3902      2.00000
     25      -5.3356      2.00000
     26      -5.3091      2.00000
     27      -5.2762      2.00000
     28      -5.2568      2.00000
     29      -5.2509      2.00000
     30      -5.2388      2.00000
     31      -5.1980      2.00000
     32      -5.1726      2.00000
     33      -5.1614      2.00000
     34      -5.1473      2.00000
     35      -5.1227      2.00000
     36      -5.1073      2.00000
     37      -5.0959      2.00000
     38      -5.0587      2.00000
     39      -5.0503      2.00000
     40      -5.0354      2.00000
     41      -5.0155      2.00000
     42      -4.9940      2.00000
     43      -4.9133      2.00000
     44      -4.8971      2.00000
     45      -4.8856      2.00000
     46      -4.8658      2.00000
     47      -4.8448      2.00000
     48      -4.8319      2.00000
     49      -4.8201      2.00000
     50      -4.7979      2.00000
     51      -4.7659      2.00000
     52      -4.7596      2.00000
     53      -4.7147      2.00000
     54      -4.6741      2.00000
     55      -4.6546      2.00000
     56      -4.6411      2.00000
     57      -4.6160      2.00000
     58      -4.5926      2.00000
     59      -4.5515      2.00000
     60      -4.5220      2.00000
     61      -4.4867      2.00000
     62      -4.4647      2.00000
     63      -4.4426      2.00000
     64      -4.4264      2.00000
     65      -4.4098      2.00000
     66      -4.3993      2.00000
     67      -4.3927      2.00000
     68      -4.3839      2.00000
     69      -4.3746      2.00000
     70      -4.3688      2.00000
     71      -4.3340      2.00000
     72      -4.3150      2.00000
     73      -4.3024      2.00000
     74      -4.2882      2.00000
     75      -4.2648      2.00000
     76      -4.2434      2.00000
     77      -4.2369      2.00000
     78      -4.2351      2.00000
     79      -4.2301      2.00000
     80      -4.2190      2.00000
     81      -4.1999      2.00000
     82      -4.1940      2.00000
     83      -4.1857      2.00000
     84      -4.1651      2.00000
     85      -4.1572      2.00000
     86      -4.1503      2.00000
     87      -4.1382      2.00000
     88      -4.1288      2.00000
     89      -4.1165      2.00000
     90      -4.0941      2.00000
     91      -4.0861      2.00000
     92      -4.0720      2.00000
     93      -4.0503      2.00000
     94      -4.0336      2.00000
     95      -4.0199      2.00000
     96      -3.9945      2.00000
     97      -3.9819      2.00000
     98      -3.9604      2.00000
     99      -3.9148      2.00000
    100      -3.8757      2.00000
    101      -3.8345      2.00000
    102      -3.8149      2.00000
    103      -3.7873      2.00000
    104      -3.7837      2.00000
    105      -3.7567      2.00000
[...]
  0.000   0.000   0.000   0.000   0.000   0.000   0.000   0.000   0.000   0.000   0.000   0.000   0.000   0.000   0.000   0.000
  0.000   0.000   0.000   0.000   0.000   0.000   0.000   0.000   0.000   0.000   0.000   0.000   0.000   0.000   0.000   0.000
  0.000   0.000   0.000   0.000   0.000   0.000   0.000   0.000   0.000   0.000   1.000   0.000   0.000   0.000   0.000   0.000
  0.000   0.000   0.000   0.000   0.000   0.000   0.000   0.000   0.000   0.000   0.000   0.000   0.000   0.000   0.000   0.000
  0.000   0.000   0.000   0.000   0.000   0.000   0.000   0.000   0.000   0.000   0.000   0.000   0.000   0.000   0.000   0.000
  0.000   0.000   0.000   0.000   0.000   0.000   0.000   0.000   0.000   0.000   0.000   0.000   0.000   0.000   0.000   0.000
  0.000   0.000   0.000   0.000   0.000   0.000   0.000   0.000   0.000   0.000   0.000   0.000   0.000   0.000   0.000   0.000
  0.000   0.000   0.000   0.000   0.000   0.000   0.000   0.000   0.000   0.000   0.000   0.000   0.000   0.000   0.000   0.000
  0.000   0.000   0.000   0.000   0.000   0.000   0.000   0.000   0.000   0.000   0.000   0.000   0.000   0.000   0.000   0.000
  0.000   0.000   0.000   0.000   0.000   0.000   0.000   0.000   0.000   0.000   0.000   0.000   0.000   0.000   0.000   0.000


------------------------ aborting loop because EDIFF is reached ----------------------------------------





 total charge

# of ion       s       p       d       tot
------------------------------------------
    1        0.420   0.200   9.178   9.798
    2        0.414   0.205   9.176   9.794
    3        0.414   0.205   9.176   9.794
    4        0.416   0.203   9.177   9.796
    5        0.418   0.202   9.177   9.797
    6        0.416   0.203   9.177   9.796
    7        0.416   0.203   9.178   9.797
    8        0.416   0.203   9.178   9.797
    9        0.415   0.204   9.176   9.795
   10        0.407   0.270   9.164   9.841
   11        0.406   0.269   9.167   9.841
   12        0.407   0.270   9.164   9.841
   13        0.402   0.272   9.165   9.839
   14        0.402   0.272   9.165   9.839
   15        0.407   0.268   9.165   9.840
   16        0.408   0.270   9.162   9.840
   17        0.403   0.269   9.165   9.837
   18        0.403   0.269   9.165   9.837
   19        0.400   0.281   9.151   9.832
   20        0.436   0.288   9.148   9.871
   21        0.436   0.288   9.148   9.871
   22        0.402   0.271   9.165   9.837
   23        0.431   0.302   9.133   9.867
   24        0.402   0.271   9.165   9.837
   25        0.401   0.270   9.164   9.835
   26        0.401   0.270   9.164   9.835
   27        0.395   0.271   9.168   9.835
   28        0.412   0.198   9.183   9.793
   29        0.428   0.206   9.174   9.808
   30        0.428   0.206   9.174   9.808
   31        0.405   0.297   9.161   9.863
   32        0.405   0.297   9.161   9.863
   33        0.385   0.230   9.187   9.803
   34        0.385   0.230   9.187   9.803
   35        0.422   0.189   9.187   9.798
   36        0.563   0.803   2.824   4.191
   37        1.596   3.335   0.000   4.932
   38        1.596   3.335   0.000   4.932
--------------------------------------------------
tot         18.119  16.096 323.718 357.933
 
    CHARGE:  cpu time    0.7609: real time    0.7611
    FORLOC:  cpu time    0.0114: real time    0.0114
    FORNL :  cpu time    3.4036: real time    3.4039
    STRESS:  cpu time   10.2161: real time   10.2168
    FORCOR:  cpu time    0.0489: real time    0.0490
    FORHAR:  cpu time    0.0185: real time    0.0185
    OFIELD:  cpu time    0.0003: real time    0.0003

  FORCE on cell =-STRESS in cart. coord.  units (eV):
  Direction    XX          YY          ZZ          XY          YZ          ZX
  --------------------------------------------------------------------------------------
  Alpha Z   698.60341   698.60341   698.60341
  Ewald  153464.74280153249.12981************     0.00009   -43.77153     0.00008
  Hartree163370.13767163263.91346************     0.00002   -53.21947     0.00002
  E(xc)   -2105.49560 -2104.93918 -2111.30920    -0.00001    -0.55150     0.00000
  Local  ************************327930.39197     0.00088    98.62850    -0.00017
  n-local  -359.23139  -361.22738  -367.46525     2.26643     0.86624     0.06770
  augment  3237.09404  3238.22332  3248.43218    -0.00017    -0.33754     0.00001
  Kinetic  5049.72549  5054.95514  5081.52345     1.03143    -1.37293    -0.05917
  Fock        0.00000     0.00000     0.00000     0.00000     0.00000     0.00000
  -------------------------------------------------------------------------------------
  Total       2.62683    -3.28680    -0.16288    -0.00000     0.24177     0.00000
  in kB       2.58100    -3.22945    -0.16004    -0.00000     0.23755     0.00000
  external pressure =       -0.27 kB  Pullay stress =        0.00 kB


 VOLUME and BASIS-vectors are now :
 -----------------------------------------------------------------------------
  energy-cutoff  :      500.00
  volume of cell :     1630.63
      direct lattice vectors                 reciprocal lattice vectors
     8.791366577  0.000000000  0.000000000     0.113747958 -0.065672414  0.000000000
     4.395683289  7.613546790  0.000000000     0.000000000  0.131344829  0.000000000
     0.000000000  0.000000000 24.361965240     0.000000000  0.000000000  0.041047592

  length of vectors
     8.791366577  8.791366577 24.361965240     0.131344829  0.131344829  0.041047592


 FORCES acting on ions
    electron-ion (+dipol)            ewald-force                    non-local-force                 convergence-correction
 -----------------------------------------------------------------------------------------------
   0.461E-04 0.303E-02 0.269E+04   -.953E-04 -.814E-02 -.269E+04   -.114E-13 -.174E-02 -.191E+01   -.831E-04 0.836E-02 -.472E-01
   -.218E+00 -.553E-01 0.269E+04   0.177E+00 -.105E-01 -.269E+04   -.770E-02 0.961E-01 -.174E+01   0.548E-01 -.308E-01 -.681E-01
   0.218E+00 -.554E-01 0.269E+04   -.177E+00 -.105E-01 -.269E+04   0.770E-02 0.961E-01 -.174E+01   -.554E-01 -.289E-01 -.674E-01
   -.219E+00 0.658E-01 0.269E+04   0.822E-01 -.300E-01 -.269E+04   0.129E+00 -.522E-01 -.169E+01   -.144E-02 0.106E-01 -.899E-01
   -.789E-05 0.141E+00 0.269E+04   0.981E-04 -.187E+00 -.269E+04   0.323E-12 0.492E-01 -.148E+01   0.618E-02 -.971E-02 -.392E-01
   0.219E+00 0.658E-01 0.269E+04   -.824E-01 -.301E-01 -.269E+04   -.129E+00 -.522E-01 -.169E+01   0.106E-03 0.115E-01 -.892E-01
   0.113E+00 0.253E-01 0.269E+04   -.904E-01 0.429E-01 -.269E+04   0.119E-01 -.564E-01 -.166E+01   -.366E-01 -.397E-02 -.341E-01
   -.113E+00 0.254E-01 0.269E+04   0.904E-01 0.428E-01 -.269E+04   -.119E-01 -.564E-01 -.166E+01   0.382E-01 -.491E-02 -.340E-01
   0.365E-04 -.215E+00 0.269E+04   0.792E-04 0.191E+00 -.269E+04   -.115E-12 -.176E-01 -.169E+01   -.663E-02 0.439E-01 -.698E-01
   -.102E+01 0.666E+00 0.927E+03   0.100E+01 -.456E+00 -.926E+03   -.972E-01 -.143E+00 -.662E+00   0.625E-01 -.675E-01 -.170E+00
   -.295E-04 0.116E+01 0.924E+03   0.407E-04 -.114E+01 -.923E+03   -.287E-12 -.436E-01 -.350E+00   0.611E-02 -.283E-01 -.154E+00
   0.102E+01 0.666E+00 0.927E+03   -.100E+01 -.456E+00 -.926E+03   0.972E-01 -.143E+00 -.662E+00   -.638E-01 -.669E-01 -.170E+00
   0.859E-01 0.557E+00 0.927E+03   -.783E-01 -.420E+00 -.926E+03   -.463E-01 -.111E+00 -.392E+00   0.208E-01 0.743E-03 -.147E+00
   -.859E-01 0.557E+00 0.927E+03   0.784E-01 -.420E+00 -.926E+03   0.463E-01 -.111E+00 -.392E+00   -.106E-01 -.141E-03 -.148E+00
   0.154E-04 -.558E+00 0.928E+03   -.108E-03 0.381E+00 -.927E+03   0.713E-12 0.109E+00 -.766E+00   -.131E-02 0.513E-01 -.105E+00
   -.933E-05 -.824E+00 0.928E+03   0.207E-04 0.343E+00 -.927E+03   0.304E-11 0.463E+00 -.866E+00   -.142E-03 0.345E-01 -.122E+00
   -.763E+00 -.115E+01 0.926E+03   0.747E+00 0.109E+01 -.925E+03   0.109E-01 0.195E-01 -.588E+00   0.234E-02 0.392E-01 -.141E+00
   0.763E+00 -.115E+01 0.926E+03   -.747E+00 0.109E+01 -.925E+03   -.109E-01 0.195E-01 -.588E+00   -.228E-02 0.408E-01 -.140E+00
   0.391E-04 0.226E+01 -.848E+03   -.127E-03 -.215E+01 0.848E+03   -.286E-12 -.435E-01 0.208E+00   0.567E-02 0.486E-01 0.556E-03
   -.241E+02 -.209E+00 -.865E+03   0.246E+02 0.477E+00 0.865E+03   -.458E+00 -.400E+00 -.292E+00   -.771E-01 0.273E-02 -.719E-01
   0.241E+02 -.209E+00 -.865E+03   -.246E+02 0.477E+00 0.865E+03   0.458E+00 -.400E+00 -.292E+00   0.753E-01 0.217E-02 -.727E-01
   -.180E+01 -.229E+01 -.843E+03   0.203E+01 0.236E+01 0.843E+03   -.197E+00 -.677E-01 0.440E+00   -.134E-01 -.124E-03 -.379E-01
   -.523E-04 0.191E+02 -.853E+03   0.374E-04 -.203E+02 0.854E+03   0.792E-11 0.121E+01 -.952E+00   -.101E-02 0.646E-01 -.574E-01
   0.180E+01 -.229E+01 -.843E+03   -.203E+01 0.236E+01 0.843E+03   0.197E+00 -.677E-01 0.440E+00   0.241E-01 0.535E-03 -.379E-01
   0.580E+01 -.221E+01 -.854E+03   -.588E+01 0.215E+01 0.854E+03   -.137E-02 0.194E-01 0.731E+00   0.185E-01 -.243E-01 -.754E-01
   -.580E+01 -.221E+01 -.854E+03   0.588E+01 0.215E+01 0.854E+03   0.137E-02 0.194E-01 0.731E+00   -.919E-02 -.233E-01 -.750E-01
   0.192E-04 -.121E+02 -.861E+03   0.110E-03 0.122E+02 0.860E+03   -.383E-13 -.583E-02 0.954E+00   0.424E-02 -.493E-01 -.925E-01
   0.539E-04 0.353E+01 -.261E+04   -.115E-03 -.359E+01 0.261E+04   -.349E-12 -.531E-01 0.179E+01   0.269E-03 0.580E-01 0.141E+00
   -.154E+02 0.823E+01 -.260E+04   0.163E+02 -.875E+01 0.260E+04   -.909E+00 0.936E-01 0.204E+01   -.943E-01 -.193E-01 0.311E-01
   0.154E+02 0.823E+01 -.260E+04   -.163E+02 -.875E+01 0.260E+04   0.909E+00 0.936E-01 0.204E+01   0.932E-01 -.186E-01 0.312E-01
   0.103E+03 0.518E+02 -.252E+04   -.104E+03 -.522E+02 0.252E+04   -.138E+01 -.107E+00 0.393E+00   -.915E-01 0.110E-01 0.834E-01
   -.103E+03 0.518E+02 -.252E+04   0.104E+03 -.522E+02 0.252E+04   0.138E+01 -.107E+00 0.393E+00   0.917E-01 0.119E-01 0.841E-01
   0.109E+02 -.951E+02 -.255E+04   -.105E+02 0.969E+02 0.255E+04   -.527E+00 -.106E+01 0.265E+01   0.129E-01 -.879E-02 0.708E-01
   -.109E+02 -.951E+02 -.255E+04   0.105E+02 0.969E+02 0.255E+04   0.527E+00 -.106E+01 0.265E+01   -.117E-01 -.857E-02 0.715E-01
   0.179E-04 -.301E+02 -.261E+04   0.108E-03 0.303E+02 0.261E+04   0.293E-12 0.446E-01 0.199E+01   -.631E-02 -.968E-01 0.308E-01
   -.267E-04 0.506E+02 -.795E+03   0.380E-04 -.504E+02 0.797E+03   0.217E-11 0.330E+00 0.607E+00   0.186E-03 0.261E-01 0.367E-01
   -.185E+02 0.268E+02 -.172E+04   0.181E+02 -.239E+02 0.174E+04   0.451E+00 -.290E+01 -.235E+02   -.490E-01 0.225E-01 0.653E-01
   0.185E+02 0.268E+02 -.172E+04   -.181E+02 -.239E+02 0.174E+04   -.451E+00 -.290E+01 -.235E+02   0.488E-01 0.226E-01 0.651E-01
 -----------------------------------------------------------------------------------------------
   0.660E-03 0.735E+01 0.526E+02   -.391E-13 0.185E-12 0.659E-11   -.480E-10 -.731E+01 -.511E+02   0.343E-01 0.213E-01 -.164E+01
 
 
 POSITION                                       TOTAL-FORCE (eV/Angst)
 -----------------------------------------------------------------------------------
      0.00000      0.00000      5.28219        -0.000000     -0.000093     -0.027147
      2.93046      0.00000      5.28219         0.007195     -0.001202      0.035390
      5.86091      0.00000      5.28219        -0.007195     -0.001202      0.035390
      1.46523      2.53785      5.28219        -0.007929     -0.006978      0.018001
      4.39568      2.53785      5.28219        -0.000000     -0.008188      0.024003
      7.32614      2.53785      5.28219         0.007929     -0.006978      0.018001
      2.93046      5.07570      5.28219        -0.003098      0.005843      0.020581
      5.86091      5.07570      5.28219         0.003098      0.005843      0.020581
      8.79137      5.07570      5.28219        -0.000000     -0.000019      0.016498
      1.46523      0.84595      7.67490        -0.044884     -0.001554     -0.020150
      4.39568      0.84595      7.67490        -0.000000     -0.050585     -0.088323
      7.32614      0.84595      7.67490         0.044884     -0.001554     -0.020150
      2.93046      3.38380      7.67490        -0.023058      0.025103     -0.056593
      5.86091      3.38380      7.67490         0.023058      0.025103     -0.056593
      8.79137      3.38380      7.67490        -0.000000     -0.018999     -0.037990
      4.39568      5.92165      7.67490         0.000000      0.014529     -0.049993
      7.32614      5.92165      7.67490        -0.002728     -0.004284      0.002508
     10.25659      5.92165      7.67490         0.002728     -0.004284      0.002508
      8.79137      1.69074     10.05145         0.000000      0.121461      0.264828
      2.93556      1.69484     10.04095        -0.097968     -0.131269     -0.336776
      5.85581      1.69484     10.04095         0.097968     -0.131269     -0.336776
     10.25435      4.23104     10.05745         0.008648     -0.002691     -0.003945
      4.39568      4.22386     10.04095         0.000000      0.052303     -0.086183
      7.32838      4.23104     10.05745        -0.008648     -0.002691     -0.003945
     11.72283      6.76818     10.05145        -0.066114     -0.064689      0.139794
      5.85990      6.76818     10.05145         0.066114     -0.064689      0.139794
      8.79137      6.76501     10.05745         0.000000      0.056189      0.078472
      0.00000      0.00000     12.43413        -0.000000     -0.060494     -0.103894
      2.95009      0.02948     12.45917        -0.063771     -0.443382     -0.171532
      5.84128      0.02948     12.45917         0.063771     -0.443382     -0.171532
      1.50057      2.54011     12.45917        -1.830447     -0.516783     -0.679469
      7.29079      2.54011     12.45917         1.830447     -0.516783     -0.679469
      2.94617      5.04396     12.45917        -0.161434      0.743504     -0.142635
      5.84520      5.04396     12.45917         0.161434      0.743504     -0.142635
      8.79137      5.07570     12.45428         0.000000      0.149025     -0.105898
      4.39568      2.53785     12.30230         0.000000      0.548512      2.539527
      3.18187      2.98377     13.55508         0.006661     -0.003439     -0.017126
      5.60950      2.98377     13.55508        -0.006661     -0.003439     -0.017126
 -----------------------------------------------------------------------------------
    total drift:                                0.034953      0.060622     -0.082877


--------------------------------------------------------------------------------------------------------



  FREE ENERGIE OF THE ION-ELECTRON SYSTEM (eV)
  ---------------------------------------------------
  free  energy   TOTEN  =      -111.11871436 eV

  energy  without entropy=     -111.11871436  energy(sigma->0) =     -111.11871436
 


--------------------------------------------------------------------------------------------------------


    POTLOK:  cpu time    0.0479: real time    0.0479


--------------------------------------------------------------------------------------------------------


 stress matrix after NEB project (eV)
      2.62683     -0.00000      0.00000
     -0.00000     -3.28680      0.24177
      0.00000      0.24177     -0.16288
  FORCES: max atom, RMS     0.018695    0.004289
  FORCE total and by dimension    0.026438    0.017126
  Stress total and by dimension    4.224541    3.286799
     LOOP+:  cpu time  159.7223: real time  159.7638
 -----------------------------------------------------------------------------
|                                                                             |
|           W    W    AA    RRRRR   N    N  II  N    N   GGGG   !!!           |
|           W    W   A  A   R    R  NN   N  II  NN   N  G    G  !!!           |
|           W    W  A    A  R    R  N N  N  II  N N  N  G       !!!           |
|           W WW W  AAAAAA  RRRRR   N  N N  II  N  N N  G  GGG   !            |
|           WW  WW  A    A  R   R   N   NN  II  N   NN  G    G                |
|           W    W  A    A  R    R  N    N  II  N    N   GGGG   !!!           |
|                                                                             |
|     Tetrahedron method does not include variations of the Fermi             |
|     occupations, so forces and stress will be inaccurate. We suggest        |
|     using a different smearing scheme ISMEAR = 1 or 2 for metals in         |
|     relaxations.                                                            |
|                                                                             |
 -----------------------------------------------------------------------------

    4ORBIT:  cpu time    0.0000: real time    0.0000



 total charge

# of ion       s       p       d       tot
------------------------------------------
    1        0.420   0.200   9.178   9.798
    2        0.414   0.205   9.176   9.794
    3        0.414   0.205   9.176   9.794
    4        0.416   0.203   9.177   9.796
    5        0.418   0.202   9.177   9.797
    6        0.416   0.203   9.177   9.796
    7        0.416   0.203   9.178   9.797
    8        0.416   0.203   9.178   9.797
    9        0.415   0.204   9.176   9.795
   10        0.407   0.270   9.164   9.841
   11        0.406   0.269   9.167   9.841
   12        0.407   0.270   9.164   9.841
   13        0.402   0.272   9.165   9.839
   14        0.402   0.272   9.165   9.839
   15        0.407   0.268   9.165   9.840
   16        0.408   0.270   9.162   9.840
   17        0.403   0.269   9.165   9.837
   18        0.403   0.269   9.165   9.837
   19        0.400   0.281   9.151   9.832
   20        0.436   0.288   9.148   9.871
   21        0.436   0.288   9.148   9.871
   22        0.402   0.271   9.165   9.837
   23        0.431   0.302   9.133   9.867
   24        0.402   0.271   9.165   9.837
   25        0.401   0.270   9.164   9.835
   26        0.401   0.270   9.164   9.835
   27        0.395   0.271   9.168   9.835
   28        0.412   0.198   9.183   9.793
   29        0.428   0.206   9.174   9.808
   30        0.428   0.206   9.174   9.808
   31        0.405   0.297   9.161   9.863
   32        0.405   0.297   9.161   9.863
   33        0.385   0.230   9.187   9.803
   34        0.385   0.230   9.187   9.803
   35        0.422   0.189   9.187   9.798
   36        0.563   0.803   2.824   4.191
   37        1.596   3.335   0.000   4.932
   38        1.596   3.335   0.000   4.932
--------------------------------------------------
tot         18.119  16.096 323.718 357.933
 
 BZINTS: Fermi energy:    0.266617;  401.000000 electrons
         Band energy:-0.159980E+04;  BLOECHL correction:   -0.036288

 total amount of memory used by VASP MPI-rank0   198353. kBytes
=======================================================================

   base      :      30000. kBytes
   nonlr-proj:      15667. kBytes
   fftplans  :       4808. kBytes
   grid      :      19857. kBytes
   one-center:        590. kBytes
   wavefun   :     127431. kBytes
 
  
  
 General timing and accounting informations for this job:
 ========================================================
  
                  Total CPU time used (sec):      174.436
                            User time (sec):      168.359
                          System time (sec):        6.077
                         Elapsed time (sec):      174.914
  
                   Maximum memory used (kb):      479680.
                   Average memory used (kb):          N/A
  
                          Minor page faults:        97835
                          Major page faults:            0
                 Voluntary context switches:         5903
