PROCAR new format
# of k-points:   10         # of bands:  252         # of ions:   36

 k-point     1 :    0.00000000 0.00000000 0.00000000     weight = 0.01562500

band     1 # energy   -6.30260699 # occ.  2.00000000
 
ion      s      p      d    tot
    1  0.006  0.001  0.000  0.007
    2  0.006  0.001  0.000  0.007
    3  0.006  0.001  0.000  0.007
    4  0.006  0.001  0.000  0.007
    5  0.006  0.001  0.000  0.007
    6  0.006  0.001  0.000  0.007
    7  0.006  0.001  0.000  0.007
    8  0.006  0.001  0.000  0.007
    9  0.006  0.001  0.000  0.007
   10  0.023  0.000  0.000  0.024
   11  0.024  0.000  0.000  0.024
   12  0.023  0.000  0.000  0.024
   13  0.024  0.000  0.000  0.024
   14  0.024  0.000  0.000  0.024
   15  0.023  0.000  0.000  0.024
   16  0.023  0.000  0.000  0.024
   17  0.023  0.000  0.000  0.024
   18  0.023  0.000  0.000  0.024
   19  0.022  0.000  0.000  0.023
   20  0.024  0.000  0.000  0.024
   21  0.024  0.000  0.000  0.024
   22  0.023  0.000  0.000  0.024
   23  0.024  0.000  0.000  0.024
   24  0.023  0.000  0.000  0.024
   25  0.022  0.000  0.000  0.023
   26  0.022  0.000  0.000  0.023
   27  0.023  0.000  0.000  0.024
   28  0.005  0.001  0.000  0.006
   29  0.005  0.001  0.000  0.006
   30  0.005  0.001  0.000  0.006
   31  0.005  0.001  0.000  0.006
   32  0.005  0.001  0.000  0.006
   33  0.005  0.001  0.000  0.006
   34  0.005  0.001  0.000  0.006
   35  0.005  0.001  0.000  0.006
   36  0.006  0.001  0.000  0.007
tot    0.525  0.013  0.006  0.544
 
band     2 # energy   -5.42747258 # occ.  2.00000000
 
ion      s      p      d    tot
    1  0.008  0.000  0.000  0.009
    2  0.008  0.000  0.000  0.009
    3  0.008  0.000  0.000  0.009
    4  0.008  0.000  0.000  0.009
    5  0.008  0.000  0.000  0.009
    6  0.008  0.000  0.000  0.009
    7  0.008  0.000  0.000  0.009
    8  0.008  0.000  0.000  0.009
    9  0.008  0.000  0.000  0.009
   10  0.011  0.001  0.015  0.027
   11  0.011  0.001  0.015  0.027
   12  0.011  0.001  0.015  0.027
   13  0.011  0.001  0.015  0.027
   14  0.011  0.001  0.015  0.027
   15  0.011  0.001  0.015  0.027
   16  0.011  0.001  0.015  0.027
   17  0.011  0.001  0.015  0.027
   18  0.011  0.001  0.015  0.027
   19  0.012  0.001  0.016  0.029
   20  0.013  0.001  0.017  0.031
   21  0.013  0.001  0.017  0.031
   22  0.012  0.001  0.016  0.030
   23  0.013  0.001  0.017  0.031
   24  0.012  0.001  0.016  0.029
   25  0.012  0.001  0.016  0.029
   26  0.012  0.001  0.016  0.029
   27  0.012  0.001  0.016  0.029
   28  0.007  0.000  0.000  0.007
   29  0.007  0.000  0.000  0.007
   30  0.007  0.000  0.000  0.007
   31  0.007  0.000  0.000  0.007
   32  0.007  0.000  0.000  0.007
   33  0.007  0.000  0.000  0.007
   34  0.007  0.000  0.000  0.007
   35  0.006  0.000  0.000  0.007
   36  0.007  0.001  0.000  0.008
tot    0.341  0.025  0.288  0.653
 
band     3 # energy   -5.13669301 # occ.  2.00000000
 
ion      s      p      d    tot
    1  0.014  0.000  0.026  0.040
    2  0.016  0.000  0.025  0.040
    3  0.016  0.000  0.025  0.040
    4  0.016  0.000  0.025  0.040
    5  0.016  0.000  0.026  0.042
    6  0.016  0.000  0.025  0.040
    7  0.016  0.000  0.025  0.040
    8  0.016  0.000  0.025  0.040
    9  0.016  0.000  0.024  0.040
   10  0.001  0.001  0.019  0.020
   11  0.001  0.001  0.024  0.025
   12  0.001  0.001  0.019  0.020
   13  0.001  0.001  0.024  0.025
   14  0.001  0.001  0.024  0.025
   15  0.000  0.000  0.024  0.024
   16  0.001  0.001  0.019  0.020
   17  0.000  0.000  0.024  0.024
   18  0.000  0.000  0.024  0.024
   19  0.000  0.000  0.008  0.008
   20  0.000  0.000  0.010  0.010
   21  0.000  0.000  0.010  0.010
   22  0.000  0.000  0.012  0.012
   23  0.000  0.000  0.010  0.010
   24  0.000  0.000  0.012  0.012
   25  0.000  0.000  0.008  0.008
   26  0.000  0.000  0.008  0.008
   27  0.000  0.000  0.012  0.012
   28  0.005  0.000  0.007  0.013
   29  0.005  0.000  0.006  0.011
   30  0.005  0.000  0.006  0.011
   31  0.005  0.000  0.006  0.011
   32  0.005  0.000  0.006  0.011
   33  0.005  0.000  0.006  0.011
   34  0.005  0.000  0.006  0.011
   35  0.005  0.000  0.008  0.013
   36  0.005  0.000  0.000  0.006
tot    0.192  0.006  0.566  0.764
 
band     4 # energy   -5.02672166 # occ.  2.00000000
 
ion      s      p      d    tot
    1  0.005  0.001  0.002  0.008
    2  0.000  0.000  0.005  0.006
    3  0.000  0.000  0.005  0.006
    4  0.000  0.000  0.005  0.006
    5  0.000  0.000  0.002  0.002
    6  0.000  0.000  0.005  0.006
    7  0.000  0.000  0.005  0.006
    8  0.000  0.000  0.005  0.006
    9  0.001  0.001  0.007  0.009
   10  0.002  0.000  0.061  0.064
   11  0.002  0.001  0.017  0.021
   12  0.002  0.000  0.062  0.064
   13  0.002  0.001  0.017  0.021
   14  0.002  0.001  0.017  0.021
   15  0.015  0.001  0.021  0.037
   16  0.002  0.000  0.061  0.064
   17  0.015  0.001  0.021  0.037
   18  0.015  0.001  0.021  0.037
   19  0.000  0.000  0.033  0.033
   20  0.009  0.000  0.046  0.055
   21  0.008  0.000  0.046  0.055
   22  0.011  0.001  0.007  0.019
   23  0.008  0.000  0.046  0.055
   24  0.011  0.001  0.007  0.019
   25  0.000  0.000  0.033  0.033
   26  0.000  0.000  0.033  0.033
   27  0.011  0.001  0.007  0.019
   28  0.000  0.000  0.003  0.004
   29  0.000  0.000  0.006  0.007
   30  0.000  0.000  0.006  0.007
   31  0.000  0.000  0.006  0.007
   32  0.000  0.000  0.006  0.007
   33  0.000  0.000  0.006  0.007
   34  0.000  0.000  0.006  0.007
   35  0.001  0.000  0.002  0.003
   36  0.008  0.001  0.000  0.009
tot    0.138  0.018  0.643  0.799
 
band     5 # energy   -5.01988447 # occ.  2.00000000
 
ion      s      p      d    tot
    1  0.001  0.000  0.001  0.002
    2  0.000  0.000  0.005  0.005
    3  0.000  0.000  0.005  0.005
    4  0.000  0.000  0.005  0.005
    5  0.005  0.001  0.005  0.010
    6  0.000  0.000  0.005  0.005
    7  0.000  0.000  0.005  0.005
    8  0.000  0.000  0.005  0.005
    9  0.001  0.000  0.002  0.003
   10  0.010  0.001  0.005  0.016
   11  0.010  0.000  0.048  0.059
   12  0.010  0.001  0.005  0.016
   13  0.010  0.000  0.048  0.059
   14  0.010  0.000  0.048  0.058
   15  0.000  0.000  0.042  0.042
   16  0.010  0.001  0.005  0.016
   17  0.000  0.000  0.042  0.042
   18  0.000  0.000  0.043  0.043
   19  0.013  0.001  0.023  0.037
   20  0.004  0.001  0.017  0.022
   21  0.003  0.001  0.016  0.021
   22  0.003  0.000  0.060  0.063
   23  0.004  0.001  0.016  0.021
   24  0.002  0.000  0.060  0.063
   25  0.013  0.001  0.022  0.036
   26  0.013  0.001  0.023  0.037
   27  0.003  0.000  0.060  0.063
   28  0.003  0.001  0.004  0.008
   29  0.000  0.000  0.004  0.004
   30  0.000  0.000  0.004  0.004
   31  0.000  0.000  0.004  0.004
   32  0.000  0.000  0.004  0.004
   33  0.000  0.000  0.004  0.004
   34  0.000  0.000  0.004  0.004
   35  0.003  0.001  0.006  0.009
   36  0.000  0.000  0.000  0.000
tot    0.130  0.017  0.654  0.801
 
band     6 # energy   -5.01759186 # occ.  2.00000000
 
ion      s      p      d    tot
    1  0.000  0.000  0.000  0.000
    2  0.000  0.000  0.004  0.004
    3  0.002  0.001  0.005  0.008
    4  0.001  0.000  0.004  0.005
    5  0.000  0.000  0.009  0.009
    6  0.001  0.000  0.003  0.005
    7  0.002  0.001  0.006  0.008
    8  0.000  0.000  0.003  0.004
    9  0.000  0.000  0.007  0.007
   10  0.000  0.000  0.027  0.027
   11  0.008  0.000  0.060  0.068
   12  0.000  0.001  0.032  0.033
   13  0.003  0.000  0.080  0.084
   14  0.022  0.001  0.004  0.027
   15  0.008  0.001  0.027  0.037
   16  0.000  0.001  0.030  0.031
   17  0.003  0.001  0.026  0.031
   18  0.022  0.000  0.029  0.052
   19  0.002  0.000  0.038  0.040
   20  0.006  0.000  0.030  0.036
   21  0.001  0.001  0.014  0.016
   22  0.004  0.001  0.048  0.052
   23  0.002  0.001  0.018  0.021
   24  0.025  0.001  0.012  0.038
   25  0.006  0.001  0.011  0.018
   26  0.001  0.000  0.048  0.049
   27  0.009  0.001  0.039  0.049
   28  0.000  0.000  0.003  0.003
   29  0.002  0.000  0.004  0.007
   30  0.000  0.000  0.002  0.002
   31  0.001  0.000  0.004  0.006
   32  0.001  0.000  0.003  0.005
   33  0.000  0.000  0.002  0.002
   34  0.002  0.001  0.004  0.006
   35  0.000  0.000  0.009  0.009
   36  0.000  0.000  0.000  0.000
tot    0.135  0.017  0.646  0.798
 
band     7 # energy   -5.01757730 # occ.  2.00000000
 
ion      s      p      d    tot
    1  0.000  0.000  0.000  0.000
    2  0.002  0.001  0.005  0.008
    3  0.000  0.000  0.003  0.003
    4  0.002  0.001  0.004  0.006
    5  0.000  0.000  0.009  0.009
    6  0.001  0.000  0.005  0.007
    7  0.000  0.000  0.003  0.003
    8  0.002  0.001  0.006  0.008
    9  0.000  0.000  0.007  0.007
   10  0.000  0.001  0.033  0.034
   11  0.014  0.001  0.036  0.051
   12  0.000  0.000  0.027  0.028
   13  0.019  0.001  0.016  0.035
   14  0.000  0.000  0.092  0.092
   15  0.014  0.001  0.028  0.043
   16  0.000  0.000  0.029  0.029
   17  0.019  0.001  0.029  0.049
   18  0.000  0.001  0.025  0.027
   19  0.004  0.000  0.026  0.031
   20  0.000  0.001  0.011  0.012
   21  0.005  0.000  0.027  0.033
   22  0.021  0.001  0.018  0.040
   23  0.004  0.001  0.023  0.027
   24  0.000  0.001  0.053  0.055
   25  0.000  0.000  0.054  0.054
   26  0.005  0.001  0.016  0.022
   27  0.016  0.001  0.027  0.044
   28  0.000  0.000  0.003  0.003
   29  0.000  0.000  0.002  0.003
   30  0.002  0.001  0.004  0.007
   31  0.001  0.000  0.002  0.004
   32  0.001  0.000  0.003  0.004
   33  0.002  0.001  0.004  0.007
   34  0.000  0.000  0.003  0.003
   35  0.000  0.000  0.009  0.009
   36  0.000  0.000  0.000  0.000
tot    0.135  0.017  0.646  0.798
 
band     8 # energy   -5.00865279 # occ.  2.00000000
 
ion      s      p      d    tot
    1  0.000  0.000  0.008  0.008
    2  0.001  0.000  0.004  0.005
    3  0.000  0.000  0.003  0.003
    4  0.001  0.001  0.006  0.007
    5  0.000  0.000  0.002  0.002
    6  0.001  0.000  0.005  0.007
    7  0.000  0.000  0.003  0.003
    8  0.000  0.000  0.003  0.004
    9  0.000  0.000  0.004  0.004
   10  0.022  0.001  0.022  0.045
   11  0.000  0.001  0.016  0.017
   12  0.016  0.001  0.030  0.047
   13  0.003  0.001  0.031  0.035
   14  0.004  0.000  0.036  0.041
   15  0.000  0.000  0.090  0.090
   16  0.000  0.001  0.050  0.051
   17  0.005  0.000  0.041  0.047
   18  0.007  0.000  0.022  0.030
   19  0.000  0.001  0.016  0.017
   20  0.015  0.001  0.016  0.032
   21  0.011  0.001  0.029  0.041
   22  0.000  0.000  0.034  0.035
   23  0.000  0.000  0.064  0.064
   24  0.000  0.000  0.028  0.029
   25  0.011  0.001  0.026  0.038
   26  0.008  0.001  0.023  0.032
   27  0.000  0.001  0.049  0.049
   28  0.000  0.000  0.004  0.004
   29  0.001  0.000  0.004  0.005
   30  0.001  0.000  0.004  0.005
   31  0.000  0.000  0.002  0.002
   32  0.000  0.000  0.001  0.001
   33  0.001  0.000  0.004  0.005
   34  0.001  0.000  0.003  0.004
   35  0.000  0.000  0.001  0.001
   36  0.000  0.000  0.001  0.001
tot    0.112  0.015  0.683  0.811
 
band     9 # energy   -5.00864860 # occ.  2.00000000
 
ion      s      p      d    tot
    1  0.000  0.000  0.008  0.008
    2  0.001  0.000  0.004  0.005
    3  0.001  0.000  0.005  0.006
    4  0.000  0.000  0.002  0.002
    5  0.000  0.000  0.002  0.002
    6  0.000  0.000  0.002  0.003
    7  0.001  0.001  0.005  0.007
    8  0.001  0.000  0.004  0.006
    9  0.000  0.000  0.004  0.004
   10  0.004  0.001  0.046  0.051
   11  0.005  0.000  0.039  0.045
   12  0.010  0.001  0.038  0.049
   13  0.002  0.001  0.024  0.027
   14  0.001  0.001  0.019  0.021
   15  0.008  0.001  0.012  0.021
   16  0.025  0.001  0.018  0.044
   17  0.003  0.000  0.061  0.064
   18  0.001  0.000  0.080  0.081
   19  0.012  0.001  0.028  0.041
   20  0.002  0.000  0.057  0.060
   21  0.007  0.000  0.043  0.050
   22  0.000  0.000  0.040  0.041
   23  0.017  0.001  0.008  0.027
   24  0.000  0.001  0.045  0.046
   25  0.002  0.001  0.017  0.020
   26  0.005  0.001  0.020  0.026
   27  0.000  0.000  0.026  0.026
   28  0.000  0.000  0.004  0.004
   29  0.000  0.000  0.002  0.003
   30  0.000  0.000  0.002  0.002
   31  0.001  0.000  0.004  0.006
   32  0.001  0.000  0.004  0.006
   33  0.000  0.000  0.002  0.002
   34  0.000  0.000  0.003  0.004
   35  0.000  0.000  0.001  0.001
   36  0.000  0.000  0.001  0.001
tot    0.112  0.015  0.683  0.811
 
band    10 # energy   -4.99041164 # occ.  2.00000000
 
ion      s      p      d    tot
    1  0.001  0.001  0.008  0.010
    2  0.000  0.000  0.009  0.010
    3  0.000  0.000  0.009  0.010
    4  0.000  0.000  0.009  0.010
    5  0.000  0.000  0.004  0.004
    6  0.000  0.000  0.009  0.010
    7  0.000  0.000  0.009  0.010
    8  0.000  0.000  0.009  0.010
    9  0.007  0.000  0.003  0.011
   10  0.005  0.000  0.018  0.023
   11  0.000  0.000  0.056  0.056
   12  0.005  0.000  0.018  0.023
   13  0.000  0.000  0.056  0.056
   14  0.000  0.000  0.056  0.056
   15  0.001  0.000  0.031  0.032
   16  0.005  0.000  0.018  0.023
   17  0.001  0.000  0.031  0.032
   18  0.001  0.000  0.031  0.032
   19  0.003  0.000  0.009  0.012
   20  0.002  0.000  0.035  0.037
   21  0.002  0.000  0.035  0.037
   22  0.001  0.000  0.060  0.061
   23  0.002  0.000  0.035  0.037
   24  0.001  0.000  0.060  0.061
   25  0.003  0.000  0.009  0.012
   26  0.003  0.000  0.009  0.012
   27  0.001  0.000  0.060  0.061
   28  0.006  0.001  0.000  0.007
   29  0.001  0.000  0.010  0.011
   30  0.001  0.000  0.010  0.011
   31  0.001  0.000  0.010  0.011
   32  0.001  0.000  0.010  0.011
   33  0.001  0.000  0.010  0.011
   34  0.001  0.000  0.010  0.011
   35  0.001  0.000  0.015  0.017
   36  0.002  0.000  0.000  0.003
tot    0.060  0.007  0.773  0.841
 
band    11 # energy   -4.97524212 # occ.  2.00000000
 
ion      s      p      d    tot
    1  0.007  0.000  0.013  0.020
    2  0.001  0.000  0.011  0.012
    3  0.001  0.000  0.011  0.012
    4  0.001  0.000  0.011  0.012
    5  0.001  0.001  0.005  0.007
    6  0.001  0.000  0.011  0.012
    7  0.001  0.000  0.011  0.012
    8  0.001  0.000  0.011  0.012
    9  0.001  0.000  0.001  0.003
   10  0.000  0.000  0.054  0.054
   11  0.006  0.000  0.010  0.015
   12  0.000  0.000  0.054  0.055
   13  0.006  0.000  0.010  0.016
   14  0.006  0.000  0.009  0.015
   15  0.001  0.000  0.035  0.037
   16  0.000  0.000  0.054  0.055
   17  0.001  0.000  0.035  0.037
   18  0.001  0.000  0.035  0.037
   19  0.000  0.000  0.057  0.058
   20  0.001  0.001  0.019  0.021
   21  0.001  0.001  0.019  0.021
   22  0.003  0.000  0.020  0.023
   23  0.001  0.001  0.019  0.021
   24  0.003  0.000  0.019  0.023
   25  0.000  0.000  0.057  0.058
   26  0.000  0.000  0.057  0.058
   27  0.003  0.000  0.020  0.023
   28  0.005  0.000  0.019  0.025
   29  0.002  0.000  0.010  0.012
   30  0.002  0.000  0.010  0.012
   31  0.002  0.000  0.010  0.012
   32  0.002  0.000  0.010  0.012
   33  0.002  0.000  0.010  0.012
   34  0.002  0.000  0.010  0.012
   35  0.000  0.000  0.005  0.006
   36  0.005  0.001  0.000  0.006
tot    0.073  0.007  0.755  0.835
 
band    12 # energy   -4.97093054 # occ.  2.00000000
 
ion      s      p      d    tot
    1  0.000  0.000  0.018  0.018
    2  0.003  0.000  0.005  0.008
    3  0.001  0.000  0.008  0.009
    4  0.003  0.000  0.005  0.009
    5  0.000  0.000  0.004  0.004
    6  0.000  0.000  0.008  0.008
    7  0.002  0.000  0.008  0.009
    8  0.000  0.000  0.007  0.008
    9  0.000  0.000  0.010  0.010
   10  0.000  0.000  0.028  0.028
   11  0.001  0.000  0.025  0.026
   12  0.000  0.000  0.035  0.035
   13  0.002  0.000  0.025  0.027
   14  0.000  0.000  0.020  0.020
   15  0.003  0.000  0.024  0.027
   16  0.000  0.000  0.034  0.034
   17  0.003  0.000  0.019  0.022
   18  0.000  0.000  0.058  0.058
   19  0.009  0.000  0.039  0.048
   20  0.000  0.000  0.082  0.082
   21  0.005  0.000  0.026  0.031
   22  0.001  0.000  0.039  0.040
   23  0.004  0.000  0.033  0.038
   24  0.000  0.000  0.009  0.009
   25  0.000  0.000  0.082  0.082
   26  0.011  0.000  0.032  0.043
   27  0.001  0.000  0.036  0.036
   28  0.000  0.000  0.012  0.013
   29  0.000  0.000  0.009  0.010
   30  0.001  0.000  0.006  0.007
   31  0.000  0.000  0.009  0.010
   32  0.002  0.001  0.004  0.007
   33  0.001  0.000  0.006  0.008
   34  0.002  0.001  0.005  0.008
   35  0.000  0.000  0.007  0.007
   36  0.000  0.000  0.000  0.001
tot    0.058  0.008  0.778  0.844
 
band    13 # energy   -4.97088035 # occ.  2.00000000
 
ion      s      p      d    tot
    1  0.000  0.000  0.018  0.018
    2  0.000  0.000  0.008  0.009
    3  0.002  0.000  0.006  0.008
    4  0.000  0.000  0.008  0.008
    5  0.000  0.000  0.004  0.004
    6  0.003  0.000  0.006  0.009
    7  0.001  0.000  0.006  0.008
    8  0.003  0.000  0.007  0.009
    9  0.000  0.000  0.010  0.010
   10  0.001  0.000  0.037  0.037
   11  0.001  0.000  0.022  0.023
   12  0.000  0.000  0.029  0.030
   13  0.000  0.000  0.021  0.022
   14  0.002  0.000  0.027  0.029
   15  0.001  0.000  0.043  0.045
   16  0.000  0.000  0.030  0.031
   17  0.001  0.000  0.048  0.049
   18  0.004  0.000  0.009  0.014
   19  0.004  0.000  0.064  0.068
   20  0.006  0.000  0.012  0.018
   21  0.001  0.000  0.068  0.070
   22  0.000  0.000  0.016  0.017
   23  0.002  0.000  0.061  0.063
   24  0.001  0.000  0.047  0.049
   25  0.013  0.000  0.020  0.034
   26  0.003  0.000  0.070  0.073
   27  0.000  0.000  0.020  0.021
   28  0.000  0.000  0.012  0.013
   29  0.002  0.000  0.004  0.007
   30  0.001  0.001  0.007  0.009
   31  0.002  0.000  0.004  0.007
   32  0.000  0.000  0.009  0.009
   33  0.001  0.001  0.007  0.009
   34  0.000  0.000  0.009  0.009
   35  0.000  0.000  0.007  0.007
   36  0.000  0.000  0.000  0.001
tot    0.058  0.008  0.778  0.844
 
band    14 # energy   -4.96183532 # occ.  2.00000000
 
ion      s      p      d    tot
    1  0.000  0.000  0.006  0.006
    2  0.003  0.001  0.006  0.010
    3  0.001  0.000  0.010  0.011
    4  0.003  0.001  0.006  0.010
    5  0.000  0.000  0.018  0.019
    6  0.000  0.000  0.010  0.011
    7  0.002  0.000  0.010  0.011
    8  0.001  0.000  0.010  0.011
    9  0.000  0.000  0.012  0.012
   10  0.009  0.000  0.008  0.017
   11  0.003  0.000  0.050  0.053
   12  0.002  0.000  0.068  0.070
   13  0.001  0.000  0.054  0.056
   14  0.008  0.000  0.030  0.038
   15  0.000  0.000  0.026  0.026
   16  0.003  0.000  0.057  0.060
   17  0.000  0.000  0.021  0.021
   18  0.000  0.000  0.047  0.047
   19  0.000  0.000  0.027  0.028
   20  0.003  0.000  0.036  0.039
   21  0.000  0.000  0.028  0.029
   22  0.001  0.000  0.063  0.065
   23  0.001  0.000  0.030  0.031
   24  0.008  0.000  0.007  0.015
   25  0.001  0.000  0.025  0.026
   26  0.000  0.000  0.028  0.028
   27  0.003  0.000  0.053  0.056
   28  0.000  0.000  0.003  0.003
   29  0.000  0.000  0.006  0.006
   30  0.001  0.000  0.002  0.003
   31  0.000  0.000  0.006  0.006
   32  0.002  0.000  0.003  0.005
   33  0.001  0.000  0.002  0.003
   34  0.001  0.000  0.004  0.006
   35  0.000  0.000  0.005  0.005
   36  0.000  0.000  0.001  0.001
tot    0.059  0.008  0.777  0.844
 
band    15 # energy   -4.96180777 # occ.  2.00000000
 
ion      s      p      d    tot
    1  0.000  0.000  0.006  0.006
    2  0.000  0.000  0.011  0.012
    3  0.002  0.001  0.007  0.010
    4  0.000  0.000  0.011  0.012
    5  0.000  0.000  0.018  0.019
    6  0.003  0.000  0.007  0.010
    7  0.002  0.001  0.008  0.010
    8  0.003  0.000  0.008  0.011
    9  0.000  0.000  0.012  0.012
   10  0.000  0.000  0.080  0.080
   11  0.005  0.000  0.040  0.045
   12  0.008  0.000  0.020  0.028
   13  0.006  0.000  0.035  0.042
   14  0.000  0.000  0.060  0.060
   15  0.000  0.000  0.037  0.037
   16  0.006  0.000  0.031  0.038
   17  0.000  0.000  0.042  0.042
   18  0.000  0.000  0.015  0.016
   19  0.001  0.000  0.026  0.027
   20  0.000  0.000  0.026  0.026
   21  0.002  0.000  0.034  0.037
   22  0.007  0.000  0.019  0.026
   23  0.002  0.000  0.033  0.035
   24  0.000  0.000  0.075  0.075
   25  0.000  0.000  0.028  0.029
   26  0.001  0.000  0.025  0.027
   27  0.006  0.000  0.029  0.035
   28  0.000  0.000  0.003  0.003
   29  0.001  0.000  0.002  0.003
   30  0.001  0.000  0.006  0.007
   31  0.002  0.000  0.002  0.004
   32  0.000  0.000  0.004  0.005
   33  0.001  0.000  0.005  0.007
   34  0.000  0.000  0.004  0.004
   35  0.000  0.000  0.005  0.005
   36  0.000  0.000  0.001  0.001
tot    0.059  0.008  0.777  0.844
 
band    16 # energy   -4.92609893 # occ.  2.00000000
 
ion      s      p      d    tot
    1  0.001  0.000  0.002  0.003
    2  0.002  0.000  0.010  0.012
    3  0.002  0.000  0.010  0.012
    4  0.002  0.000  0.010  0.012
    5  0.007  0.000  0.007  0.014
    6  0.002  0.000  0.010  0.012
    7  0.002  0.000  0.010  0.012
    8  0.002  0.000  0.010  0.012
    9  0.001  0.000  0.015  0.016
   10  0.001  0.000  0.007  0.008
   11  0.001  0.000  0.017  0.019
   12  0.001  0.000  0.007  0.008
   13  0.001  0.000  0.017  0.019
   14  0.001  0.000  0.017  0.019
   15  0.002  0.000  0.016  0.018
   16  0.001  0.000  0.007  0.008
   17  0.002  0.000  0.016  0.018
   18  0.002  0.000  0.016  0.018
   19  0.002  0.000  0.018  0.020
   20  0.004  0.001  0.034  0.038
   21  0.004  0.001  0.034  0.038
   22  0.001  0.001  0.019  0.021
   23  0.004  0.001  0.034  0.038
   24  0.001  0.001  0.019  0.021
   25  0.002  0.000  0.018  0.020
   26  0.002  0.000  0.018  0.020
   27  0.001  0.001  0.019  0.021
   28  0.006  0.000  0.019  0.025
   29  0.011  0.000  0.027  0.038
   30  0.011  0.000  0.027  0.038
   31  0.011  0.000  0.027  0.038
   32  0.011  0.000  0.027  0.038
   33  0.011  0.000  0.027  0.038
   34  0.011  0.000  0.027  0.038
   35  0.024  0.000  0.021  0.045
   36  0.007  0.000  0.002  0.009
tot    0.150  0.009  0.627  0.786
 
band    17 # energy   -4.81032723 # occ.  2.00000000
 
ion      s      p      d    tot
    1  0.002  0.001  0.006  0.009
    2  0.000  0.000  0.010  0.011
    3  0.000  0.000  0.010  0.011
    4  0.000  0.000  0.010  0.011
    5  0.003  0.001  0.001  0.005
    6  0.000  0.000  0.010  0.010
    7  0.000  0.000  0.010  0.011
    8  0.000  0.000  0.010  0.011
    9  0.000  0.000  0.009  0.009
   10  0.000  0.001  0.043  0.044
   11  0.000  0.000  0.021  0.021
   12  0.000  0.001  0.043  0.044
   13  0.000  0.000  0.021  0.021
   14  0.000  0.000  0.020  0.021
   15  0.002  0.000  0.050  0.053
   16  0.000  0.001  0.043  0.044
   17  0.002  0.000  0.050  0.053
   18  0.002  0.000  0.051  0.053
   19  0.001  0.000  0.031  0.032
   20  0.000  0.000  0.020  0.021
   21  0.000  0.000  0.020  0.021
   22  0.001  0.001  0.059  0.060
   23  0.000  0.000  0.020  0.021
   24  0.001  0.001  0.058  0.060
   25  0.001  0.000  0.031  0.032
   26  0.001  0.000  0.031  0.032
   27  0.001  0.001  0.058  0.060
   28  0.003  0.000  0.007  0.010
   29  0.000  0.000  0.010  0.010
   30  0.000  0.000  0.010  0.010
   31  0.000  0.000  0.010  0.010
   32  0.000  0.000  0.010  0.010
   33  0.000  0.000  0.010  0.010
   34  0.000  0.000  0.010  0.010
   35  0.003  0.001  0.005  0.008
   36  0.003  0.001  0.000  0.005
tot    0.030  0.015  0.815  0.861
 
band    18 # energy   -4.80185548 # occ.  2.00000000
 
ion      s      p      d    tot
    1  0.001  0.000  0.004  0.005
    2  0.000  0.000  0.011  0.012
    3  0.000  0.000  0.010  0.011
    4  0.000  0.000  0.011  0.012
    5  0.000  0.000  0.016  0.016
    6  0.000  0.000  0.010  0.011
    7  0.000  0.000  0.011  0.011
    8  0.000  0.000  0.011  0.011
    9  0.003  0.001  0.001  0.005
   10  0.002  0.000  0.034  0.037
   11  0.000  0.001  0.058  0.059
   12  0.002  0.000  0.032  0.034
   13  0.000  0.001  0.059  0.060
   14  0.000  0.001  0.055  0.056
   15  0.000  0.000  0.023  0.023
   16  0.002  0.000  0.032  0.034
   17  0.000  0.000  0.023  0.023
   18  0.000  0.000  0.023  0.024
   19  0.001  0.001  0.049  0.051
   20  0.001  0.000  0.060  0.061
   21  0.001  0.000  0.056  0.057
   22  0.000  0.000  0.010  0.011
   23  0.001  0.000  0.057  0.058
   24  0.000  0.000  0.008  0.008
   25  0.001  0.001  0.050  0.051
   26  0.001  0.001  0.050  0.051
   27  0.000  0.000  0.010  0.010
   28  0.005  0.001  0.002  0.008
   29  0.001  0.000  0.008  0.009
   30  0.000  0.000  0.009  0.009
   31  0.001  0.000  0.008  0.009
   32  0.001  0.000  0.008  0.009
   33  0.000  0.000  0.009  0.009
   34  0.001  0.000  0.008  0.009
   35  0.000  0.000  0.001  0.001
   36  0.000  0.000  0.002  0.002
tot    0.026  0.014  0.827  0.867
 
band    19 # energy   -4.80040130 # occ.  2.00000000
 
ion      s      p      d    tot
    1  0.000  0.001  0.017  0.018
    2  0.001  0.001  0.009  0.011
    3  0.000  0.000  0.010  0.011
    4  0.001  0.001  0.008  0.010
    5  0.000  0.000  0.005  0.005
    6  0.001  0.000  0.005  0.006
    7  0.000  0.000  0.010  0.010
    8  0.001  0.000  0.005  0.006
    9  0.000  0.000  0.005  0.006
   10  0.000  0.000  0.062  0.062
   11  0.001  0.001  0.031  0.033
   12  0.002  0.000  0.050  0.052
   13  0.001  0.001  0.029  0.031
   14  0.000  0.000  0.000  0.000
   15  0.000  0.000  0.033  0.034
   16  0.002  0.000  0.049  0.051
   17  0.000  0.000  0.036  0.036
   18  0.000  0.000  0.072  0.072
   19  0.001  0.000  0.037  0.038
   20  0.000  0.000  0.012  0.012
   21  0.000  0.001  0.020  0.021
   22  0.003  0.000  0.046  0.049
   23  0.000  0.001  0.020  0.021
   24  0.000  0.000  0.035  0.035
   25  0.000  0.000  0.076  0.076
   26  0.001  0.000  0.039  0.040
   27  0.003  0.000  0.047  0.050
   28  0.000  0.000  0.008  0.009
   29  0.000  0.000  0.005  0.006
   30  0.000  0.000  0.009  0.010
   31  0.000  0.000  0.005  0.006
   32  0.001  0.001  0.004  0.006
   33  0.000  0.000  0.009  0.010
   34  0.001  0.001  0.005  0.006
   35  0.000  0.001  0.017  0.017
   36  0.000  0.000  0.000  0.000
tot    0.021  0.014  0.831  0.866
 
band    20 # energy   -4.80036093 # occ.  2.00000000
 
ion      s      p      d    tot
    1  0.000  0.001  0.017  0.018
    2  0.000  0.000  0.007  0.007
    3  0.002  0.001  0.005  0.007
    4  0.000  0.000  0.007  0.007
    5  0.000  0.000  0.005  0.005
    6  0.001  0.001  0.011  0.012
    7  0.002  0.001  0.006  0.008
    8  0.001  0.001  0.011  0.012
    9  0.000  0.000  0.006  0.006
   10  0.002  0.000  0.044  0.046
   11  0.000  0.000  0.008  0.009
   12  0.001  0.000  0.057  0.058
   13  0.000  0.000  0.009  0.010
   14  0.001  0.001  0.042  0.044
   15  0.000  0.000  0.062  0.062
   16  0.001  0.000  0.058  0.059
   17  0.000  0.000  0.060  0.060
   18  0.000  0.000  0.022  0.023
   19  0.000  0.000  0.064  0.064
   20  0.001  0.001  0.020  0.022
   21  0.000  0.000  0.015  0.016
   22  0.001  0.000  0.040  0.041
   23  0.000  0.000  0.015  0.015
   24  0.004  0.001  0.052  0.056
   25  0.001  0.000  0.025  0.026
   26  0.000  0.000  0.062  0.062
   27  0.001  0.000  0.039  0.040
   28  0.000  0.000  0.008  0.008
   29  0.001  0.001  0.007  0.009
   30  0.001  0.000  0.003  0.005
   31  0.001  0.001  0.007  0.009
   32  0.000  0.000  0.008  0.008
   33  0.001  0.000  0.003  0.005
   34  0.000  0.000  0.008  0.008
   35  0.000  0.001  0.017  0.018
   36  0.000  0.000  0.000  0.000
tot    0.021  0.014  0.831  0.866
 
band    21 # energy   -4.79721526 # occ.  2.00000000
 
ion      s      p      d    tot
    1  0.000  0.000  0.000  0.000
    2  0.001  0.001  0.008  0.010
    3  0.000  0.000  0.010  0.011
    4  0.001  0.001  0.008  0.010
    5  0.000  0.001  0.013  0.014
    6  0.001  0.000  0.005  0.006
    7  0.000  0.000  0.010  0.011
    8  0.001  0.000  0.005  0.006
    9  0.000  0.001  0.015  0.016
   10  0.000  0.001  0.023  0.024
   11  0.000  0.000  0.081  0.081
   12  0.000  0.000  0.028  0.029
   13  0.000  0.000  0.081  0.081
   14  0.001  0.000  0.032  0.033
   15  0.001  0.000  0.030  0.031
   16  0.000  0.000  0.028  0.028
   17  0.001  0.000  0.030  0.031
   18  0.003  0.001  0.051  0.055
   19  0.001  0.000  0.012  0.013
   20  0.003  0.000  0.033  0.037
   21  0.001  0.000  0.058  0.059
   22  0.000  0.000  0.041  0.042
   23  0.001  0.000  0.058  0.059
   24  0.000  0.001  0.020  0.020
   25  0.003  0.001  0.038  0.042
   26  0.001  0.000  0.012  0.013
   27  0.000  0.000  0.041  0.042
   28  0.000  0.000  0.010  0.010
   29  0.001  0.000  0.005  0.006
   30  0.000  0.000  0.008  0.008
   31  0.001  0.000  0.005  0.006
   32  0.002  0.001  0.004  0.007
   33  0.000  0.000  0.008  0.008
   34  0.002  0.001  0.004  0.007
   35  0.000  0.000  0.003  0.003
   36  0.000  0.001  0.001  0.002
tot    0.027  0.016  0.819  0.862
 
band    22 # energy   -4.79717319 # occ.  2.00000000
 
ion      s      p      d    tot
    1  0.000  0.000  0.000  0.000
    2  0.000  0.000  0.008  0.008
    3  0.002  0.001  0.005  0.007
    4  0.000  0.000  0.008  0.008
    5  0.000  0.001  0.013  0.013
    6  0.001  0.001  0.010  0.012
    7  0.002  0.001  0.005  0.007
    8  0.001  0.001  0.010  0.012
    9  0.000  0.001  0.016  0.016
   10  0.000  0.000  0.028  0.028
   11  0.001  0.000  0.048  0.049
   12  0.000  0.001  0.024  0.026
   13  0.001  0.000  0.048  0.049
   14  0.000  0.000  0.097  0.097
   15  0.002  0.001  0.045  0.048
   16  0.000  0.001  0.024  0.025