 vasp.6.2.0 18Jan21 (build Jun 12 2021 23:27:24) complex                        
  
 executed on             LinuxIFC date 2022.05.28  01:31:48
 running on   28 total cores
 distrk:  each k-point on   28 cores,    1 groups
 distr:  one band on NCORE=   1 cores,   28 groups


--------------------------------------------------------------------------------------------------------


 INCAR:
   ISMEAR = -5
   SIGMA = 0.1
   ISPIN = 1
   EDIFF = 1.d-5
   EDIFFG = -0.01
   NSW = 0
   NELM = 150
   ENCUT = 500
   ISIF = 2
   IBRION = 2
   LREAL = Auto
   ALGO = Fast
   ICHARG = 11
   LORBIT = 10
   LCHARG = .F.
   LWAVE = .F.

 POTCAR:    PAW_PBE Ag 02Apr2005                  
 POTCAR:    PAW_PBE Fe 06Sep2000                  
 POTCAR:    PAW_PBE C 08Apr2002                   
 POTCAR:    PAW_PBE O 08Apr2002                   
 -----------------------------------------------------------------------------
|                                                                             |
|           W    W    AA    RRRRR   N    N  II  N    N   GGGG   !!!           |
|           W    W   A  A   R    R  NN   N  II  NN   N  G    G  !!!           |
|           W    W  A    A  R    R  N N  N  II  N N  N  G       !!!           |
|           W WW W  AAAAAA  RRRRR   N  N N  II  N  N N  G  GGG   !            |
|           WW  WW  A    A  R   R   N   NN  II  N   NN  G    G                |
|           W    W  A    A  R    R  N    N  II  N    N   GGGG   !!!           |
|                                                                             |
|     For optimal performance we recommend to set                             |
|       NCORE = 2 up to number-of-cores-per-socket                            |
|     NCORE specifies how many cores store one orbital (NPAR=cpu/NCORE).      |
|     This setting can greatly improve the performance of VASP for DFT.       |
|     The default, NCORE=1 might be grossly inefficient on modern             |
|     multi-core architectures or massively parallel machines. Do your        |
|     own testing! More info at https://www.vasp.at/wiki/index.php/NCORE      |
|     Unfortunately you need to use the default for GW and RPA                |
|     calculations (for HF NCORE is supported but not extensively tested      |
|     yet).                                                                   |
|                                                                             |
 -----------------------------------------------------------------------------

 POTCAR:    PAW_PBE Ag 02Apr2005                  
   VRHFIN =Ag : s1 d10                                                                              
   LEXCH  = PE                                                                                      
   EATOM  =  1037.2675 eV,   76.2370 Ry                                                             
                                                                                                    
   TITEL  = PAW_PBE Ag 02Apr2005                                                                    
   LULTRA =        F    use ultrasoft PP ?                                                          
   IUNSCR =        1    unscreen: 0-lin 1-nonlin 2-no                                               
   RPACOR =    2.000    partial core radius                                                         
   POMASS =  107.868; ZVAL   =   11.000    mass and valenz                                          
   RCORE  =    2.500    outmost cutoff radius                                                       
   RWIGS  =    2.840; RWIGS  =    1.503    wigner-seitz radius (au A)                               
   ENMAX  =  249.844; ENMIN  =  187.383 eV                                                          
   ICORE  =        3    local potential                                                             
   LCOR   =        T    correct aug charges                                                         
   LPAW   =        T    paw PP                                                                      
   EAUG   =  412.496                                                                                
   DEXC   =    0.000                                                                                
   RMAX   =    2.560    core radius for proj-oper                                                   
   RAUG   =    1.300    factor for augmentation sphere                                              
   RDEP   =    2.576    radius for radial grids                                                     
   RDEPT  =    2.072    core radius for aug-charge                                                  
                                                                                                    
   Atomic configuration                                                                             
   12 entries                                                                                       
     n  l   j            E        occ.                                                              
     1  0  0.50    -25324.9161   2.0000                                                             
     2  0  0.50     -3728.5341   2.0000                                                             
     2  1  1.50     -3344.0404   6.0000                                                             
     3  0  0.50      -683.5581   2.0000                                                             
     3  1  1.50      -557.3225   6.0000                                                             
     3  2  2.50      -358.3853  10.0000                                                             
     4  0  0.50       -95.0341   2.0000                                                             
     4  1  1.50       -58.5511   6.0000                                                             
     4  2  2.50        -7.4440  10.0000                                                             
     5  0  0.50        -4.4045   1.0000                                                             
     5  1  0.50        -1.3606   0.0000                                                             
     4  3  2.50        -1.3606   0.0000                                                             
   Description                                                                                      
     l       E           TYP  RCUT    TYP  RCUT                                                     
     2     -7.4439781     23  2.400                                                                 
     2     -8.8045607     23  2.400                                                                 
     0     -4.4044681     23  2.400                                                                 
     0      1.9520038     23  2.400                                                                 
     1     -1.3605826     23  2.500                                                                 
     1     27.2116520     23  2.500                                                                 
     3     -4.0817478     23  2.400                                                                 
  local pseudopotential read in
  partial core-charges read in
  partial kinetic energy density read in
  atomic valenz-charges read in
  non local Contribution for L=           2  read in
    real space projection operators read in
  non local Contribution for L=           2  read in
    real space projection operators read in
  non local Contribution for L=           0  read in
    real space projection operators read in
  non local Contribution for L=           0  read in
    real space projection operators read in
  non local Contribution for L=           1  read in
    real space projection operators read in
  non local Contribution for L=           1  read in
    real space projection operators read in
    PAW grid and wavefunctions read in
 
   number of l-projection  operators is LMAX  =           6
   number of lm-projection operators is LMMAX =          18
 
 POTCAR:    PAW_PBE Fe 06Sep2000                  
   VRHFIN =Fe:  d7 s1                                                                               
   LEXCH  = PE                                                                                      
   EATOM  =   594.3153 eV,   43.6809 Ry                                                             
                                                                                                    
   TITEL  = PAW_PBE Fe 06Sep2000                                                                    
   LULTRA =        F    use ultrasoft PP ?                                                          
   IUNSCR =        1    unscreen: 0-lin 1-nonlin 2-no                                               
   RPACOR =    2.000    partial core radius                                                         
   POMASS =   55.847; ZVAL   =    8.000    mass and valenz                                          
   RCORE  =    2.300    outmost cutoff radius                                                       
   RWIGS  =    2.460; RWIGS  =    1.302    wigner-seitz radius (au A)                               
   ENMAX  =  267.882; ENMIN  =  200.911 eV                                                          
   RCLOC  =    1.701    cutoff for local pot                                                        
   LCOR   =        T    correct aug charges                                                         
   LPAW   =        T    paw PP                                                                      
   EAUG   =  511.368                                                                                
   DEXC   =    0.000                                                                                
   RMAX   =    2.356    core radius for proj-oper                                                   
   RAUG   =    1.300    factor for augmentation sphere                                              
   RDEP   =    2.442    radius for radial grids                                                     
   RDEPT  =    1.890    core radius for aug-charge                                                  
                                                                                                    
   Atomic configuration                                                                             
    9 entries                                                                                       
     n  l   j            E        occ.                                                              
     1  0  0.50     -6993.8440   2.0000                                                             
     2  0  0.50      -814.6047   2.0000                                                             
     2  1  1.50      -693.3689   6.0000                                                             
     3  0  0.50       -89.4732   2.0000                                                             
     3  1  1.50       -55.6373   6.0000                                                             
     3  2  2.50        -3.8151   7.0000                                                             
     4  0  0.50        -4.2551   1.0000                                                             
     4  1  1.50        -3.4015   0.0000                                                             
     4  3  2.50        -1.3606   0.0000                                                             
   Description                                                                                      
     l       E           TYP  RCUT    TYP  RCUT                                                     
     2     -3.8151135     23  2.300                                                                 
     2     -5.1756961     23  2.300                                                                 
     0     -4.2550963     23  2.300                                                                 
     0      7.2035603     23  2.300                                                                 
     1     -2.7211652     23  2.300                                                                 
     1     18.4316424     23  2.300                                                                 
  local pseudopotential read in
  partial core-charges read in
  partial kinetic energy density read in
  atomic valenz-charges read in
  non local Contribution for L=           2  read in
    real space projection operators read in
  non local Contribution for L=           2  read in
    real space projection operators read in
  non local Contribution for L=           0  read in
    real space projection operators read in
  non local Contribution for L=           0  read in
    real space projection operators read in
  non local Contribution for L=           1  read in
    real space projection operators read in
  non local Contribution for L=           1  read in
    real space projection operators read in
    PAW grid and wavefunctions read in
 
   number of l-projection  operators is LMAX  =           6
   number of lm-projection operators is LMMAX =          18
 
 POTCAR:    PAW_PBE C 08Apr2002                   
   VRHFIN =C: s2p2                                                                                  
   LEXCH  = PE                                                                                      
   EATOM  =   147.1560 eV,   10.8157 Ry                                                             
                                                                                                    
   TITEL  = PAW_PBE C 08Apr2002                                                                     
   LULTRA =        F    use ultrasoft PP ?                                                          
   IUNSCR =        1    unscreen: 0-lin 1-nonlin 2-no                                               
   RPACOR =    1.200    partial core radius                                                         
   POMASS =   12.011; ZVAL   =    4.000    mass and valenz                                          
   RCORE  =    1.500    outmost cutoff radius                                                       
   RWIGS  =    1.630; RWIGS  =    0.863    wigner-seitz radius (au A)                               
   ENMAX  =  400.000; ENMIN  =  300.000 eV                                                          
   ICORE  =        2    local potential                                                             
   LCOR   =        T    correct aug charges                                                         
   LPAW   =        T    paw PP                                                                      
   EAUG   =  644.873                                                                                
   DEXC   =    0.000                                                                                
   RMAX   =    1.529    core radius for proj-oper                                                   
   RAUG   =    1.300    factor for augmentation sphere                                              
   RDEP   =    1.501    radius for radial grids                                                     
   RDEPT  =    1.300    core radius for aug-charge                                                  
                                                                                                    
   Atomic configuration                                                                             
    4 entries                                                                                       
     n  l   j            E        occ.                                                              
     1  0  0.50      -273.3789   2.0000                                                             
     2  0  0.50       -13.7508   2.0000                                                             
     2  1  0.50        -5.2854   2.0000                                                             
     3  2  1.50        -5.4423   0.0000                                                             
   Description                                                                                      
     l       E           TYP  RCUT    TYP  RCUT                                                     
     0    -13.7508458     23  1.200                                                                 
     0     -8.2022199     23  1.200                                                                 
     1     -5.2854383     23  1.500                                                                 
     1     34.0145650     23  1.500                                                                 
     2     -5.4423304      7  1.500                                                                 
  local pseudopotential read in
  partial core-charges read in
  partial kinetic energy density read in
  atomic valenz-charges read in
  non local Contribution for L=           0  read in
    real space projection operators read in
  non local Contribution for L=           0  read in
    real space projection operators read in
  non local Contribution for L=           1  read in
    real space projection operators read in
  non local Contribution for L=           1  read in
    real space projection operators read in
    PAW grid and wavefunctions read in
 
   number of l-projection  operators is LMAX  =           4
   number of lm-projection operators is LMMAX =           8
 
 POTCAR:    PAW_PBE O 08Apr2002                   
   VRHFIN =O: s2p4                                                                                  
   LEXCH  = PE                                                                                      
   EATOM  =   432.3788 eV,   31.7789 Ry                                                             
                                                                                                    
   TITEL  = PAW_PBE O 08Apr2002                                                                     
   LULTRA =        F    use ultrasoft PP ?                                                          
   IUNSCR =        1    unscreen: 0-lin 1-nonlin 2-no                                               
   RPACOR =    1.200    partial core radius                                                         
   POMASS =   16.000; ZVAL   =    6.000    mass and valenz                                          
   RCORE  =    1.520    outmost cutoff radius                                                       
   RWIGS  =    1.550; RWIGS  =    0.820    wigner-seitz radius (au A)                               
   ENMAX  =  400.000; ENMIN  =  300.000 eV                                                          
   ICORE  =        2    local potential                                                             
   LCOR   =        T    correct aug charges                                                         
   LPAW   =        T    paw PP                                                                      
   EAUG   =  605.392                                                                                
   DEXC   =    0.000                                                                                
   RMAX   =    1.553    core radius for proj-oper                                                   
   RAUG   =    1.300    factor for augmentation sphere                                              
   RDEP   =    1.550    radius for radial grids                                                     
   RDEPT  =    1.329    core radius for aug-charge                                                  
                                                                                                    
   Atomic configuration                                                                             
    4 entries                                                                                       
     n  l   j            E        occ.                                                              
     1  0  0.50      -514.6923   2.0000                                                             
     2  0  0.50       -23.9615   2.0000                                                             
     2  1  0.50        -9.0305   4.0000                                                             
     3  2  1.50        -9.5241   0.0000                                                             
   Description                                                                                      
     l       E           TYP  RCUT    TYP  RCUT                                                     
     0    -23.9615318     23  1.200                                                                 
     0     -9.5240782     23  1.200                                                                 
     1     -9.0304911     23  1.520                                                                 
     1      8.1634956     23  1.520                                                                 
     2     -9.5240782      7  1.500                                                                 
  local pseudopotential read in
  partial core-charges read in
  partial kinetic energy density read in
  kinetic energy density of atom read in
  atomic valenz-charges read in
  non local Contribution for L=           0  read in
    real space projection operators read in
  non local Contribution for L=           0  read in
    real space projection operators read in
  non local Contribution for L=           1  read in
    real space projection operators read in
  non local Contribution for L=           1  read in
    real space projection operators read in
    PAW grid and wavefunctions read in
 
   number of l-projection  operators is LMAX  =           4
   number of lm-projection operators is LMMAX =           8
 
 Optimization of the real space projectors (new method)

 maximal supplied QI-value         = 15.12
 optimisation between [QCUT,QGAM] = [ 11.34, 22.83] = [ 36.00,145.93] Ry 
 Optimized for a Real-space Cutoff    1.43 Angstroem

   l    n(q)    QCUT    max X(q) W(low)/X(q) W(high)/X(q)  e(spline) 
   2      9    11.338    53.897    0.16E-03    0.20E-03    0.28E-06
   2      9    11.338    52.416    0.16E-03    0.20E-03    0.29E-06
   0     10    11.338   122.045    0.31E-04    0.76E-04    0.15E-06
   0     10    11.338    73.629    0.30E-04    0.72E-04    0.15E-06
   1      9    11.338    15.255    0.20E-03    0.19E-04    0.17E-06
   1      9    11.338     9.562    0.16E-03    0.15E-04    0.14E-06
 Optimization of the real space projectors (new method)

 maximal supplied QI-value         = 16.25
 optimisation between [QCUT,QGAM] = [ 11.38, 22.75] = [ 36.24,144.96] Ry 
 Optimized for a Real-space Cutoff    1.39 Angstroem

   l    n(q)    QCUT    max X(q) W(low)/X(q) W(high)/X(q)  e(spline) 
   2      8    11.376    80.901    0.45E-03    0.44E-04    0.21E-06
   2      8    11.376    75.754    0.45E-03    0.45E-04    0.22E-06
   0      9    11.376    58.752    0.65E-04    0.95E-04    0.17E-06
   0      9    11.376    30.679    0.59E-04    0.87E-04    0.16E-06
   1      9    11.376    17.977    0.38E-03    0.10E-03    0.14E-06
   1      9    11.376    13.559    0.31E-03    0.90E-04    0.12E-06
 Optimization of the real space projectors (new method)

 maximal supplied QI-value         = 25.13
 optimisation between [QCUT,QGAM] = [ 11.31, 22.87] = [ 35.82,146.48] Ry 
 Optimized for a Real-space Cutoff    1.00 Angstroem

   l    n(q)    QCUT    max X(q) W(low)/X(q) W(high)/X(q)  e(spline) 
   0      7    11.310   115.676    0.43E-03    0.13E-02    0.19E-06
   0      7    11.310    87.132    0.43E-03    0.13E-02    0.18E-06
   1      6    11.310     4.429    0.42E-03    0.74E-03    0.11E-06
   1      6    11.310     2.733    0.34E-03    0.55E-03    0.92E-07
 Optimization of the real space projectors (new method)

 maximal supplied QI-value         = 24.76
 optimisation between [QCUT,QGAM] = [ 11.39, 22.77] = [ 36.31,145.25] Ry 
 Optimized for a Real-space Cutoff    1.00 Angstroem

   l    n(q)    QCUT    max X(q) W(low)/X(q) W(high)/X(q)  e(spline) 
   0      7    11.387    20.381    0.39E-03    0.13E-02    0.15E-06
   0      7    11.387    15.268    0.42E-03    0.14E-02    0.17E-06
   1      6    11.387     5.964    0.41E-03    0.11E-02    0.17E-06
   1      6    11.387     5.382    0.39E-03    0.87E-03    0.15E-06
  PAW_PBE Ag 02Apr2005                  :
 energy of atom  1       EATOM=-1037.2675
 kinetic energy error for atom=    0.0052 (will be added to EATOM!!)
  PAW_PBE Fe 06Sep2000                  :
 energy of atom  2       EATOM= -594.3153
 kinetic energy error for atom=    0.0026 (will be added to EATOM!!)
  PAW_PBE C 08Apr2002                   :
 energy of atom  3       EATOM= -147.1560
 kinetic energy error for atom=    0.0076 (will be added to EATOM!!)
  PAW_PBE O 08Apr2002                   :
 energy of atom  4       EATOM= -432.3788
 kinetic energy error for atom=    0.0224 (will be added to EATOM!!)
 
 
 POSCAR: Ag-Fe-CO2
  positions in direct lattice
  velocities in cartesian coordinates
 exchange correlation table for  LEXCH =        8
   RHO(1)=    0.500       N(1)  =     2000
   RHO(2)=  100.500       N(2)  =     4000

 VTST: version 3.2, (02/03/18)

 CHAIN: initializing optimizer
 
 OPT: Using VASP Conjugate-Gradient optimizer
 CHAIN: Read ICHAIN            0
 
 POSCAR: Ag-Fe-CO2
  positions in direct lattice
  velocities in cartesian coordinates
 


--------------------------------------------------------------------------------------------------------


 ion  position               nearest neighbor table
   1  0.000  0.000  0.217-   2 2.93   8 2.93   7 2.93   6 2.93   4 2.93  12 2.93  16 2.93  10 2.93
                             3 2.93
   2  0.333  0.000  0.217-   1 2.93   8 2.93   9 2.93   3 2.93   4 2.93   5 2.93  10 2.93  17 2.93
                            11 2.93
   3  0.667  0.000  0.217-   9 2.93   2 2.93   5 2.93  11 2.93   7 2.93  18 2.93   1 2.93   6 2.93
                            12 2.93
   4  0.000  0.333  0.217-   5 2.93   6 2.93   2 2.93   1 2.93   7 2.93  13 2.93  15 2.93   9 2.93
                            10 2.93
   5  0.333  0.333  0.217-   4 2.93   3 2.93   7 2.93   2 2.93   8 2.93  14 2.93  13 2.93  11 2.93
                             6 2.93
   6  0.667  0.333  0.217-   4 2.93   9 2.93   1 2.93  15 2.93   8 2.93  12 2.93   3 2.93   5 2.93
                            14 2.93
   7  0.000  0.667  0.217-   8 2.93   1 2.93   5 2.93   3 2.93   4 2.93  16 2.93  18 2.93  13 2.93
                             9 2.93
   8  0.333  0.667  0.217-   7 2.93   1 2.93   2 2.93   9 2.93   5 2.93  16 2.93   6 2.93  17 2.93
                            14 2.93
   9  0.667  0.667  0.217-   3 2.93   2 2.93   8 2.93   6 2.93  17 2.93   4 2.93  15 2.93   7 2.93
                            18 2.93
  10  0.111  0.111  0.315-  20 2.92  19 2.93  26 2.93  12 2.93  16 2.93  15 2.93  17 2.93  13 2.93
                            11 2.93   2 2.93   1 2.93   4 2.93
  11  0.444  0.111  0.315-  21 2.90  20 2.90  27 2.92  14 2.93  17 2.93  18 2.93   3 2.93  12 2.93
                            13 2.93  10 2.93   5 2.93   2 2.93
  12  0.778  0.111  0.315-  21 2.92  25 2.93  19 2.93  10 2.93  16 2.93  18 2.93  15 2.93  11 2.93
                             1 2.93  14 2.93   6 2.93   3 2.93
  13  0.111  0.444  0.315-  20 2.90  23 2.90  22 2.92  15 2.93  14 2.93  18 2.93  10 2.93  11 2.93
                            16 2.93   4 2.93   5 2.93   7 2.93
  14  0.444  0.444  0.315-  23 2.90  21 2.90  24 2.92  13 2.93  11 2.93  16 2.93   5 2.93  12 2.93
                            17 2.93   8 2.93  15 2.93   6 2.93
  15  0.778  0.444  0.315-  24 2.92  22 2.92  19 2.93  13 2.93  10 2.93  12 2.93  17 2.93  18 2.93
                             4 2.93   6 2.93   9 2.93  14 2.93
  16  0.111  0.778  0.315-  23 2.92  26 2.93  25 2.93  18 2.93  12 2.93  10 2.93  14 2.93  17 2.93
                            13 2.93   7 2.93   8 2.93   1 2.93
  17  0.444  0.778  0.315-  27 2.92  24 2.92  26 2.93  11 2.93  10 2.93   9 2.93  18 2.93  15 2.93
                            16 2.93   2 2.93  14 2.93   8 2.93
  18  0.778  0.778  0.315-  22 2.92  27 2.92  25 2.93  16 2.93  12 2.93  13 2.93  11 2.93  17 2.93
                            15 2.93   7 2.93   3 2.93   9 2.93
  19  0.889  0.222  0.413-  28 2.91  15 2.93  10 2.93  12 2.93  24 2.93  22 2.93  26 2.93  25 2.93
                            20 2.94  21 2.94  32 2.94  31 2.94
  20  0.223  0.223  0.412-  36 2.70  31 2.89  29 2.89  13 2.90  11 2.90  21 2.91  23 2.91  10 2.92
                            27 2.94  22 2.94  19 2.94  26 2.94
  21  0.554  0.223  0.412-  36 2.70  30 2.89  32 2.89  11 2.90  14 2.90  20 2.91  23 2.91  12 2.92
                            27 2.94  24 2.94  25 2.94  19 2.94
  22  0.888  0.556  0.413-  35 2.91  18 2.92  15 2.92  33 2.92  31 2.92  13 2.92  24 2.92  27 2.92
                            25 2.93  19 2.93  23 2.94  20 2.94
  23  0.223  0.554  0.412-  36 2.70  34 2.89  33 2.89  14 2.90  13 2.90  21 2.91  20 2.91  16 2.92
                            22 2.94  24 2.94  26 2.94  25 2.94
  24  0.556  0.556  0.413-  35 2.91  15 2.92  17 2.92  32 2.92  34 2.92  14 2.92  27 2.92  22 2.92
                            19 2.93  26 2.93  23 2.94  21 2.94
  25  0.889  0.889  0.413-  28 2.91  18 2.93  16 2.93  12 2.93  22 2.93  27 2.93  26 2.93  19 2.93
                            23 2.94  21 2.94  33 2.94  30 2.94
  26  0.222  0.889  0.413-  28 2.91  17 2.93  16 2.93  10 2.93  27 2.93  24 2.93  25 2.93  19 2.93
                            23 2.94  20 2.94  34 2.94  29 2.94
  27  0.556  0.888  0.413-  35 2.91  17 2.92  18 2.92  29 2.92  30 2.92  11 2.92  24 2.92  22 2.92
                            26 2.93  25 2.93  20 2.94  21 2.94
  28  0.000  0.000  0.510-  26 2.91  25 2.91  19 2.91  29 2.97  34 2.97  33 2.97  32 2.97  31 2.97
                            30 2.97
  29  0.333  0.008  0.510-  31 2.86  30 2.86  36 2.87  20 2.89  27 2.92  26 2.94  28 2.97  35 2.97
                            34 3.07
  30  0.659  0.008  0.510-  32 2.86  29 2.86  36 2.87  21 2.89  27 2.92  25 2.94  28 2.97  35 2.97
                            33 3.07
  31  0.008  0.333  0.510-  38 2.69  29 2.86  33 2.86  36 2.87  20 2.89  22 2.92  19 2.94  28 2.97
                            35 2.97  32 3.07
  32  0.659  0.333  0.510-  39 2.69  30 2.86  34 2.86  36 2.87  21 2.89  24 2.92  19 2.94  28 2.97
                            35 2.97  31 3.07
  33  0.008  0.659  0.510-  34 2.86  31 2.86  36 2.87  23 2.89  22 2.92  25 2.94  28 2.97  35 2.97
                            30 3.07
  34  0.333  0.659  0.510-  33 2.86  32 2.86  36 2.87  23 2.89  24 2.92  26 2.94  28 2.97  35 2.97
                            29 3.07
  35  0.667  0.667  0.510-  24 2.91  27 2.91  22 2.91  32 2.97  30 2.97  29 2.97  34 2.97  31 2.97
                            33 2.97
  36  0.333  0.333  0.499-  37 1.89  21 2.70  20 2.70  23 2.70  31 2.87  30 2.87  33 2.87  29 2.87
                            34 2.87  32 2.87
  37  0.333  0.334  0.577-  38 1.25  39 1.25  36 1.89
  38  0.201  0.333  0.596-  37 1.25  31 2.69
  39  0.466  0.333  0.596-  37 1.25  32 2.69
 
  LATTYP: Found a hexagonal cell.
 ALAT       =     8.7913665772
 C/A-ratio  =     2.7703738524
  
  Lattice vectors:
  
 A1 = (  -4.3956832886,  -7.6135467898,   0.0000000000)
 A2 = (   8.7913665771,   0.0000000000,   0.0000000000)
 A3 = (   0.0000000000,   0.0000000000,  24.3553720923)


Analysis of symmetry for initial positions (statically):
=====================================================================
 Subroutine PRICEL returns:
 Original cell was already a primitive cell.
 

 Routine SETGRP: Setting up the symmetry group for a 
 hexagonal supercell.


 Subroutine GETGRP returns: Found  1 space group operations
 (whereof  1 operations were pure point group operations)
 out of a pool of 24 trial point group operations.


The static configuration has the point symmetry C_1 .


Analysis of symmetry for dynamics (positions and initial velocities):
=====================================================================
 Subroutine PRICEL returns:
 Original cell was already a primitive cell.
 

 Routine SETGRP: Setting up the symmetry group for a 
 hexagonal supercell.


 Subroutine GETGRP returns: Found  1 space group operations
 (whereof  1 operations were pure point group operations)
 out of a pool of 24 trial point group operations.


The dynamic configuration has the point symmetry C_1 .


Analysis of constrained symmetry for selective dynamics:
=====================================================================
 Subroutine PRICEL returns:
 Original cell was already a primitive cell.
 

 Routine SETGRP: Setting up the symmetry group for a 
 hexagonal supercell.


 Subroutine GETGRP returns: Found  1 space group operations
 (whereof  1 operations were pure point group operations)
 out of a pool of 24 trial point group operations.


The constrained configuration has the point symmetry C_1 .


 Subroutine INISYM returns: Found  1 space group operations
 (whereof  1 operations are pure point group operations),
 and found     1 'primitive' translations


----------------------------------------------------------------------------------------

                                     Primitive cell                                     

  volume of cell :    1630.1898

  direct lattice vectors                    reciprocal lattice vectors
     8.791366577  0.000000000  0.000000000     0.113747958 -0.065672414  0.000000000
     4.395683289  7.613546790  0.000000000     0.000000000  0.131344829  0.000000000
     0.000000000  0.000000000 24.355372092     0.000000000  0.000000000  0.041058703

  length of vectors
     8.791366577  8.791366577 24.355372092     0.131344829  0.131344829  0.041058703

  position of ions in fractional coordinates (direct lattice)
     0.000000000  0.000000000  0.216879796
     0.333333313  0.000000000  0.216879796
     0.666666627  0.000000000  0.216879796
     1.000000000  0.333333343  0.216879796
     0.333333313  0.333333343  0.216879796
     0.666666687  0.333333343  0.216879796
     1.000000000  0.666666687  0.216879796
     0.333333313  0.666666687  0.216879796
     0.666666627  0.666666687  0.216879796
     0.111111104  0.111111112  0.315121252
     0.444444448  0.111111112  0.315121252
     0.777777791  0.111111112  0.315121252
     0.111111097  0.444444448  0.315121252
     0.444444418  0.444444448  0.315121252
     0.777777791  0.444444448  0.315121252
     0.111111104  0.777777791  0.315121252
     0.444444448  0.777777791  0.315121252
     0.777777791  0.777777791  0.315121252
     0.888789545  0.222420926  0.413159449
     0.223169922  0.223169937  0.412214512
     0.553660096  0.223169937  0.412214512
     0.888210350  0.555894855  0.412729194
     0.223169937  0.553660156  0.412214512
     0.555894855  0.555894855  0.412729194
     0.888789545  0.888789545  0.413159449
     0.222420896  0.888789545  0.413159449
     0.555894795  0.888210350  0.412729194
     0.000000000  0.000000000  0.510238040
     0.333170386  0.008273592  0.510268298
     0.658555962  0.008273592  0.510268298
     0.008273592  0.333170416  0.510268298
     0.658556022  0.333170416  0.510268298
     0.008273592  0.658556022  0.510268298
     0.333170386  0.658556022  0.510268298
     0.666666627  0.666666687  0.510057456
     0.333333313  0.333333343  0.498938333
     0.332626362  0.334410306  0.576642451
     0.201313827  0.332568459  0.596032502
     0.465794345  0.332532895  0.596036126

  ion indices of the primitive-cell ions
   primitive index   ion index
                 1           1
                 2           2
                 3           3
                 4           4
                 5           5
                 6           6
                 7           7
                 8           8
                 9           9
                10          10
                11          11
                12          12
                13          13
                14          14
                15          15
                16          16
                17          17
                18          18
                19          19
                20          20
                21          21
                22          22
                23          23
                24          24
                25          25
                26          26
                27          27
                28          28
                29          29
                30          30
                31          31
                32          32
                33          33
                34          34
                35          35
                36          36
                37          37
                38          38
                39          39

----------------------------------------------------------------------------------------

 
 
 KPOINTS: Automatic mesh                          

Automatic generation of k-mesh.
 Grid dimensions read from file:
 generate k-points for:    8    8    1

 Generating k-lattice:

  Cartesian coordinates                     Fractional coordinates (reciprocal lattice)
     0.014218495 -0.008209052  0.000000000     0.125000000 -0.000000000  0.000000000
     0.000000000  0.016418104  0.000000000     0.000000000  0.125000000  0.000000000
     0.000000000  0.000000000  0.041058703     0.000000000  0.000000000  1.000000000

  Length of vectors
     0.016418104  0.016418104  0.041058703

  Shift w.r.t. Gamma in fractional coordinates (k-lattice)
     0.000000000  0.000000000  0.000000000

 TETIRR: Found    192 inequivalent tetrahedra from      384
 
 Subroutine IBZKPT returns following result:
 ===========================================
 
 Found     34 irreducible k-points:
 
 Following reciprocal coordinates:
            Coordinates               Weight
  0.000000  0.000000  0.000000      1.000000
  0.125000  0.000000  0.000000      2.000000
  0.125000  0.125000  0.000000      2.000000
  0.000000  0.125000  0.000000      2.000000
  0.250000  0.000000  0.000000      2.000000
  0.250000  0.250000  0.000000      2.000000
  0.000000  0.250000  0.000000      2.000000
  0.375000  0.000000  0.000000      2.000000
  0.375000  0.375000  0.000000      2.000000
  0.000000  0.375000  0.000000      2.000000
  0.500000  0.000000  0.000000      1.000000
  0.500000  0.500000  0.000000      1.000000
  0.000000  0.500000  0.000000      1.000000
  0.250000  0.125000  0.000000      2.000000
  0.125000  0.250000  0.000000      2.000000
 -0.125000  0.125000  0.000000      2.000000
  0.375000  0.125000  0.000000      2.000000
  0.250000  0.375000  0.000000      2.000000
 -0.125000  0.250000  0.000000      2.000000
  0.250000 -0.125000  0.000000      2.000000
 -0.125000 -0.375000  0.000000      2.000000
 -0.375000 -0.250000  0.000000      2.000000
  0.500000  0.125000  0.000000      2.000000
  0.375000  0.500000  0.000000      2.000000
 -0.125000  0.375000  0.000000      2.000000
  0.375000 -0.125000  0.000000      2.000000
 -0.125000  0.500000  0.000000      2.000000
  0.500000 -0.375000  0.000000      2.000000
  0.500000  0.250000  0.000000      2.000000
  0.250000  0.500000  0.000000      2.000000
 -0.250000  0.250000  0.000000      2.000000
 -0.375000  0.250000  0.000000      2.000000
  0.375000 -0.375000  0.000000      2.000000
 -0.250000  0.375000  0.000000      2.000000
 
 Following cartesian coordinates:
            Coordinates               Weight
  0.000000  0.000000  0.000000      1.000000
  0.014218 -0.008209  0.000000      2.000000
  0.014218  0.008209  0.000000      2.000000
  0.000000  0.016418  0.000000      2.000000
  0.028437 -0.016418  0.000000      2.000000
  0.028437  0.016418  0.000000      2.000000
  0.000000  0.032836  0.000000      2.000000
  0.042655 -0.024627  0.000000      2.000000
  0.042655  0.024627  0.000000      2.000000
  0.000000  0.049254  0.000000      2.000000
  0.056874 -0.032836  0.000000      1.000000
  0.056874  0.032836  0.000000      1.000000
  0.000000  0.065672  0.000000      1.000000
  0.028437 -0.000000  0.000000      2.000000
  0.014218  0.024627  0.000000      2.000000
 -0.014218  0.024627  0.000000      2.000000
  0.042655 -0.008209  0.000000      2.000000
  0.028437  0.032836  0.000000      2.000000
 -0.014218  0.041045  0.000000      2.000000
  0.028437 -0.032836  0.000000      2.000000
 -0.014218 -0.041045  0.000000      2.000000
 -0.042655 -0.008209  0.000000      2.000000
  0.056874 -0.016418  0.000000      2.000000
  0.042655  0.041045  0.000000      2.000000
 -0.014218  0.057463  0.000000      2.000000
  0.042655 -0.041045  0.000000      2.000000
 -0.014218  0.073881  0.000000      2.000000
  0.056874 -0.082091  0.000000      2.000000
  0.056874 -0.000000  0.000000      2.000000
  0.028437  0.049254  0.000000      2.000000
 -0.028437  0.049254  0.000000      2.000000
 -0.042655  0.057463  0.000000      2.000000
  0.042655 -0.073881  0.000000      2.000000
 -0.028437  0.065672  0.000000      2.000000
 


--------------------------------------------------------------------------------------------------------




 Dimension of arrays:
   k-points           NKPTS =     34   k-points in BZ     NKDIM =     34   number of bands    NBANDS=    252
   number of dos      NEDOS =    301   number of ions     NIONS =     39
   non local maximal  LDIM  =      6   non local SUM 2l+1 LMDIM =     18
   total plane-waves  NPLWV = 322560
   max r-space proj   IRMAX =   2481   max aug-charges    IRDMAX=   9927
   dimension x,y,z NGX =    48 NGY =   48 NGZ =  140
   dimension x,y,z NGXF=    96 NGYF=   96 NGZF=  280
   support grid    NGXF=    96 NGYF=   96 NGZF=  280
   ions per type =              35   1   1   2
   NGX,Y,Z   is equivalent  to a cutoff of   9.08,  9.08,  9.56 a.u.
   NGXF,Y,Z  is equivalent  to a cutoff of  18.15, 18.15, 19.11 a.u.

 SYSTEM =  unknown system                          
 POSCAR =  Ag-Fe-CO2                               

 Startparameter for this run:
   NWRITE =      2    write-flag & timer
   PREC   = normal    normal or accurate (medium, high low for compatibility)
   ISTART =      0    job   : 0-new  1-cont  2-samecut
   ICHARG =     11    charge: 1-file 2-atom 10-const
   ISPIN  =      1    spin polarized calculation?
   LNONCOLLINEAR =      F non collinear calculations
   LSORBIT =      F    spin-orbit coupling
   INIWAV =      1    electr: 0-lowe 1-rand  2-diag
   LASPH  =      F    aspherical Exc in radial PAW
   METAGGA=      F    non-selfconsistent MetaGGA calc.

 Electronic Relaxation 1
   ENCUT  =  500.0 eV  36.75 Ry    6.06 a.u.  16.03 16.03 44.41*2*pi/ulx,y,z
   ENINI  =  500.0     initial cutoff
   ENAUG  =  644.9 eV  augmentation charge cutoff
   NELM   =    150;   NELMIN=  2; NELMDL= -5     # of ELM steps 
   EDIFF  = 0.1E-04   stopping-criterion for ELM
   LREAL  =      T    real-space projection
   NLSPLINE    = F    spline interpolate recip. space projectors
   LCOMPAT=      F    compatible to vasp.4.4
   GGA_COMPAT  = T    GGA compatible to vasp.4.4-vasp.4.6
   LMAXPAW     = -100 max onsite density
   LMAXMIX     =    2 max onsite mixed and CHGCAR
   VOSKOWN=      0    Vosko Wilk Nusair interpolation
   ROPT   =   -0.00050  -0.00050  -0.00050  -0.00050
 Ionic relaxation
   EDIFFG = -.1E-01   stopping-criterion for IOM
   NSW    =      0    number of steps for IOM
   NBLOCK =      1;   KBLOCK =      1    inner block; outer block 
   IBRION =     -1    ionic relax: 0-MD 1-quasi-New 2-CG
   NFREE  =      1    steps in history (QN), initial steepest desc. (CG)
   ISIF   =      2    stress and relaxation
   IWAVPR =     10    prediction:  0-non 1-charg 2-wave 3-comb
   ISYM   =      2    0-nonsym 1-usesym 2-fastsym
   LCORR  =      T    Harris-Foulkes like correction to forces

   POTIM  = 0.5000    time-step for ionic-motion
   TEIN   =    0.0    initial temperature
   TEBEG  =    0.0;   TEEND  =   0.0 temperature during run
   SMASS  =  -3.00    Nose mass-parameter (am)
   estimated Nose-frequenzy (Omega)   =  0.10E-29 period in steps = 0.13E+47 mass=  -0.177E-26a.u.
   SCALEE = 1.0000    scale energy and forces
   NPACO  =    256;   APACO  = 16.0  distance and # of slots for P.C.
   PSTRESS=    0.0 pullay stress

  Mass of Ions in am
   POMASS = 107.87 55.85 12.01 16.00
  Ionic Valenz
   ZVAL   =  11.00  8.00  4.00  6.00
  Atomic Wigner-Seitz radii
   RWIGS  =  -1.00 -1.00 -1.00 -1.00
  virtual crystal weights 
   VCA    =   1.00  1.00  1.00  1.00
   NELECT =     409.0000    total number of electrons
   NUPDOWN=      -1.0000    fix difference up-down

 DOS related values:
   EMIN   =  10.00;   EMAX   =-10.00  energy-range for DOS
   EFERMI =   0.00
   ISMEAR =    -5;   SIGMA  =   0.10  broadening in eV -4-tet -1-fermi 0-gaus

 Electronic relaxation 2 (details)
   IALGO  =     68    algorithm
   LDIAG  =      T    sub-space diagonalisation (order eigenvalues)
   LSUBROT=      F    optimize rotation matrix (better conditioning)
   TURBO    =      0    0=normal 1=particle mesh
   IRESTART =      0    0=no restart 2=restart with 2 vectors
   NREBOOT  =      0    no. of reboots
   NMIN     =      0    reboot dimension
   EREF     =   0.00    reference energy to select bands
   IMIX   =      4    mixing-type and parameters
     AMIX     =   0.40;   BMIX     =  1.00
     AMIX_MAG =   1.60;   BMIX_MAG =  1.00
     AMIN     =   0.10
     WC   =   100.;   INIMIX=   1;  MIXPRE=   1;  MAXMIX= -45

 Intra band minimization:
   WEIMIN = 0.0000     energy-eigenvalue tresh-hold
   EBREAK =  0.99E-08  absolut break condition
   DEPER  =   0.30     relativ break condition  

   TIME   =   0.40     timestep for ELM

  volume/ion in A,a.u.               =      41.80       282.08
  Fermi-wavevector in a.u.,A,eV,Ry     =   1.032531  1.951201 14.505454  1.066121
  Thomas-Fermi vector in A             =   2.166734
 
 Write flags
   LWAVE        =      F    write WAVECAR
   LDOWNSAMPLE  =      F    k-point downsampling of WAVECAR
   LCHARG       =      F    write CHGCAR
   LVTOT        =      F    write LOCPOT, total local potential
   LVHAR        =      F    write LOCPOT, Hartree potential only
   LELF         =      F    write electronic localiz. function (ELF)
   LORBIT       =     10    0 simple, 1 ext, 2 COOP (PROOUT), +10 PAW based schemes


 Dipole corrections
   LMONO  =      F    monopole corrections only (constant potential shift)
   LDIPOL =      F    correct potential (dipole corrections)
   IDIPOL =      0    1-x, 2-y, 3-z, 4-all directions 
   EPSILON=  1.0000000 bulk dielectric constant

 Exchange correlation treatment:
   GGA     =    --    GGA type
   LEXCH   =     8    internal setting for exchange type
   VOSKOWN=      0    Vosko Wilk Nusair interpolation
   LHFCALC =     F    Hartree Fock is set to
   LHFONE  =     F    Hartree Fock one center treatment
   AEXX    =    0.0000 exact exchange contribution

 Linear response parameters
   LEPSILON=     F    determine dielectric tensor
   LRPA    =     F    only Hartree local field effects (RPA)
   LNABLA  =     F    use nabla operator in PAW spheres
   LVEL    =     F    velocity operator in full k-point grid
   LINTERFAST=   F  fast interpolation
   KINTER  =     0    interpolate to denser k-point grid
   CSHIFT  =0.1000    complex shift for real part using Kramers Kronig
   OMEGAMAX=  -1.0    maximum frequency
   DEG_THRESHOLD= 0.2000000E-02 threshold for treating states as degnerate
   RTIME   =   -0.100 relaxation time in fs
  (WPLASMAI=    0.000 imaginary part of plasma frequency in eV, 0.658/RTIME)
   DFIELD  = 0.0000000 0.0000000 0.0000000 field for delta impulse in time
 
 Orbital magnetization related:
   ORBITALMAG=     F  switch on orbital magnetization
   LCHIMAG   =     F  perturbation theory with respect to B field
   DQ        =  0.001000  dq finite difference perturbation B field
   LLRAUG    =     F  two centre corrections for induced B field



--------------------------------------------------------------------------------------------------------


 Static calculation
 charge density and potential remain constant during run
 non-spin polarized calculation
 RMM-DIIS sequential band-by-band and
  variant of blocked Davidson during initial phase
 perform sub-space diagonalisation
    before iterative eigenvector-optimisation
 no mixing
 using additional bands           47
 real space projection scheme for non local part
 use partial core corrections
 calculate Harris-corrections to forces 
   (improved forces if not selfconsistent)
 use gradient corrections 
 WARNING: stress and forces are not correct
  (second derivative of E(xc) not defined)
 use of overlap-Matrix (Vanderbilt PP)
 Fermi weights with tetrahedron method with Bloechl corrections


--------------------------------------------------------------------------------------------------------


  energy-cutoff  :      500.00
  volume of cell :     1630.19
      direct lattice vectors                 reciprocal lattice vectors
     8.791366577  0.000000000  0.000000000     0.113747958 -0.065672414  0.000000000
     4.395683289  7.613546790  0.000000000     0.000000000  0.131344829  0.000000000
     0.000000000  0.000000000 24.355372092     0.000000000  0.000000000  0.041058703

  length of vectors
     8.791366577  8.791366577 24.355372092     0.131344829  0.131344829  0.041058703


 
 k-points in units of 2pi/SCALE and weight: Automatic mesh                          
   0.00000000  0.00000000  0.00000000       0.016
   0.01421849 -0.00820905  0.00000000       0.031
   0.01421849  0.00820905  0.00000000       0.031
   0.00000000  0.01641810  0.00000000       0.031
   0.02843699 -0.01641810  0.00000000       0.031
   0.02843699  0.01641810  0.00000000       0.031
   0.00000000  0.03283621  0.00000000       0.031
   0.04265548 -0.02462716  0.00000000       0.031
   0.04265548  0.02462716  0.00000000       0.031
   0.00000000  0.04925431  0.00000000       0.031
   0.05687398 -0.03283621  0.00000000       0.016
   0.05687398  0.03283621  0.00000000       0.016
   0.00000000  0.06567241  0.00000000       0.016
   0.02843699 -0.00000000  0.00000000       0.031
   0.01421849  0.02462716  0.00000000       0.031
  -0.01421849  0.02462716  0.00000000       0.031
   0.04265548 -0.00820905  0.00000000       0.031
   0.02843699  0.03283621  0.00000000       0.031
  -0.01421849  0.04104526  0.00000000       0.031
   0.02843699 -0.03283621  0.00000000       0.031
  -0.01421849 -0.04104526  0.00000000       0.031
  -0.04265548 -0.00820905  0.00000000       0.031
   0.05687398 -0.01641810  0.00000000       0.031
   0.04265548  0.04104526  0.00000000       0.031
  -0.01421849  0.05746336  0.00000000       0.031
   0.04265548 -0.04104526  0.00000000       0.031
  -0.01421849  0.07388147  0.00000000       0.031
   0.05687398 -0.08209052  0.00000000       0.031
   0.05687398 -0.00000000  0.00000000       0.031
   0.02843699  0.04925431  0.00000000       0.031
  -0.02843699  0.04925431  0.00000000       0.031
  -0.04265548  0.05746336  0.00000000       0.031
   0.04265548 -0.07388147  0.00000000       0.031
  -0.02843699  0.06567241  0.00000000       0.031
 
 k-points in reciprocal lattice and weights: Automatic mesh                          
   0.00000000  0.00000000  0.00000000       0.016
   0.12500000  0.00000000  0.00000000       0.031
   0.12500000  0.12500000  0.00000000       0.031
   0.00000000  0.12500000  0.00000000       0.031
   0.25000000  0.00000000  0.00000000       0.031
   0.25000000  0.25000000  0.00000000       0.031
   0.00000000  0.25000000  0.00000000       0.031
   0.37500000  0.00000000  0.00000000       0.031
   0.37500000  0.37500000  0.00000000       0.031
   0.00000000  0.37500000  0.00000000       0.031
   0.50000000  0.00000000  0.00000000       0.016
   0.50000000  0.50000000  0.00000000       0.016
   0.00000000  0.50000000  0.00000000       0.016
   0.25000000  0.12500000  0.00000000       0.031
   0.12500000  0.25000000  0.00000000       0.031
  -0.12500000  0.12500000  0.00000000       0.031
   0.37500000  0.12500000  0.00000000       0.031
   0.25000000  0.37500000  0.00000000       0.031
  -0.12500000  0.25000000  0.00000000       0.031
   0.25000000 -0.12500000  0.00000000       0.031
  -0.12500000 -0.37500000  0.00000000       0.031
  -0.37500000 -0.25000000  0.00000000       0.031
   0.50000000  0.12500000  0.00000000       0.031
   0.37500000  0.50000000  0.00000000       0.031
  -0.12500000  0.37500000  0.00000000       0.031
   0.37500000 -0.12500000  0.00000000       0.031
  -0.12500000  0.50000000  0.00000000       0.031
   0.50000000 -0.37500000  0.00000000       0.031
   0.50000000  0.25000000  0.00000000       0.031
   0.25000000  0.50000000  0.00000000       0.031
  -0.25000000  0.25000000  0.00000000       0.031
  -0.37500000  0.25000000  0.00000000       0.031
   0.37500000 -0.37500000  0.00000000       0.031
  -0.25000000  0.37500000  0.00000000       0.031
 
 position of ions in fractional coordinates (direct lattice) 
   0.00000000  0.00000000  0.21687980
   0.33333331  0.00000000  0.21687980
   0.66666663  0.00000000  0.21687980
   0.00000000  0.33333334  0.21687980
   0.33333331  0.33333334  0.21687980
   0.66666669  0.33333334  0.21687980
   0.00000000  0.66666669  0.21687980
   0.33333331  0.66666669  0.21687980
   0.66666663  0.66666669  0.21687980
   0.11111110  0.11111111  0.31512125
   0.44444445  0.11111111  0.31512125
   0.77777779  0.11111111  0.31512125
   0.11111110  0.44444445  0.31512125
   0.44444442  0.44444445  0.31512125
   0.77777779  0.44444445  0.31512125
   0.11111110  0.77777779  0.31512125
   0.44444445  0.77777779  0.31512125
   0.77777779  0.77777779  0.31512125
   0.88878954  0.22242093  0.41315945
   0.22316992  0.22316994  0.41221451
   0.55366010  0.22316994  0.41221451
   0.88821035  0.55589485  0.41272919
   0.22316994  0.55366016  0.41221451
   0.55589485  0.55589485  0.41272919
   0.88878954  0.88878954  0.41315945
   0.22242090  0.88878954  0.41315945
   0.55589479  0.88821035  0.41272919
   0.00000000  0.00000000  0.51023804
   0.33317039  0.00827359  0.51026830
   0.65855596  0.00827359  0.51026830
   0.00827359  0.33317042  0.51026830
   0.65855602  0.33317042  0.51026830
   0.00827359  0.65855602  0.51026830
   0.33317039  0.65855602  0.51026830
   0.66666663  0.66666669  0.51005746
   0.33333331  0.33333334  0.49893833
   0.33262636  0.33441031  0.57664245
   0.20131383  0.33256846  0.59603250
   0.46579434  0.33253289  0.59603613
 
 position of ions in cartesian coordinates  (Angst):
   0.00000000  0.00000000  5.28218814
   2.93045535  0.00000000  5.28218814
   5.86091070  0.00000000  5.28218814
   1.46522781  2.53784900  5.28218814
   4.39568315  2.53784900  5.28218814
   7.32613904  2.53784900  5.28218814
   2.93045562  5.07569801  5.28218814
   5.86091096  5.07569801  5.28218814
   8.79136632  5.07569801  5.28218814
   1.46522770  0.84594965  7.67489535
   4.39568332  0.84594965  7.67489535
   7.32613893  0.84594965  7.67489535
   2.93045542  3.38379860  7.67489535
   5.86091083  3.38379860  7.67489535
   8.79136671  3.38379860  7.67489535
   4.39568328  5.92164760  7.67489535
   7.32613890  5.92164760  7.67489535
  10.25659451  5.92164760  7.67489535
   8.79136665  1.69341213 10.06265211
   2.94295296  1.69911476 10.03963781
   5.84841322  1.69911476 10.03963781
  10.25212051  4.23233149 10.05217308
   4.39568342  4.21531750 10.03963781
   7.33061317  4.23233149 10.05217308
  11.72051205  6.76684079 10.06265211
   5.86222098  6.76684079 10.06265211
   8.79136631  6.76243106 10.05217308
   0.00000000  0.00000000 12.42703732
   2.96539108  0.06299138 12.42777426
   5.82597496  0.06299138 12.42777426
   1.53724781  2.53660855 12.42777426
   7.25411903  2.53660855 12.42777426
   2.96753988  5.01394709 12.42777426
   5.82382669  5.01394709 12.42777426
   8.79136632  5.07569801 12.42263914
   4.39568315  2.53784900 12.15182876
   4.39420208  2.54604851 14.04434145
   3.23168927  2.53202552 14.51659337
   5.55667812  2.53175475 14.51668164
 


--------------------------------------------------------------------------------------------------------


 k-point   1 :   0.0000 0.0000 0.0000  plane waves:   41243
 k-point   2 :   0.1250 0.0000 0.0000  plane waves:   41326
 k-point   3 :   0.1250 0.1250 0.0000  plane waves:   41326
 k-point   4 :   0.0000 0.1250 0.0000  plane waves:   41326
 k-point   5 :   0.2500 0.0000 0.0000  plane waves:   41336
 k-point   6 :   0.2500 0.2500 0.0000  plane waves:   41336
 k-point   7 :   0.0000 0.2500 0.0000  plane waves:   41336
 k-point   8 :   0.3750 0.0000 0.0000  plane waves:   41410
 k-point   9 :   0.3750 0.3750 0.0000  plane waves:   41410
 k-point  10 :   0.0000 0.3750 0.0000  plane waves:   41410
 k-point  11 :   0.5000 0.0000 0.0000  plane waves:   41412
 k-point  12 :   0.5000 0.5000 0.0000  plane waves:   41412
 k-point  13 :   0.0000 0.5000 0.0000  plane waves:   41412
 k-point  14 :   0.2500 0.1250 0.0000  plane waves:   41324
 k-point  15 :   0.1250 0.2500 0.0000  plane waves:   41324
 k-point  16 :  -0.1250 0.1250 0.0000  plane waves:   41324
 k-point  17 :   0.3750 0.1250 0.0000  plane waves:   41412
 k-point  18 :   0.2500 0.3750 0.0000  plane waves:   41412
 k-point  19 :  -0.1250 0.2500 0.0000  plane waves:   41412
 k-point  20 :   0.2500-0.1250 0.0000  plane waves:   41412
 k-point  21 :  -0.1250-0.3750 0.0000  plane waves:   41412
 k-point  22 :  -0.3750-0.2500 0.0000  plane waves:   41412
 k-point  23 :   0.5000 0.1250 0.0000  plane waves:   41392
 k-point  24 :   0.3750 0.5000 0.0000  plane waves:   41392
 k-point  25 :  -0.1250 0.3750 0.0000  plane waves:   41392
 k-point  26 :   0.3750-0.1250 0.0000  plane waves:   41392
 k-point  27 :  -0.1250 0.5000 0.0000  plane waves:   41392
 k-point  28 :   0.5000-0.3750 0.0000  plane waves:   41392
 k-point  29 :   0.5000 0.2500 0.0000  plane waves:   41436
 k-point  30 :   0.2500 0.5000 0.0000  plane waves:   41436
 k-point  31 :  -0.2500 0.2500 0.0000  plane waves:   41436
 k-point  32 :  -0.3750 0.2500 0.0000  plane waves:   41434
 k-point  33 :   0.3750-0.3750 0.0000  plane waves:   41434
 k-point  34 :  -0.2500 0.3750 0.0000  plane waves:   41434

 maximum and minimum number of plane-waves per node :     41436    41243

 maximum number of plane-waves:     41436
 maximum index in each direction: 
   IXMAX=   16   IYMAX=   16   IZMAX=   44
   IXMIN=  -16   IYMIN=  -16   IZMIN=  -44


 serial   3D FFT for wavefunctions
 parallel 3D FFT for charge:
    minimum data exchange during FFTs selected (reduces bandwidth)


 total amount of memory used by VASP MPI-rank0   277583. kBytes
=======================================================================

   base      :      30000. kBytes
   nonlr-proj:      15266. kBytes
   fftplans  :       4808. kBytes
   grid      :      20723. kBytes
   one-center:        606. kBytes
   wavefun   :     206180. kBytes
 
     INWAV:  cpu time    0.0000: real time    0.0000
 initial charge density was supplied:
 number of electron     409.0000160 magnetization 
 keeping initial charge density in first step


--------------------------------------------------------------------------------------------------------


 Maximum index for non-local projection operator         2377
 Maximum index for augmentation-charges          717 (set IRDMAX)


--------------------------------------------------------------------------------------------------------


 First call to EWALD:  gamma=   0.151
 Maximum number of real-space cells 4x 4x 2
 Maximum number of reciprocal cells 2x 2x 5

    FEWALD:  cpu time    0.0013: real time    0.0013


--------------------------------------- Iteration      1(   1)  ---------------------------------------


    POTLOK:  cpu time    0.0506: real time    0.0509
    SETDIJ:  cpu time    0.0048: real time    0.0049
     EDDAV:  cpu time   26.3382: real time   26.3401
 BZINTS: Fermi energy:    9.613920;  409.000000 electrons
         Band energy: 0.103499E+04;  BLOECHL correction:   -0.015022
       DOS:  cpu time    0.0610: real time    0.0610
    --------------------------------------------
      LOOP:  cpu time   26.4546: real time   26.4570

 eigenvalue-minimisations  : 17136
 total energy-change (2. order) : 0.2569359E+04  (-0.1874731E+05)
 number of electron     409.0000160 magnetization 
 augmentation part      409.0000160 magnetization 

 Free energy of the ion-electron system (eV)
  ---------------------------------------------------
  alpha Z        PSCENC =       717.45596207
  Ewald energy   TEWEN  =    131268.64984698
  -Hartree energ DENC   =   -169571.16809475
  -exchange      EXHF   =         0.00000000
  -V(xc)+E(xc)   XCENC  =      -315.99303688
  PAW double counting   =     40323.67427917   -38798.60033418
  entropy T*S    EENTRO =         0.00000000
  eigenvalues    EBANDS =      1034.98542756
  atomic energy  EATOM  =     37910.35478673
  Solvation  Ediel_sol  =         0.00000000
  ---------------------------------------------------
  free energy    TOTEN  =      2569.35883671 eV

  energy without entropy =     2569.35883671  energy(sigma->0) =     2569.35883671


--------------------------------------------------------------------------------------------------------




--------------------------------------- Iteration      1(   2)  ---------------------------------------


     EDDAV:  cpu time   27.5041: real time   27.5046
 BZINTS: Fermi energy:    0.965815;  409.000000 electrons
         Band energy:-0.153095E+04;  BLOECHL correction:   -0.019159
       DOS:  cpu time    0.0562: real time    0.0562
    --------------------------------------------
      LOOP:  cpu time   27.5602: real time   27.5608

 eigenvalue-minimisations  : 18088
 total energy-change (2. order) :-0.2565939E+04  (-0.2451952E+04)
 number of electron     409.0000160 magnetization 
 augmentation part      409.0000160 magnetization 

 Free energy of the ion-electron system (eV)
  ---------------------------------------------------
  alpha Z        PSCENC =       717.45596207
  Ewald energy   TEWEN  =    131268.64984698
  -Hartree energ DENC   =   -169571.16809475
  -exchange      EXHF   =         0.00000000
  -V(xc)+E(xc)   XCENC  =      -315.99303688
  PAW double counting   =     40323.67427917   -38798.60033418
  entropy T*S    EENTRO =         0.00000000
  eigenvalues    EBANDS =     -1530.95360635
  atomic energy  EATOM  =     37910.35478673
  Solvation  Ediel_sol  =         0.00000000
  ---------------------------------------------------
  free energy    TOTEN  =         3.41980280 eV

  energy without entropy =        3.41980280  energy(sigma->0) =        3.41980280


--------------------------------------------------------------------------------------------------------




--------------------------------------- Iteration      1(   3)  ---------------------------------------


     EDDAV:  cpu time   31.5015: real time   31.5021
 BZINTS: Fermi energy:    0.207545;  409.000000 electrons
         Band energy:-0.164892E+04;  BLOECHL correction:   -0.034153
       DOS:  cpu time    0.0570: real time    0.0570
    --------------------------------------------
      LOOP:  cpu time   31.5585: real time   31.5591

 eigenvalue-minimisations  : 21336
 total energy-change (2. order) :-0.1179707E+03  (-0.1153449E+03)
 number of electron     409.0000160 magnetization 
 augmentation part      409.0000160 magnetization 

 Free energy of the ion-electron system (eV)
  ---------------------------------------------------
  alpha Z        PSCENC =       717.45596207
  Ewald energy   TEWEN  =    131268.64984698
  -Hartree energ DENC   =   -169571.16809475
  -exchange      EXHF   =         0.00000000
  -V(xc)+E(xc)   XCENC  =      -315.99303688
  PAW double counting   =     40323.67427917   -38798.60033418
  entropy T*S    EENTRO =         0.00000000
  eigenvalues    EBANDS =     -1648.92432283
  atomic energy  EATOM  =     37910.35478673
  Solvation  Ediel_sol  =         0.00000000
  ---------------------------------------------------
  free energy    TOTEN  =      -114.55091368 eV

  energy without entropy =     -114.55091368  energy(sigma->0) =     -114.55091368


--------------------------------------------------------------------------------------------------------




--------------------------------------- Iteration      1(   4)  ---------------------------------------


     EDDAV:  cpu time   28.6574: real time   28.6579
 BZINTS: Fermi energy:    0.188380;  409.000000 electrons
         Band energy:-0.165152E+04;  BLOECHL correction:   -0.033858
       DOS:  cpu time    0.0609: real time    0.0609
    --------------------------------------------
      LOOP:  cpu time   28.7183: real time   28.7188

 eigenvalue-minimisations  : 18984
 total energy-change (2. order) :-0.2597368E+01  (-0.2580041E+01)
 number of electron     409.0000160 magnetization 
 augmentation part      409.0000160 magnetization 

 Free energy of the ion-electron system (eV)
  ---------------------------------------------------
  alpha Z        PSCENC =       717.45596207
  Ewald energy   TEWEN  =    131268.64984698
  -Hartree energ DENC   =   -169571.16809475
  -exchange      EXHF   =         0.00000000
  -V(xc)+E(xc)   XCENC  =      -315.99303688
  PAW double counting   =     40323.67427917   -38798.60033418
  entropy T*S    EENTRO =         0.00000000
  eigenvalues    EBANDS =     -1651.52169131
  atomic energy  EATOM  =     37910.35478673
  Solvation  Ediel_sol  =         0.00000000
  ---------------------------------------------------
  free energy    TOTEN  =      -117.14828216 eV

  energy without entropy =     -117.14828216  energy(sigma->0) =     -117.14828216


--------------------------------------------------------------------------------------------------------




--------------------------------------- Iteration      1(   5)  ---------------------------------------


     EDDAV:  cpu time   29.9861: real time   29.9897
 BZINTS: Fermi energy:    0.187864;  409.000000 electrons
         Band energy:-0.165159E+04;  BLOECHL correction:   -0.033851
       DOS:  cpu time    0.0599: real time    0.0599
    --------------------------------------------
      LOOP:  cpu time   30.0460: real time   30.0496

 eigenvalue-minimisations  : 20132
 total energy-change (2. order) :-0.6406110E-01  (-0.6403692E-01)
 number of electron     409.0000160 magnetization 
 augmentation part      409.0000160 magnetization 

 Free energy of the ion-electron system (eV)
  ---------------------------------------------------
  alpha Z        PSCENC =       717.45596207
  Ewald energy   TEWEN  =    131268.64984698
  -Hartree energ DENC   =   -169571.16809475
  -exchange      EXHF   =         0.00000000
  -V(xc)+E(xc)   XCENC  =      -315.99303688
  PAW double counting   =     40323.67427917   -38798.60033418
  entropy T*S    EENTRO =         0.00000000
  eigenvalues    EBANDS =     -1651.58575242
  atomic energy  EATOM  =     37910.35478673
  Solvation  Ediel_sol  =         0.00000000
  ---------------------------------------------------
  free energy    TOTEN  =      -117.21234327 eV

  energy without entropy =     -117.21234327  energy(sigma->0) =     -117.21234327


--------------------------------------------------------------------------------------------------------




--------------------------------------- Iteration      1(   6)  ---------------------------------------


    EDDIAG:  cpu time    5.2000: real time    5.2003
  RMM-DIIS:  cpu time   15.7993: real time   15.7995
    ORTHCH:  cpu time    0.9605: real time    0.9605
 BZINTS: Fermi energy:    0.187859;  409.000000 electrons
         Band energy:-0.165159E+04;  BLOECHL correction:   -0.033851
       DOS:  cpu time    0.0611: real time    0.0611
    --------------------------------------------
      LOOP:  cpu time   22.0209: real time   22.0214

 eigenvalue-minimisations  : 17770
 total energy-change (2. order) :-0.1479912E-02  (-0.1479840E-02)
 number of electron     409.0000160 magnetization 
 augmentation part      409.0000160 magnetization 

 Free energy of the ion-electron system (eV)
  ---------------------------------------------------
  alpha Z        PSCENC =       717.45596207
  Ewald energy   TEWEN  =    131268.64984698
  -Hartree energ DENC   =   -169571.16809475
  -exchange      EXHF   =         0.00000000
  -V(xc)+E(xc)   XCENC  =      -315.99303688
  PAW double counting   =     40323.67427917   -38798.60033418
  entropy T*S    EENTRO =         0.00000000
  eigenvalues    EBANDS =     -1651.58723233
  atomic energy  EATOM  =     37910.35478673
  Solvation  Ediel_sol  =         0.00000000
  ---------------------------------------------------
  free energy    TOTEN  =      -117.21382318 eV

  energy without entropy =     -117.21382318  energy(sigma->0) =     -117.21382318


--------------------------------------------------------------------------------------------------------




--------------------------------------- Iteration      1(   7)  ---------------------------------------


    EDDIAG:  cpu time    5.2016: real time    5.2017
  RMM-DIIS:  cpu time   22.2993: real time   22.2996
    ORTHCH:  cpu time    0.9620: real time    0.9620
 BZINTS: Fermi energy:    0.187857;  409.000000 electrons
         Band energy:-0.165159E+04;  BLOECHL correction:   -0.033851
       DOS:  cpu time    0.0598: real time    0.0598
    --------------------------------------------
      LOOP:  cpu time   28.5226: real time   28.5231

 eigenvalue-minimisations  : 25740
 total energy-change (2. order) :-0.6088546E-03  (-0.5976968E-03)
 number of electron     409.0000160 magnetization 
 augmentation part      409.0000160 magnetization 

 Free energy of the ion-electron system (eV)
  ---------------------------------------------------
  alpha Z        PSCENC =       717.45596207
  Ewald energy   TEWEN  =    131268.64984698
  -Hartree energ DENC   =   -169571.16809475
  -exchange      EXHF   =         0.00000000
  -V(xc)+E(xc)   XCENC  =      -315.99303688
  PAW double counting   =     40323.67427917   -38798.60033418
  entropy T*S    EENTRO =         0.00000000
  eigenvalues    EBANDS =     -1651.58784118
  atomic energy  EATOM  =     37910.35478673
  Solvation  Ediel_sol  =         0.00000000
  ---------------------------------------------------
  free energy    TOTEN  =      -117.21443203 eV

  energy without entropy =     -117.21443203  energy(sigma->0) =     -117.21443203


--------------------------------------------------------------------------------------------------------




--------------------------------------- Iteration      1(   8)  ---------------------------------------


    EDDIAG:  cpu time    5.2057: real time    5.2060
  RMM-DIIS:  cpu time   18.3749: real time   18.3751
    ORTHCH:  cpu time    0.9615: real time    0.9615
 BZINTS: Fermi energy:    0.187857;  409.000000 electrons
         Band energy:-0.165159E+04;  BLOECHL correction:   -0.033851
       DOS:  cpu time    0.0586: real time    0.0586
    --------------------------------------------
      LOOP:  cpu time   24.6006: real time   24.6012

 eigenvalue-minimisations  : 20702
 total energy-change (2. order) :-0.4532657E-04  (-0.4752212E-04)
 number of electron     409.0000160 magnetization 
 augmentation part      409.0000160 magnetization 

 Free energy of the ion-electron system (eV)
  ---------------------------------------------------
  alpha Z        PSCENC =       717.45596207
  Ewald energy   TEWEN  =    131268.64984698
  -Hartree energ DENC   =   -169571.16809475
  -exchange      EXHF   =         0.00000000
  -V(xc)+E(xc)   XCENC  =      -315.99303688
  PAW double counting   =     40323.67427917   -38798.60033418
  entropy T*S    EENTRO =         0.00000000
  eigenvalues    EBANDS =     -1651.58788651
  atomic energy  EATOM  =     37910.35478673
  Solvation  Ediel_sol  =         0.00000000
  ---------------------------------------------------
  free energy    TOTEN  =      -117.21447736 eV

  energy without entropy =     -117.21447736  energy(sigma->0) =     -117.21447736


--------------------------------------------------------------------------------------------------------




--------------------------------------- Iteration      1(   9)  ---------------------------------------


    EDDIAG:  cpu time    5.2241: real time    5.2245
  RMM-DIIS:  cpu time   15.9420: real time   15.9421
    ORTHCH:  cpu time    0.9589: real time    0.9589
 BZINTS: Fermi energy:    0.187857;  409.000000 electrons
         Band energy:-0.165159E+04;  BLOECHL correction:   -0.033851
       DOS:  cpu time    0.0585: real time    0.0585
    --------------------------------------------
      LOOP:  cpu time   22.1835: real time   22.1840

 eigenvalue-minimisations  : 16720
 total energy-change (2. order) :-0.1130591E-04  (-0.1160724E-04)
 number of electron     409.0000160 magnetization 
 augmentation part      409.0000160 magnetization 

 Free energy of the ion-electron system (eV)
  ---------------------------------------------------
  alpha Z        PSCENC =       717.45596207
  Ewald energy   TEWEN  =    131268.64984698
  -Hartree energ DENC   =   -169571.16809475
  -exchange      EXHF   =         0.00000000
  -V(xc)+E(xc)   XCENC  =      -315.99303688
  PAW double counting   =     40323.67427917   -38798.60033418
  entropy T*S    EENTRO =         0.00000000
  eigenvalues    EBANDS =     -1651.58789782
  atomic energy  EATOM  =     37910.35478673
  Solvation  Ediel_sol  =         0.00000000
  ---------------------------------------------------
  free energy    TOTEN  =      -117.21448867 eV

  energy without entropy =     -117.21448867  energy(sigma->0) =     -117.21448867


--------------------------------------------------------------------------------------------------------




--------------------------------------- Iteration      1(  10)  ---------------------------------------


    EDDIAG:  cpu time    5.2034: real time    5.2037
  RMM-DIIS:  cpu time   12.1846: real time   12.1848
    ORTHCH:  cpu time    0.9616: real time    0.9617
 BZINTS: Fermi energy:    0.187857;  409.000000 electrons
         Band energy:-0.165159E+04;  BLOECHL correction:   -0.033851
       DOS:  cpu time    0.0612: real time    0.0612
    --------------------------------------------
      LOOP:  cpu time   18.4109: real time   18.4113

 eigenvalue-minimisations  : 11874
 total energy-change (2. order) :-0.1477456E-05  (-0.1589094E-05)
 number of electron     409.0000160 magnetization 
 augmentation part      409.0000160 magnetization 

 Free energy of the ion-electron system (eV)
  ---------------------------------------------------
  alpha Z        PSCENC =       717.45596207
  Ewald energy   TEWEN  =    131268.64984698
  -Hartree energ DENC   =   -169571.16809475
  -exchange      EXHF   =         0.00000000
  -V(xc)+E(xc)   XCENC  =      -315.99303688
  PAW double counting   =     40323.67427917   -38798.60033418
  entropy T*S    EENTRO =         0.00000000
  eigenvalues    EBANDS =     -1651.58789929
  atomic energy  EATOM  =     37910.35478673
  Solvation  Ediel_sol  =         0.00000000
  ---------------------------------------------------
  free energy    TOTEN  =      -117.21449014 eV

  energy without entropy =     -117.21449014  energy(sigma->0) =     -117.21449014


--------------------------------------------------------------------------------------------------------




 average (electrostatic) potential at core
  the test charge radii are     1.1249  1.0103  0.6991  0.7215
  (the norm of the test charge is              1.0000)
       1 -78.7012       2 -78.6967       3 -78.6967       4 -78.6899       5 -78.6821
       6 -78.6897       7 -78.6923       8 -78.6922       9 -78.7048      10 -78.9149
      11 -78.9181      12 -78.9146      13 -78.9186      14 -78.9184      15 -78.9218
      16 -78.9241      17 -78.9204      18 -78.9204      19 -78.8899      20 -78.9462
      21 -78.9457      22 -78.9132      23 -78.9378      24 -78.9131      25 -78.8944
      26 -78.8946      27 -78.9019      28 -78.6554      29 -78.6391      30 -78.6391
      31 -78.6304      32 -78.6303      33 -78.6343      34 -78.6342      35 -78.6515
      36 -48.3605      37 -56.6671      38 -75.9226      39 -75.9238
 
 
 
 E-fermi :   0.1879     XC(G=0):  -5.5083     alpha+bet : -5.1765

 Fermi energy:         0.1878565584

 k-point     1 :       0.0000    0.0000    0.0000
  band No.  band energies     occupation 
      1     -22.0269      2.00000
      2     -20.2599      2.00000
      3      -8.2199      2.00000
      4      -7.0264      2.00000
      5      -6.6988      2.00000
      6      -6.1833      2.00000
      7      -6.0393      2.00000
      8      -6.0070      2.00000
      9      -5.7443      2.00000
     10      -5.6472      2.00000
     11      -5.6404      2.00000
     12      -5.6361      2.00000
     13      -5.6351      2.00000
     14      -5.6301      2.00000
     15      -5.6278      2.00000
     16      -5.6176      2.00000
     17      -5.5950      2.00000
     18      -5.5937      2.00000
     19      -5.5927      2.00000
     20      -5.5821      2.00000
     21      -5.5819      2.00000
     22      -5.4991      2.00000
     23      -5.4347      2.00000
     24      -5.4279      2.00000
     25      -5.4246      2.00000
     26      -5.4229      2.00000
     27      -5.4168      2.00000
     28      -5.4151      2.00000
     29      -5.2439      2.00000
     30      -5.2398      2.00000
     31      -5.2355      2.00000
     32      -5.2235      2.00000
     33      -5.2030      2.00000
     34      -5.2026      2.00000
     35      -5.2017      2.00000
     36      -5.2012      2.00000
     37      -5.1843      2.00000
     38      -5.1805      2.00000
     39      -5.1708      2.00000
     40      -5.1695      2.00000
     41      -5.0823      2.00000
     42      -5.0721      2.00000
     43      -5.0600      2.00000
     44      -4.9926      2.00000
     45      -4.9347      2.00000
     46      -4.9154      2.00000
     47      -4.8594      2.00000
     48      -4.8580      2.00000
     49      -4.8435      2.00000
     50      -4.8372      2.00000
     51      -4.8322      2.00000
     52      -4.8171      2.00000
     53      -4.8151      2.00000
     54      -4.7922      2.00000
[...]
  0.000   0.000   0.000   0.000   0.000   0.000   0.000   0.000   0.000   0.000   1.000   0.000   0.000   0.000   0.000   0.000
  0.000   0.000   0.000   0.000   0.000   0.000   0.000   0.000   0.000   0.000   0.000   0.000   0.000   0.000   0.000   0.000
  0.000   0.000   0.000   0.000   0.000   0.000   0.000   0.000   0.000   0.000   0.000   0.000   0.000   0.000   0.000   0.000
  0.000   0.000   0.000   0.000   0.000   0.000   0.000   0.000   0.000   0.000   0.000   0.000   0.000   0.000   0.000   0.000
  0.000   0.000   0.000   0.000   0.000   0.000   0.000   0.000   0.000   0.000   0.000   0.000   0.000   0.000   0.000   0.000
  0.000   0.000   0.000   0.000   0.000   0.000   0.000   0.000   0.000   0.000   0.000   0.000   0.000   0.000   0.000   0.000
  0.000   0.000   0.000   0.000   0.000   0.000   0.000   0.000   0.000   0.000   0.000   0.000   0.000   0.000   0.000   0.000
  0.000   0.000   0.000   0.000   0.000   0.000   0.000   0.000   0.000   0.000   0.000   0.000   0.000   0.000   0.000   0.000


------------------------ aborting loop because EDIFF is reached ----------------------------------------





 total charge

# of ion       s       p       d       tot
------------------------------------------
    1        0.417   0.202   9.178   9.797
    2        0.416   0.203   9.177   9.796
    3        0.416   0.203   9.177   9.796
    4        0.416   0.203   9.178   9.796
    5        0.418   0.202   9.177   9.797
    6        0.416   0.203   9.178   9.796
    7        0.417   0.203   9.177   9.796
    8        0.417   0.203   9.177   9.796
    9        0.415   0.202   9.177   9.795
   10        0.406   0.270   9.163   9.839
   11        0.406   0.269   9.166   9.841
   12        0.406   0.270   9.163   9.839
   13        0.406   0.270   9.166   9.841
   14        0.406   0.269   9.166   9.841
   15        0.404   0.270   9.164   9.838
   16        0.404   0.269   9.164   9.837
   17        0.404   0.268   9.165   9.838
   18        0.404   0.268   9.165   9.838
   19        0.396   0.269   9.166   9.831
   20        0.422   0.295   9.149   9.866
   21        0.422   0.295   9.149   9.866
   22        0.396   0.275   9.166   9.837
   23        0.420   0.291   9.154   9.865
   24        0.396   0.275   9.166   9.837
   25        0.400   0.265   9.168   9.833
   26        0.400   0.265   9.168   9.833
   27        0.397   0.273   9.168   9.838
   28        0.414   0.192   9.182   9.788
   29        0.414   0.201   9.179   9.795
   30        0.414   0.201   9.179   9.795
   31        0.389   0.209   9.183   9.781
   32        0.389   0.209   9.183   9.781
   33        0.415   0.201   9.180   9.796
   34        0.415   0.201   9.180   9.795
   35        0.408   0.194   9.181   9.783
   36        0.394   0.313   6.443   7.150
   37        0.886   1.683   0.000   2.570
   38        1.596   3.473   0.000   5.069
   39        1.596   3.473   0.000   5.069
--------------------------------------------------
tot         18.775  17.300 327.418 363.492
 
    CHARGE:  cpu time    1.2436: real time    1.2437
    FORLOC:  cpu time    0.0124: real time    0.0124
    FORNL :  cpu time    5.4329: real time    5.4331
    STRESS:  cpu time   16.2991: real time   16.2996
    FORCOR:  cpu time    0.0504: real time    0.0505
    FORHAR:  cpu time    0.0197: real time    0.0198
    OFIELD:  cpu time    0.0003: real time    0.0003

  FORCE on cell =-STRESS in cart. coord.  units (eV):
  Direction    XX          YY          ZZ          XY          YZ          ZX
  --------------------------------------------------------------------------------------
  Alpha Z   717.45596   717.45596   717.45596
  Ewald  154397.89264153708.39403************    -0.07380    -1.42867     0.13591
  Hartree164432.13884164077.34982************    -0.03704    -0.73363     0.08711
  E(xc)   -2141.67162 -2143.57402 -2148.23855    -0.00030    -0.00062     0.00168
  Local  ************************329125.42800     0.10759     2.33808    -0.20997
  n-local  -404.65519  -399.82140  -407.28217    -0.00249     0.26287    -0.01309
  augment  3267.42846  3270.64163  3280.40868     0.00054    -0.08398    -0.00382
  Kinetic  5136.32076  5180.90227  5199.92302     0.00550    -0.38538    -0.00960
  Fock        0.00000     0.00000     0.00000     0.00000     0.00000     0.00000
  -------------------------------------------------------------------------------------
  Total      -7.18362    -6.67189    -0.67207    -0.00000    -0.03133    -0.01178
  in kB      -7.06018    -6.55724    -0.66052    -0.00000    -0.03079    -0.01158
  external pressure =       -4.76 kB  Pullay stress =        0.00 kB


 VOLUME and BASIS-vectors are now :
 -----------------------------------------------------------------------------
  energy-cutoff  :      500.00
  volume of cell :     1630.19
      direct lattice vectors                 reciprocal lattice vectors
     8.791366577  0.000000000  0.000000000     0.113747958 -0.065672414  0.000000000
     4.395683289  7.613546790  0.000000000     0.000000000  0.131344829  0.000000000
     0.000000000  0.000000000 24.355372092     0.000000000  0.000000000  0.041058703

  length of vectors
     8.791366577  8.791366577 24.355372092     0.131344829  0.131344829  0.041058703


 FORCES acting on ions
    electron-ion (+dipol)            ewald-force                    non-local-force                 convergence-correction
 -----------------------------------------------------------------------------------------------
   0.319E-02 0.125E+00 0.272E+04   -.276E-03 -.497E-01 -.272E+04   -.497E-03 -.443E-01 -.197E+01   -.236E-02 -.329E-01 -.272E+00
   0.597E+00 0.817E+00 0.272E+04   -.595E+00 -.665E+00 -.272E+04   -.237E-01 -.230E-01 -.173E+01   0.243E-01 -.123E+00 -.190E+00
   -.599E+00 0.806E+00 0.272E+04   0.596E+00 -.665E+00 -.272E+04   0.242E-01 -.230E-01 -.173E+01   -.231E-01 -.113E+00 -.186E+00
   0.771E+00 0.159E+00 0.272E+04   -.832E+00 -.208E+00 -.272E+04   0.876E-01 0.292E-02 -.174E+01   -.266E-01 0.471E-01 -.213E+00
   -.134E-01 0.131E-01 0.272E+04   0.487E-03 0.278E-03 -.272E+04   -.282E-02 -.170E-02 -.154E+01   0.159E-01 -.170E-01 -.113E+00
   -.763E+00 0.156E+00 0.272E+04   0.831E+00 -.208E+00 -.272E+04   -.869E-01 0.270E-02 -.174E+01   0.181E-01 0.505E-01 -.208E+00
   0.318E+00 -.936E+00 0.272E+04   -.235E+00 0.873E+00 -.272E+04   0.138E-01 -.122E-02 -.166E+01   -.928E-01 0.619E-01 -.164E+00
   -.326E+00 -.929E+00 0.272E+04   0.235E+00 0.873E+00 -.272E+04   -.137E-01 -.851E-03 -.166E+01   0.101E+00 0.556E-01 -.163E+00
   0.132E-01 -.205E+00 0.272E+04   -.124E-03 0.494E-01 -.272E+04   0.236E-02 0.788E-01 -.181E+01   -.155E-01 0.725E-01 -.193E+00
   0.530E+01 0.358E+01 0.978E+03   -.511E+01 -.335E+01 -.977E+03   -.237E+00 -.172E+00 -.730E+00   0.449E-01 -.552E-01 -.113E+00
   -.179E-01 0.733E+01 0.989E+03   0.212E-02 -.724E+01 -.988E+03   -.172E-02 -.129E-01 -.710E+00   0.177E-01 -.752E-01 -.185E+00
   -.528E+01 0.357E+01 0.978E+03   0.511E+01 -.335E+01 -.977E+03   0.237E+00 -.172E+00 -.729E+00   -.554E-01 -.489E-01 -.110E+00
   0.581E+01 -.375E+01 0.989E+03   -.591E+01 0.369E+01 -.988E+03   0.550E-01 -.250E-02 -.569E+00   0.220E-01 0.676E-01 -.146E+00
   -.583E+01 -.374E+01 0.989E+03   0.591E+01 0.369E+01 -.988E+03   -.587E-01 -.250E-02 -.570E+00   0.187E-02 0.615E-01 -.148E+00
   0.133E-01 0.844E+00 0.980E+03   -.273E-02 -.110E+01 -.979E+03   0.290E-03 0.108E+00 -.811E+00   -.108E-01 0.125E+00 -.958E-01
   -.773E-03 -.612E+01 0.978E+03   0.590E-03 0.602E+01 -.977E+03   -.765E-04 0.159E+00 -.611E+00   0.212E-03 -.591E-01 -.118E+00
   0.969E+00 -.841E+00 0.979E+03   -.117E+01 0.818E+00 -.978E+03   0.115E+00 0.320E-01 -.624E+00   0.669E-01 -.806E-02 -.139E+00
   -.968E+00 -.856E+00 0.979E+03   0.117E+01 0.821E+00 -.978E+03   -.115E+00 0.314E-01 -.625E+00   -.667E-01 0.428E-02 -.134E+00
   0.332E-01 0.400E+01 -.797E+03   -.178E-01 -.427E+01 0.796E+03   0.194E-02 0.206E+00 0.737E+00   -.173E-01 0.783E-01 0.734E-01
   0.294E+02 0.194E+02 -.744E+03   -.283E+02 -.187E+02 0.745E+03   -.855E+00 -.568E+00 -.953E+00   -.260E+00 -.183E+00 -.344E+00
   -.294E+02 0.194E+02 -.744E+03   0.283E+02 -.187E+02 0.745E+03   0.852E+00 -.566E+00 -.950E+00   0.270E+00 -.184E+00 -.346E+00
   0.132E+02 -.103E+02 -.783E+03   -.133E+02 0.104E+02 0.782E+03   0.228E+00 -.213E+00 0.460E+00   -.781E-01 0.372E-01 -.665E-01
   -.204E-01 -.372E+02 -.747E+03   0.160E-01 0.361E+02 0.748E+03   -.959E-04 0.910E+00 -.578E+00   0.429E-02 0.326E+00 -.406E+00
   -.132E+02 -.102E+02 -.783E+03   0.133E+02 0.104E+02 0.782E+03   -.227E+00 -.213E+00 0.461E+00   0.754E-01 0.282E-01 -.664E-01
   -.220E+01 -.123E+00 -.801E+03   0.229E+01 0.240E+00 0.801E+03   -.584E-01 -.817E-01 0.743E+00   -.362E-01 -.293E-01 0.953E-02
   0.222E+01 -.970E-01 -.801E+03   -.229E+01 0.223E+00 0.801E+03   0.629E-01 -.815E-01 0.743E+00   0.162E-01 -.378E-01 0.118E-01
   -.802E-02 0.157E+02 -.786E+03   0.277E-02 -.158E+02 0.786E+03   -.188E-03 0.242E+00 0.610E+00   0.544E-02 -.931E-01 -.645E-01
   0.388E-01 0.119E+02 -.258E+04   -.371E-01 -.117E+02 0.257E+04   0.603E-03 -.187E+00 0.212E+01   -.238E-02 0.175E-01 0.424E-01
   0.436E+02 0.102E+03 -.253E+04   -.428E+02 -.101E+03 0.253E+04   -.743E+00 -.331E+00 0.246E+01   -.141E+00 -.311E+00 0.522E-01
   -.437E+02 0.102E+03 -.253E+04   0.428E+02 -.101E+03 0.253E+04   0.742E+00 -.331E+00 0.246E+01   0.143E+00 -.303E+00 0.485E-01
   0.121E+03 -.235E+00 -.249E+04   -.121E+03 0.330E+00 0.249E+04   0.196E-01 -.853E-01 0.302E+01   -.433E+00 0.269E-02 0.367E-01
   -.121E+03 -.245E+00 -.249E+04   0.121E+03 0.339E+00 0.249E+04   -.206E-01 -.856E-01 0.302E+01   0.427E+00 0.366E-02 0.333E-01
   0.440E+02 -.102E+03 -.253E+04   -.431E+02 0.101E+03 0.253E+04   -.577E+00 0.438E+00 0.243E+01   -.279E+00 0.371E+00 0.381E-01
   -.440E+02 -.102E+03 -.253E+04   0.432E+02 0.101E+03 0.253E+04   0.576E+00 0.438E+00 0.243E+01   0.285E+00 0.367E+00 0.387E-01
   0.531E-01 -.117E+02 -.258E+04   -.421E-01 0.116E+02 0.257E+04   0.235E-02 0.198E+00 0.221E+01   -.136E-01 -.966E-02 0.119E+00
   -.146E+00 0.426E+00 -.154E+04   0.133E+00 -.135E+00 0.154E+04   0.596E-02 -.210E+00 0.127E+01   0.101E-01 -.117E+00 -.541E-01
   -.116E-01 -.465E+01 -.103E+04   0.339E-02 0.490E+01 0.102E+04   -.155E-02 -.207E+00 0.714E+01   0.335E-02 -.266E-01 0.383E+00
   0.220E+03 0.174E+01 -.173E+04   -.264E+03 -.222E+01 0.175E+04   0.440E+02 0.492E+00 -.218E+02   -.197E+00 -.179E-01 0.216E+00
   -.220E+03 0.180E+01 -.173E+04   0.264E+03 -.229E+01 0.175E+04   -.441E+02 0.503E+00 -.218E+02   0.203E+00 -.224E-01 0.229E+00
 -----------------------------------------------------------------------------------------------
   -.591E-02 -.150E+00 0.382E+02   0.000E+00 0.231E-12 -.209E-10   -.443E-02 0.228E+00 -.354E+02   0.435E-02 -.877E-01 -.291E+01
 
 
 POSITION                                       TOTAL-FORCE (eV/Angst)
 -----------------------------------------------------------------------------------
      0.00000      0.00000      5.28219         0.000209     -0.001786      0.013872
      2.93046      0.00000      5.28219         0.002937      0.005897      0.031746
      5.86091      0.00000      5.28219        -0.002717      0.005856      0.031812
      1.46523      2.53785      5.28219         0.001049      0.001778      0.024966
      4.39568      2.53785      5.28219         0.000373     -0.005097     -0.015272
      7.32614      2.53785      5.28219        -0.000731      0.001807      0.025085
      2.93046      5.07570      5.28219         0.004462     -0.001401      0.029439
      5.86091      5.07570      5.28219        -0.004239     -0.001398      0.029499
      8.79137      5.07570      5.28219         0.000018     -0.003516      0.012540
      1.46523      0.84595      7.67490        -0.007088      0.004265      0.008848
      4.39568      0.84595      7.67490         0.000310     -0.003998     -0.056018
      7.32614      0.84595      7.67490         0.007495      0.004209      0.008802
      2.93046      3.38380      7.67490        -0.023414      0.006884     -0.057515
      5.86091      3.38380      7.67490         0.024198      0.006978     -0.057426
      8.79137      3.38380      7.67490         0.000210     -0.019831     -0.011470
      4.39568      5.92165      7.67490         0.000105     -0.001988      0.008390
      7.32614      5.92165      7.67490        -0.021245      0.000720      0.005733
     10.25659      5.92165      7.67490         0.021584      0.000604      0.005696
      8.79137      1.69341     10.06265         0.000086      0.009931      0.096467
      2.94295      1.69911     10.03964        -0.065957     -0.023838     -0.008761
      5.84841      1.69911     10.03964         0.066955     -0.024363     -0.009364
     10.25212      4.23233     10.05217         0.033616     -0.022991      0.025596
      4.39568      4.21532     10.03964        -0.000137      0.078929     -0.045916
      7.33061      4.23233     10.05217        -0.033387     -0.022909      0.025474
     11.72051      6.76684     10.06265        -0.008500      0.006478      0.022992
      5.86222      6.76684     10.06265         0.008293      0.006438      0.022950
      8.79137      6.76243     10.05217         0.000159      0.039107      0.008364
      0.00000      0.00000     12.42704         0.000050     -0.033670     -0.011587
      2.96539      0.06299     12.42777        -0.018890     -0.202280     -0.108138
      5.82597      0.06299     12.42777         0.019327     -0.202241     -0.108070
      1.53725      2.53661     12.42777        -0.155676      0.012740      0.042300
      7.25412      2.53661     12.42777         0.155943      0.012729      0.041416
      2.96754      5.01395     12.42777        -0.023111      0.182028     -0.097568
      5.82383      5.01395     12.42777         0.023531      0.181868     -0.097677
      8.79137      5.07570     12.42264        -0.000075      0.037769     -0.014848
      4.39568      2.53785     12.15183         0.003109     -0.036938      0.269615
      4.39420      2.54605     14.04434        -0.006295      0.010535     -0.087561
      3.23169      2.53203     14.51659        -0.005738     -0.004218     -0.001873
      5.55668      2.53175     14.51668         0.003182     -0.005086     -0.002534
 -----------------------------------------------------------------------------------
    total drift:                               -0.005989     -0.010213     -0.077894


--------------------------------------------------------------------------------------------------------



  FREE ENERGIE OF THE ION-ELECTRON SYSTEM (eV)
  ---------------------------------------------------
  free  energy   TOTEN  =      -117.21449014 eV

  energy  without entropy=     -117.21449014  energy(sigma->0) =     -117.21449014
 


--------------------------------------------------------------------------------------------------------


    POTLOK:  cpu time    0.0479: real time    0.0479


--------------------------------------------------------------------------------------------------------


 stress matrix after NEB project (eV)
     -7.18362     -0.00000     -0.01178
     -0.00000     -6.67189     -0.03133
     -0.01178     -0.03133     -0.67207
  FORCES: max atom, RMS     0.088417    0.014245
  FORCE total and by dimension    0.088962    0.087561
  Stress total and by dimension    9.827128    7.183621
     LOOP+:  cpu time  283.3019: real time  283.3169
 -----------------------------------------------------------------------------
|                                                                             |
|           W    W    AA    RRRRR   N    N  II  N    N   GGGG   !!!           |
|           W    W   A  A   R    R  NN   N  II  NN   N  G    G  !!!           |
|           W    W  A    A  R    R  N N  N  II  N N  N  G       !!!           |
|           W WW W  AAAAAA  RRRRR   N  N N  II  N  N N  G  GGG   !            |
|           WW  WW  A    A  R   R   N   NN  II  N   NN  G    G                |
|           W    W  A    A  R    R  N    N  II  N    N   GGGG   !!!           |
|                                                                             |
|     Tetrahedron method does not include variations of the Fermi             |
|     occupations, so forces and stress will be inaccurate. We suggest        |
|     using a different smearing scheme ISMEAR = 1 or 2 for metals in         |
|     relaxations.                                                            |
|                                                                             |
 -----------------------------------------------------------------------------

    4ORBIT:  cpu time    0.0000: real time    0.0000



 total charge

# of ion       s       p       d       tot
------------------------------------------
    1        0.417   0.202   9.178   9.797
    2        0.416   0.203   9.177   9.796
    3        0.416   0.203   9.177   9.796
    4        0.416   0.203   9.178   9.796
    5        0.418   0.202   9.177   9.797
    6        0.416   0.203   9.178   9.796
    7        0.417   0.203   9.177   9.796
    8        0.417   0.203   9.177   9.796
    9        0.415   0.202   9.177   9.795
   10        0.406   0.270   9.163   9.839
   11        0.406   0.269   9.166   9.841
   12        0.406   0.270   9.163   9.839
   13        0.406   0.270   9.166   9.841
   14        0.406   0.269   9.166   9.841
   15        0.404   0.270   9.164   9.838
   16        0.404   0.269   9.164   9.837
   17        0.404   0.268   9.165   9.838
   18        0.404   0.268   9.165   9.838
   19        0.396   0.269   9.166   9.831
   20        0.422   0.295   9.149   9.866
   21        0.422   0.295   9.149   9.866
   22        0.396   0.275   9.166   9.837
   23        0.420   0.291   9.154   9.865
   24        0.396   0.275   9.166   9.837
   25        0.400   0.265   9.168   9.833
   26        0.400   0.265   9.168   9.833
   27        0.397   0.273   9.168   9.838
   28        0.414   0.192   9.182   9.788
   29        0.414   0.201   9.179   9.795
   30        0.414   0.201   9.179   9.795
   31        0.389   0.209   9.183   9.781
   32        0.389   0.209   9.183   9.781
   33        0.415   0.201   9.180   9.796
   34        0.415   0.201   9.180   9.795
   35        0.408   0.194   9.181   9.783
   36        0.394   0.313   6.443   7.150
   37        0.886   1.683   0.000   2.570
   38        1.596   3.473   0.000   5.069
   39        1.596   3.473   0.000   5.069
--------------------------------------------------
tot         18.775  17.300 327.418 363.492
 
 BZINTS: Fermi energy:    0.187857;  409.000000 electrons
         Band energy:-0.165159E+04;  BLOECHL correction:   -0.033851

 total amount of memory used by VASP MPI-rank0   277583. kBytes
=======================================================================

   base      :      30000. kBytes
   nonlr-proj:      15266. kBytes
   fftplans  :       4808. kBytes
   grid      :      20723. kBytes
   one-center:        606. kBytes
   wavefun   :     206180. kBytes
 
  
  
 General timing and accounting informations for this job:
 ========================================================
  
                  Total CPU time used (sec):      306.374
                            User time (sec):      295.868
                          System time (sec):       10.506
                         Elapsed time (sec):      306.784
  
                   Maximum memory used (kb):      580536.
                   Average memory used (kb):          N/A
  
                          Minor page faults:       124210
                          Major page faults:            0
                 Voluntary context switches:         7286
