 vasp.6.2.0 18Jan21 (build Jun 12 2021 23:27:24) complex                        
  
 executed on             LinuxIFC date 2022.05.30  16:52:26
 running on   28 total cores
 distrk:  each k-point on   28 cores,    1 groups
 distr:  one band on NCORE=   1 cores,   28 groups


--------------------------------------------------------------------------------------------------------


 INCAR:
   ISMEAR = -5
   SIGMA = 0.1
   ISPIN = 1
   EDIFF = 1.d-5
   EDIFFG = -0.01
   NSW = 0
   NELM = 150
   ENCUT = 500
   ISIF = 2
   IBRION = 2
   LREAL = Auto
   ALGO = Fast
   ICHARG = 11
   LORBIT = 10
   LCHARG = .F.
   LWAVE = .F.

 POTCAR:    PAW_PBE Ag 02Apr2005                  
 POTCAR:    PAW_PBE Cr 06Sep2000                  
 POTCAR:    PAW_PBE C 08Apr2002                   
 POTCAR:    PAW_PBE O 08Apr2002                   
 POTCAR:    PAW_PBE H 15Jun2001                   
 -----------------------------------------------------------------------------
|                                                                             |
|           W    W    AA    RRRRR   N    N  II  N    N   GGGG   !!!           |
|           W    W   A  A   R    R  NN   N  II  NN   N  G    G  !!!           |
|           W    W  A    A  R    R  N N  N  II  N N  N  G       !!!           |
|           W WW W  AAAAAA  RRRRR   N  N N  II  N  N N  G  GGG   !            |
|           WW  WW  A    A  R   R   N   NN  II  N   NN  G    G                |
|           W    W  A    A  R    R  N    N  II  N    N   GGGG   !!!           |
|                                                                             |
|     For optimal performance we recommend to set                             |
|       NCORE = 2 up to number-of-cores-per-socket                            |
|     NCORE specifies how many cores store one orbital (NPAR=cpu/NCORE).      |
|     This setting can greatly improve the performance of VASP for DFT.       |
|     The default, NCORE=1 might be grossly inefficient on modern             |
|     multi-core architectures or massively parallel machines. Do your        |
|     own testing! More info at https://www.vasp.at/wiki/index.php/NCORE      |
|     Unfortunately you need to use the default for GW and RPA                |
|     calculations (for HF NCORE is supported but not extensively tested      |
|     yet).                                                                   |
|                                                                             |
 -----------------------------------------------------------------------------

 POTCAR:    PAW_PBE Ag 02Apr2005                  
   VRHFIN =Ag : s1 d10                                                                              
   LEXCH  = PE                                                                                      
   EATOM  =  1037.2675 eV,   76.2370 Ry                                                             
                                                                                                    
   TITEL  = PAW_PBE Ag 02Apr2005                                                                    
   LULTRA =        F    use ultrasoft PP ?                                                          
   IUNSCR =        1    unscreen: 0-lin 1-nonlin 2-no                                               
   RPACOR =    2.000    partial core radius                                                         
   POMASS =  107.868; ZVAL   =   11.000    mass and valenz                                          
   RCORE  =    2.500    outmost cutoff radius                                                       
   RWIGS  =    2.840; RWIGS  =    1.503    wigner-seitz radius (au A)                               
   ENMAX  =  249.844; ENMIN  =  187.383 eV                                                          
   ICORE  =        3    local potential                                                             
   LCOR   =        T    correct aug charges                                                         
   LPAW   =        T    paw PP                                                                      
   EAUG   =  412.496                                                                                
   DEXC   =    0.000                                                                                
   RMAX   =    2.560    core radius for proj-oper                                                   
   RAUG   =    1.300    factor for augmentation sphere                                              
   RDEP   =    2.576    radius for radial grids                                                     
   RDEPT  =    2.072    core radius for aug-charge                                                  
                                                                                                    
   Atomic configuration                                                                             
   12 entries                                                                                       
     n  l   j            E        occ.                                                              
     1  0  0.50    -25324.9161   2.0000                                                             
     2  0  0.50     -3728.5341   2.0000                                                             
     2  1  1.50     -3344.0404   6.0000                                                             
     3  0  0.50      -683.5581   2.0000                                                             
     3  1  1.50      -557.3225   6.0000                                                             
     3  2  2.50      -358.3853  10.0000                                                             
     4  0  0.50       -95.0341   2.0000                                                             
     4  1  1.50       -58.5511   6.0000                                                             
     4  2  2.50        -7.4440  10.0000                                                             
     5  0  0.50        -4.4045   1.0000                                                             
     5  1  0.50        -1.3606   0.0000                                                             
     4  3  2.50        -1.3606   0.0000                                                             
   Description                                                                                      
     l       E           TYP  RCUT    TYP  RCUT                                                     
     2     -7.4439781     23  2.400                                                                 
     2     -8.8045607     23  2.400                                                                 
     0     -4.4044681     23  2.400                                                                 
     0      1.9520038     23  2.400                                                                 
     1     -1.3605826     23  2.500                                                                 
     1     27.2116520     23  2.500                                                                 
     3     -4.0817478     23  2.400                                                                 
  local pseudopotential read in
  partial core-charges read in
  partial kinetic energy density read in
  atomic valenz-charges read in
  non local Contribution for L=           2  read in
    real space projection operators read in
  non local Contribution for L=           2  read in
    real space projection operators read in
  non local Contribution for L=           0  read in
    real space projection operators read in
  non local Contribution for L=           0  read in
    real space projection operators read in
  non local Contribution for L=           1  read in
    real space projection operators read in
  non local Contribution for L=           1  read in
    real space projection operators read in
    PAW grid and wavefunctions read in
 
   number of l-projection  operators is LMAX  =           6
   number of lm-projection operators is LMMAX =          18
 
 POTCAR:    PAW_PBE Cr 06Sep2000                  
   VRHFIN =Cr : d5 s1                                                                               
   LEXCH  = PE                                                                                      
   EATOM  =   276.8859 eV,   20.3505 Ry                                                             
                                                                                                    
   TITEL  = PAW_PBE Cr 06Sep2000                                                                    
   LULTRA =        F    use ultrasoft PP ?                                                          
   IUNSCR =        1    unscreen: 0-lin 1-nonlin 2-no                                               
   RPACOR =    2.080    partial core radius                                                         
   POMASS =   51.996; ZVAL   =    6.000    mass and valenz                                          
   RCORE  =    2.500    outmost cutoff radius                                                       
   RWIGS  =    2.500; RWIGS  =    1.323    wigner-seitz radius (au A)                               
   ENMAX  =  227.080; ENMIN  =  170.310 eV                                                          
   RCLOC  =    1.721    cutoff for local pot                                                        
   LCOR   =        T    correct aug charges                                                         
   LPAW   =        T    paw PP                                                                      
   EAUG   =  402.108                                                                                
   DEXC   =    0.000                                                                                
   RMAX   =    2.552    core radius for proj-oper                                                   
   RAUG   =    1.300    factor for augmentation sphere                                              
   RDEP   =    2.609    radius for radial grids                                                     
   RDEPT  =    2.065    core radius for aug-charge                                                  
                                                                                                    
   Atomic configuration                                                                             
    9 entries                                                                                       
     n  l   j            E        occ.                                                              
     1  0  0.50     -5880.4963   2.0000                                                             
     2  0  0.50      -667.0865   2.0000                                                             
     2  1  1.50      -560.6250   6.0000                                                             
     3  0  0.50       -73.9860   2.0000                                                             
     3  1  1.50       -45.4378   6.0000                                                             
     3  2  2.50        -2.9137   5.0000                                                             
     4  0  0.50        -4.0071   1.0000                                                             
     4  1  0.50        -1.2789   0.0000                                                             
     4  3  2.50        -1.3606   0.0000                                                             
   Description                                                                                      
     l       E           TYP  RCUT    TYP  RCUT                                                     
     2     -2.9136677     23  2.500                                                                 
     2     -4.2742503     23  2.500                                                                 
     0     -4.0071322     23  2.500                                                                 
     0      9.4498801     23  2.500                                                                 
     1     -5.4423304     23  2.500                                                                 
     1     27.2116520     23  2.500                                                                 
  local pseudopotential read in
  partial core-charges read in
  partial kinetic energy density read in
  atomic valenz-charges read in
  non local Contribution for L=           2  read in
    real space projection operators read in
  non local Contribution for L=           2  read in
    real space projection operators read in
  non local Contribution for L=           0  read in
    real space projection operators read in
  non local Contribution for L=           0  read in
    real space projection operators read in
  non local Contribution for L=           1  read in
    real space projection operators read in
  non local Contribution for L=           1  read in
    real space projection operators read in
    PAW grid and wavefunctions read in
 
   number of l-projection  operators is LMAX  =           6
   number of lm-projection operators is LMMAX =          18
 
 POTCAR:    PAW_PBE C 08Apr2002                   
   VRHFIN =C: s2p2                                                                                  
   LEXCH  = PE                                                                                      
   EATOM  =   147.1560 eV,   10.8157 Ry                                                             
                                                                                                    
   TITEL  = PAW_PBE C 08Apr2002                                                                     
   LULTRA =        F    use ultrasoft PP ?                                                          
   IUNSCR =        1    unscreen: 0-lin 1-nonlin 2-no                                               
   RPACOR =    1.200    partial core radius                                                         
   POMASS =   12.011; ZVAL   =    4.000    mass and valenz                                          
   RCORE  =    1.500    outmost cutoff radius                                                       
   RWIGS  =    1.630; RWIGS  =    0.863    wigner-seitz radius (au A)                               
   ENMAX  =  400.000; ENMIN  =  300.000 eV                                                          
   ICORE  =        2    local potential                                                             
   LCOR   =        T    correct aug charges                                                         
   LPAW   =        T    paw PP                                                                      
   EAUG   =  644.873                                                                                
   DEXC   =    0.000                                                                                
   RMAX   =    1.529    core radius for proj-oper                                                   
   RAUG   =    1.300    factor for augmentation sphere                                              
   RDEP   =    1.501    radius for radial grids                                                     
   RDEPT  =    1.300    core radius for aug-charge                                                  
                                                                                                    
   Atomic configuration                                                                             
    4 entries                                                                                       
     n  l   j            E        occ.                                                              
     1  0  0.50      -273.3789   2.0000                                                             
     2  0  0.50       -13.7508   2.0000                                                             
     2  1  0.50        -5.2854   2.0000                                                             
     3  2  1.50        -5.4423   0.0000                                                             
   Description                                                                                      
     l       E           TYP  RCUT    TYP  RCUT                                                     
     0    -13.7508458     23  1.200                                                                 
     0     -8.2022199     23  1.200                                                                 
     1     -5.2854383     23  1.500                                                                 
     1     34.0145650     23  1.500                                                                 
     2     -5.4423304      7  1.500                                                                 
  local pseudopotential read in
  partial core-charges read in
  partial kinetic energy density read in
  atomic valenz-charges read in
  non local Contribution for L=           0  read in
    real space projection operators read in
  non local Contribution for L=           0  read in
    real space projection operators read in
  non local Contribution for L=           1  read in
    real space projection operators read in
  non local Contribution for L=           1  read in
    real space projection operators read in
    PAW grid and wavefunctions read in
 
   number of l-projection  operators is LMAX  =           4
   number of lm-projection operators is LMMAX =           8
 
 POTCAR:    PAW_PBE O 08Apr2002                   
   VRHFIN =O: s2p4                                                                                  
   LEXCH  = PE                                                                                      
   EATOM  =   432.3788 eV,   31.7789 Ry                                                             
                                                                                                    
   TITEL  = PAW_PBE O 08Apr2002                                                                     
   LULTRA =        F    use ultrasoft PP ?                                                          
   IUNSCR =        1    unscreen: 0-lin 1-nonlin 2-no                                               
   RPACOR =    1.200    partial core radius                                                         
   POMASS =   16.000; ZVAL   =    6.000    mass and valenz                                          
   RCORE  =    1.520    outmost cutoff radius                                                       
   RWIGS  =    1.550; RWIGS  =    0.820    wigner-seitz radius (au A)                               
   ENMAX  =  400.000; ENMIN  =  300.000 eV                                                          
   ICORE  =        2    local potential                                                             
   LCOR   =        T    correct aug charges                                                         
   LPAW   =        T    paw PP                                                                      
   EAUG   =  605.392                                                                                
   DEXC   =    0.000                                                                                
   RMAX   =    1.553    core radius for proj-oper                                                   
   RAUG   =    1.300    factor for augmentation sphere                                              
   RDEP   =    1.550    radius for radial grids                                                     
   RDEPT  =    1.329    core radius for aug-charge                                                  
                                                                                                    
   Atomic configuration                                                                             
    4 entries                                                                                       
     n  l   j            E        occ.                                                              
     1  0  0.50      -514.6923   2.0000                                                             
     2  0  0.50       -23.9615   2.0000                                                             
     2  1  0.50        -9.0305   4.0000                                                             
     3  2  1.50        -9.5241   0.0000                                                             
   Description                                                                                      
     l       E           TYP  RCUT    TYP  RCUT                                                     
     0    -23.9615318     23  1.200                                                                 
     0     -9.5240782     23  1.200                                                                 
     1     -9.0304911     23  1.520                                                                 
     1      8.1634956     23  1.520                                                                 
     2     -9.5240782      7  1.500                                                                 
  local pseudopotential read in
  partial core-charges read in
  partial kinetic energy density read in
  kinetic energy density of atom read in
  atomic valenz-charges read in
  non local Contribution for L=           0  read in
    real space projection operators read in
  non local Contribution for L=           0  read in
    real space projection operators read in
  non local Contribution for L=           1  read in
    real space projection operators read in
  non local Contribution for L=           1  read in
    real space projection operators read in
    PAW grid and wavefunctions read in
 
   number of l-projection  operators is LMAX  =           4
   number of lm-projection operators is LMMAX =           8
 
 POTCAR:    PAW_PBE H 15Jun2001                   
   VRHFIN =H: ultrasoft test                                                                        
   LEXCH  = PE                                                                                      
   EATOM  =    12.4884 eV,    0.9179 Ry                                                             
                                                                                                    
   TITEL  = PAW_PBE H 15Jun2001                                                                     
   LULTRA =        F    use ultrasoft PP ?                                                          
   IUNSCR =        0    unscreen: 0-lin 1-nonlin 2-no                                               
   RPACOR =    0.000    partial core radius                                                         
   POMASS =    1.000; ZVAL   =    1.000    mass and valenz                                          
   RCORE  =    1.100    outmost cutoff radius                                                       
   RWIGS  =    0.700; RWIGS  =    0.370    wigner-seitz radius (au A)                               
   ENMAX  =  250.000; ENMIN  =  200.000 eV                                                          
   RCLOC  =    0.701    cutoff for local pot                                                        
   LCOR   =        T    correct aug charges                                                         
   LPAW   =        T    paw PP                                                                      
   EAUG   =  400.000                                                                                
   RMAX   =    1.123    core radius for proj-oper                                                   
   RAUG   =    1.200    factor for augmentation sphere                                              
   RDEP   =    1.112    radius for radial grids                                                     
   RDEPT  =    0.926    core radius for aug-charge                                                  
                                                                                                    
   Atomic configuration                                                                             
    2 entries                                                                                       
     n  l   j            E        occ.                                                              
     1  0  0.50        -6.4927   1.0000                                                             
     2  1  0.50        -3.4015   0.0000                                                             
   Description                                                                                      
     l       E           TYP  RCUT    TYP  RCUT                                                     
     0     -6.4927494     23  1.100                                                                 
     0      6.8029130     23  1.100                                                                 
     1     -4.0817478     23  1.100                                                                 
  local pseudopotential read in
  atomic valenz-charges read in
  non local Contribution for L=           0  read in
    real space projection operators read in
  non local Contribution for L=           0  read in
    real space projection operators read in
  non local Contribution for L=           1  read in
    real space projection operators read in
    PAW grid and wavefunctions read in
 
   number of l-projection  operators is LMAX  =           3
   number of lm-projection operators is LMMAX =           5
 
 Optimization of the real space projectors (new method)

 maximal supplied QI-value         = 15.12
 optimisation between [QCUT,QGAM] = [ 11.34, 22.83] = [ 36.00,145.93] Ry 
 Optimized for a Real-space Cutoff    1.43 Angstroem

   l    n(q)    QCUT    max X(q) W(low)/X(q) W(high)/X(q)  e(spline) 
   2      9    11.338    53.897    0.16E-03    0.20E-03    0.28E-06
   2      9    11.338    52.416    0.16E-03    0.20E-03    0.29E-06
   0     10    11.338   122.045    0.31E-04    0.76E-04    0.15E-06
   0     10    11.338    73.629    0.30E-04    0.72E-04    0.15E-06
   1      9    11.338    15.255    0.20E-03    0.19E-04    0.17E-06
   1      9    11.338     9.562    0.16E-03    0.15E-04    0.14E-06
 Optimization of the real space projectors (new method)

 maximal supplied QI-value         = 15.12
 optimisation between [QCUT,QGAM] = [ 11.34, 22.83] = [ 36.00,145.93] Ry 
 Optimized for a Real-space Cutoff    1.43 Angstroem

   l    n(q)    QCUT    max X(q) W(low)/X(q) W(high)/X(q)  e(spline) 
   2      9    11.338    94.395    0.18E-03    0.10E-02    0.64E-06
   2      9    11.338    88.078    0.18E-03    0.10E-02    0.65E-06
   0     10    11.338    50.173    0.13E-03    0.16E-03    0.96E-07
   0     10    11.338    24.906    0.12E-03    0.14E-03    0.88E-07
   1      9    11.338    12.133    0.13E-03    0.15E-03    0.24E-06
   1      9    11.338     7.290    0.10E-03    0.10E-03    0.18E-06
 Optimization of the real space projectors (new method)

 maximal supplied QI-value         = 25.13
 optimisation between [QCUT,QGAM] = [ 11.31, 22.87] = [ 35.82,146.48] Ry 
 Optimized for a Real-space Cutoff    1.00 Angstroem

   l    n(q)    QCUT    max X(q) W(low)/X(q) W(high)/X(q)  e(spline) 
   0      7    11.310   115.676    0.43E-03    0.13E-02    0.19E-06
   0      7    11.310    87.132    0.43E-03    0.13E-02    0.18E-06
   1      6    11.310     4.429    0.42E-03    0.74E-03    0.11E-06
   1      6    11.310     2.733    0.34E-03    0.55E-03    0.92E-07
 Optimization of the real space projectors (new method)

 maximal supplied QI-value         = 24.76
 optimisation between [QCUT,QGAM] = [ 11.39, 22.77] = [ 36.31,145.25] Ry 
 Optimized for a Real-space Cutoff    1.00 Angstroem

   l    n(q)    QCUT    max X(q) W(low)/X(q) W(high)/X(q)  e(spline) 
   0      7    11.387    20.381    0.39E-03    0.13E-02    0.15E-06
   0      7    11.387    15.268    0.42E-03    0.14E-02    0.17E-06
   1      6    11.387     5.964    0.41E-03    0.11E-02    0.17E-06
   1      6    11.387     5.382    0.39E-03    0.87E-03    0.15E-06
 Optimization of the real space projectors (new method)

 maximal supplied QI-value         = 34.20
 optimisation between [QCUT,QGAM] = [ 11.29, 22.57] = [ 35.68,142.71] Ry 
 Optimized for a Real-space Cutoff    1.16 Angstroem

   l    n(q)    QCUT    max X(q) W(low)/X(q) W(high)/X(q)  e(spline) 
   0      8    11.287    19.460    0.40E-03    0.73E-03    0.16E-06
   0      8    11.287    12.209    0.38E-03    0.70E-03    0.15E-06
   1      7    11.287     4.655    0.22E-03    0.25E-04    0.22E-06
  PAW_PBE Ag 02Apr2005                  :
 energy of atom  1       EATOM=-1037.2675
 kinetic energy error for atom=    0.0052 (will be added to EATOM!!)
  PAW_PBE Cr 06Sep2000                  :
 energy of atom  2       EATOM= -276.8859
 kinetic energy error for atom=    0.0012 (will be added to EATOM!!)
  PAW_PBE C 08Apr2002                   :
 energy of atom  3       EATOM= -147.1560
 kinetic energy error for atom=    0.0076 (will be added to EATOM!!)
  PAW_PBE O 08Apr2002                   :
 energy of atom  4       EATOM= -432.3788
 kinetic energy error for atom=    0.0224 (will be added to EATOM!!)
  PAW_PBE H 15Jun2001                   :
 energy of atom  5       EATOM=  -12.4884
 kinetic energy error for atom=    0.0020 (will be added to EATOM!!)
 
 
 POSCAR: Ag-Cr-COH
  positions in direct lattice
  velocities in cartesian coordinates
 exchange correlation table for  LEXCH =        8
   RHO(1)=    0.500       N(1)  =     2000
   RHO(2)=  100.500       N(2)  =     4000

 VTST: version 3.2, (02/03/18)

 CHAIN: initializing optimizer
 
 OPT: Using VASP Conjugate-Gradient optimizer
 CHAIN: Read ICHAIN            0
 
 POSCAR: Ag-Cr-COH
  positions in direct lattice
  velocities in cartesian coordinates
 


--------------------------------------------------------------------------------------------------------


 ion  position               nearest neighbor table
   1  0.000  0.000  0.199-   2 2.93   8 2.93   7 2.93   6 2.93   4 2.93  12 2.93  16 2.93  10 2.93
                             3 2.93
   2  0.333  0.000  0.199-   1 2.93   8 2.93   9 2.93   3 2.93   4 2.93   5 2.93  10 2.93  17 2.93
                            11 2.93
   3  0.667  0.000  0.199-   9 2.93   2 2.93   5 2.93  11 2.93   7 2.93  18 2.93   1 2.93   6 2.93
                            12 2.93
   4  0.000  0.333  0.199-   5 2.93   6 2.93   2 2.93   1 2.93   7 2.93  13 2.93  15 2.93   9 2.93
                            10 2.93
   5  0.333  0.333  0.199-   4 2.93   3 2.93   7 2.93   2 2.93   8 2.93  14 2.93  13 2.93  11 2.93
                             6 2.93
   6  0.667  0.333  0.199-   4 2.93   9 2.93   1 2.93  15 2.93   8 2.93  12 2.93   3 2.93   5 2.93
                            14 2.93
   7  0.000  0.667  0.199-   8 2.93   1 2.93   5 2.93   3 2.93   4 2.93  16 2.93  18 2.93  13 2.93
                             9 2.93
   8  0.333  0.667  0.199-   7 2.93   1 2.93   2 2.93   9 2.93   5 2.93  16 2.93   6 2.93  17 2.93
                            14 2.93
   9  0.667  0.667  0.199-   3 2.93   2 2.93   8 2.93   6 2.93  17 2.93   4 2.93  15 2.93   7 2.93
                            18 2.93
  10  0.111  0.111  0.289-  20 2.91  19 2.92  26 2.92  12 2.93  16 2.93  15 2.93  17 2.93  13 2.93
                            11 2.93   2 2.93   1 2.93   4 2.93
  11  0.444  0.111  0.289-  21 2.90  20 2.90  27 2.92  14 2.93  17 2.93  18 2.93   3 2.93  12 2.93
                            13 2.93  10 2.93   5 2.93   2 2.93
  12  0.778  0.111  0.289-  21 2.91  25 2.92  19 2.92  10 2.93  16 2.93  18 2.93  15 2.93  11 2.93
                             1 2.93  14 2.93   6 2.93   3 2.93
  13  0.111  0.444  0.289-  20 2.90  23 2.90  22 2.92  15 2.93  14 2.93  18 2.93  10 2.93  11 2.93
                            16 2.93   4 2.93   5 2.93   7 2.93
  14  0.444  0.444  0.289-  23 2.90  21 2.90  24 2.92  13 2.93  11 2.93  16 2.93   5 2.93  12 2.93
                            17 2.93   8 2.93  15 2.93   6 2.93
  15  0.778  0.444  0.289-  24 2.92  22 2.92  19 2.92  13 2.93  10 2.93  12 2.93  17 2.93  18 2.93
                             4 2.93   6 2.93   9 2.93  14 2.93
  16  0.111  0.778  0.289-  23 2.91  26 2.92  25 2.92  18 2.93  12 2.93  10 2.93  14 2.93  17 2.93
                            13 2.93   7 2.93   8 2.93   1 2.93
  17  0.444  0.778  0.289-  27 2.92  24 2.92  26 2.92  11 2.93  10 2.93   9 2.93  18 2.93  15 2.93
                            16 2.93   2 2.93  14 2.93   8 2.93
  18  0.778  0.778  0.289-  22 2.92  27 2.92  25 2.92  16 2.93  12 2.93  13 2.93  11 2.93  17 2.93
                            15 2.93   7 2.93   3 2.93   9 2.93
  19  0.889  0.222  0.378-  28 2.91  15 2.92  10 2.92  12 2.92  24 2.93  22 2.93  26 2.93  25 2.93
                            20 2.94  21 2.94  32 2.96  31 2.96
  20  0.223  0.223  0.378-  36 2.73  13 2.90  11 2.90  21 2.91  23 2.91  10 2.91  31 2.91  29 2.91
                            27 2.93  22 2.93  19 2.94  26 2.94
  21  0.554  0.223  0.378-  36 2.73  11 2.90  14 2.90  20 2.91  23 2.91  12 2.91  30 2.91  32 2.91
                            27 2.93  24 2.93  25 2.94  19 2.94
  22  0.888  0.556  0.378-  35 2.91  18 2.92  15 2.92  13 2.92  24 2.92  27 2.92  25 2.93  19 2.93
                            33 2.93  31 2.93  23 2.93  20 2.93
  23  0.223  0.554  0.378-  36 2.73  14 2.90  13 2.90  21 2.91  20 2.91  16 2.91  34 2.91  33 2.91
                            22 2.93  24 2.93  26 2.94  25 2.94
  24  0.556  0.556  0.378-  35 2.91  15 2.92  17 2.92  14 2.92  27 2.92  22 2.92  19 2.93  26 2.93
                            32 2.93  34 2.93  23 2.93  21 2.93
  25  0.889  0.889  0.378-  28 2.91  18 2.92  16 2.92  12 2.92  22 2.93  27 2.93  26 2.93  19 2.93
                            23 2.94  21 2.94  33 2.96  30 2.96
  26  0.222  0.889  0.378-  28 2.91  17 2.92  16 2.92  10 2.92  27 2.93  24 2.93  25 2.93  19 2.93
                            23 2.94  20 2.94  34 2.96  29 2.96
  27  0.556  0.888  0.378-  35 2.91  17 2.92  18 2.92  11 2.92  24 2.92  22 2.92  26 2.93  25 2.93
                            29 2.93  30 2.93  20 2.93  21 2.93
  28  0.000  0.000  0.468-  26 2.91  25 2.91  19 2.91  29 2.96  34 2.96  33 2.96  32 2.96  31 2.96
                            30 2.96
  29  0.333  0.007  0.468-  30 2.87  31 2.87  36 2.88  20 2.91  27 2.93  26 2.96  35 2.96  28 2.96
                            34 3.06
  30  0.659  0.007  0.468-  29 2.87  32 2.87  36 2.88  21 2.91  27 2.93  25 2.96  35 2.96  28 2.96
                            33 3.06
  31  0.007  0.333  0.468-  33 2.87  29 2.87  36 2.88  20 2.91  22 2.93  19 2.96  35 2.96  28 2.96
                            32 3.06
  32  0.659  0.333  0.468-  34 2.87  30 2.87  36 2.88  21 2.91  24 2.93  19 2.96  35 2.96  28 2.96
                            31 3.06
  33  0.007  0.659  0.468-  31 2.87  34 2.87  36 2.88  23 2.91  22 2.93  25 2.96  35 2.96  28 2.96
                            30 3.06
  34  0.333  0.659  0.468-  32 2.87  33 2.87  36 2.88  23 2.91  24 2.93  26 2.96  35 2.96  28 2.96
                            29 3.06
  35  0.667  0.667  0.468-  24 2.91  27 2.91  22 2.91  30 2.96  32 2.96  29 2.96  34 2.96  31 2.96
                            33 2.96
  36  0.333  0.333  0.459-  37 1.71  21 2.73  20 2.73  23 2.73  31 2.88  33 2.88  30 2.88  29 2.88
                            34 2.88  32 2.88
  37  0.333  0.333  0.523-  38 1.28  36 1.71
  38  0.333  0.333  0.571-  39 0.96  37 1.28
  39  0.333  0.333  0.607-  38 0.96
 
  LATTYP: Found a hexagonal cell.
 ALAT       =     8.7913665772
 C/A-ratio  =     3.0233954145
  
  Lattice vectors:
  
 A1 = (  -4.3956832886,  -7.6135467898,   0.0000000000)
 A2 = (   8.7913665771,   0.0000000000,   0.0000000000)
 A3 = (   0.0000000000,   0.0000000000,  26.5797773968)


Analysis of symmetry for initial positions (statically):
=====================================================================
 Subroutine PRICEL returns:
 Original cell was already a primitive cell.
 

 Routine SETGRP: Setting up the symmetry group for a 
 hexagonal supercell.


 Subroutine GETGRP returns: Found  6 space group operations
 (whereof  6 operations were pure point group operations)
 out of a pool of 24 trial point group operations.


The static configuration has the point symmetry C_3v.


Analysis of symmetry for dynamics (positions and initial velocities):
=====================================================================
 Subroutine PRICEL returns:
 Original cell was already a primitive cell.
 

 Routine SETGRP: Setting up the symmetry group for a 
 hexagonal supercell.


 Subroutine GETGRP returns: Found  6 space group operations
 (whereof  6 operations were pure point group operations)
 out of a pool of 24 trial point group operations.


The dynamic configuration has the point symmetry C_3v.


Analysis of constrained symmetry for selective dynamics:
=====================================================================
 Subroutine PRICEL returns:
 Original cell was already a primitive cell.
 

 Routine SETGRP: Setting up the symmetry group for a 
 hexagonal supercell.


 Subroutine GETGRP returns: Found  6 space group operations
 (whereof  6 operations were pure point group operations)
 out of a pool of 24 trial point group operations.


The constrained configuration has the point symmetry C_3v.


 Subroutine INISYM returns: Found  6 space group operations
 (whereof  6 operations are pure point group operations),
 and found     1 'primitive' translations


----------------------------------------------------------------------------------------

                                     Primitive cell                                     

  volume of cell :    1779.0770

  direct lattice vectors                    reciprocal lattice vectors
     8.791366577  0.000000000  0.000000000     0.113747958 -0.065672414  0.000000000
     4.395683289  7.613546790  0.000000000     0.000000000  0.131344829  0.000000000
     0.000000000  0.000000000 26.579777397     0.000000000  0.000000000  0.037622587

  length of vectors
     8.791366577  8.791366577 26.579777397     0.131344829  0.131344829  0.037622587

  position of ions in fractional coordinates (direct lattice)
     0.000000000  0.000000000  0.198729585
     0.333333313  0.000000000  0.198729585
     0.666666627  0.000000000  0.198729585
     1.000000000  0.333333343  0.198729585
     0.333333313  0.333333343  0.198729585
     0.666666687  0.333333343  0.198729585
     1.000000000  0.666666687  0.198729585
     0.333333313  0.666666687  0.198729585
     0.666666627  0.666666687  0.198729585
     0.111111104  0.111111112  0.288749421
     0.444444448  0.111111112  0.288749421
     0.777777791  0.111111112  0.288749421
     0.111111097  0.444444448  0.288749421
     0.444444418  0.444444448  0.288749421
     0.777777791  0.444444448  0.288749421
     0.111111104  0.777777791  0.288749421
     0.444444448  0.777777791  0.288749421
     0.777777791  0.777777791  0.288749421
     0.888767793  0.222464430  0.378423383
     0.222890716  0.222890731  0.377696390
     0.554218509  0.222890731  0.377696390
     0.888473127  0.555763466  0.378264987
     0.222890731  0.554218569  0.377696390
     0.555763466  0.555763466  0.378264987
     0.888767793  0.888767793  0.378423383
     0.222464400  0.888767793  0.378423383
     0.555763406  0.888473127  0.378264987
     0.000000000  0.000000000  0.467514339
     0.333374766  0.007169798  0.468265579
     0.659455376  0.007169798  0.468265579
     0.007169798  0.333374796  0.468265579
     0.659455436  0.333374796  0.468265579
     0.007169798  0.659455436  0.468265579
     0.333374766  0.659455436  0.468265579
     0.666666627  0.666666687  0.467613403
     0.333333313  0.333333343  0.458502399
     0.333333313  0.333333343  0.522962920
     0.333333313  0.333333343  0.570956056
     0.333333313  0.333333343  0.606911291

  ion indices of the primitive-cell ions
   primitive index   ion index
                 1           1
                 2           2
                 3           3
                 4           4
                 5           5
                 6           6
                 7           7
                 8           8
                 9           9
                10          10
                11          11
                12          12
                13          13
                14          14
                15          15
                16          16
                17          17
                18          18
                19          19
                20          20
                21          21
                22          22
                23          23
                24          24
                25          25
                26          26
                27          27
                28          28
                29          29
                30          30
                31          31
                32          32
                33          33
                34          34
                35          35
                36          36
                37          37
                38          38
                39          39

----------------------------------------------------------------------------------------

 
 
 KPOINTS: Automatic mesh                          

Automatic generation of k-mesh.
 Grid dimensions read from file:
 generate k-points for:    8    8    1

 Generating k-lattice:

  Cartesian coordinates                     Fractional coordinates (reciprocal lattice)
     0.014218495 -0.008209052  0.000000000     0.125000000 -0.000000000  0.000000000
     0.000000000  0.016418104  0.000000000     0.000000000  0.125000000  0.000000000
     0.000000000  0.000000000  0.037622587     0.000000000  0.000000000  1.000000000

  Length of vectors
     0.016418104  0.016418104  0.037622587

  Shift w.r.t. Gamma in fractional coordinates (k-lattice)
     0.000000000  0.000000000  0.000000000

 TETIRR: Found     36 inequivalent tetrahedra from      384
 
 Subroutine IBZKPT returns following result:
 ===========================================
 
 Found     10 irreducible k-points:
 
 Following reciprocal coordinates:
            Coordinates               Weight
  0.000000  0.000000  0.000000      1.000000
  0.125000 -0.000000  0.000000      6.000000
  0.250000 -0.000000  0.000000      6.000000
  0.375000 -0.000000  0.000000      6.000000
  0.500000 -0.000000  0.000000      3.000000
  0.250000  0.125000  0.000000      6.000000
  0.375000  0.125000  0.000000     12.000000
  0.500000  0.125000  0.000000     12.000000
  0.500000  0.250000  0.000000      6.000000
 -0.375000  0.250000  0.000000      6.000000
 
 Following cartesian coordinates:
            Coordinates               Weight
  0.000000  0.000000  0.000000      1.000000
  0.014218 -0.008209  0.000000      6.000000
  0.028437 -0.016418  0.000000      6.000000
  0.042655 -0.024627  0.000000      6.000000
  0.056874 -0.032836  0.000000      3.000000
  0.028437 -0.000000  0.000000      6.000000
  0.042655 -0.008209  0.000000     12.000000
  0.056874 -0.016418  0.000000     12.000000
  0.056874 -0.000000  0.000000      6.000000
 -0.042655  0.057463  0.000000      6.000000
 


--------------------------------------------------------------------------------------------------------




 Dimension of arrays:
   k-points           NKPTS =     10   k-points in BZ     NKDIM =     10   number of bands    NBANDS=    252
   number of dos      NEDOS =    301   number of ions     NIONS =     39
   non local maximal  LDIM  =      6   non local SUM 2l+1 LMDIM =     18
   total plane-waves  NPLWV = 345600
   max r-space proj   IRMAX =   2436   max aug-charges    IRDMAX=  10122
   dimension x,y,z NGX =    48 NGY =   48 NGZ =  150
   dimension x,y,z NGXF=    96 NGYF=   96 NGZF=  300
   support grid    NGXF=    96 NGYF=   96 NGZF=  300
   ions per type =              35   1   1   1   1
   NGX,Y,Z   is equivalent  to a cutoff of   9.08,  9.08,  9.38 a.u.
   NGXF,Y,Z  is equivalent  to a cutoff of  18.15, 18.15, 18.76 a.u.

 SYSTEM =  unknown system                          
 POSCAR =  Ag-Cr-COH                               

 Startparameter for this run:
   NWRITE =      2    write-flag & timer
   PREC   = normal    normal or accurate (medium, high low for compatibility)
   ISTART =      0    job   : 0-new  1-cont  2-samecut
   ICHARG =     11    charge: 1-file 2-atom 10-const
   ISPIN  =      1    spin polarized calculation?
   LNONCOLLINEAR =      F non collinear calculations
   LSORBIT =      F    spin-orbit coupling
   INIWAV =      1    electr: 0-lowe 1-rand  2-diag
   LASPH  =      F    aspherical Exc in radial PAW
   METAGGA=      F    non-selfconsistent MetaGGA calc.

 Electronic Relaxation 1
   ENCUT  =  500.0 eV  36.75 Ry    6.06 a.u.  16.03 16.03 48.46*2*pi/ulx,y,z
   ENINI  =  500.0     initial cutoff
   ENAUG  =  644.9 eV  augmentation charge cutoff
   NELM   =    150;   NELMIN=  2; NELMDL= -5     # of ELM steps 
   EDIFF  = 0.1E-04   stopping-criterion for ELM
   LREAL  =      T    real-space projection
   NLSPLINE    = F    spline interpolate recip. space projectors
   LCOMPAT=      F    compatible to vasp.4.4
   GGA_COMPAT  = T    GGA compatible to vasp.4.4-vasp.4.6
   LMAXPAW     = -100 max onsite density
   LMAXMIX     =    2 max onsite mixed and CHGCAR
   VOSKOWN=      0    Vosko Wilk Nusair interpolation
   ROPT   =   -0.00050  -0.00050  -0.00050  -0.00050
   ROPT   =   -0.00050
 Ionic relaxation
   EDIFFG = -.1E-01   stopping-criterion for IOM
   NSW    =      0    number of steps for IOM
   NBLOCK =      1;   KBLOCK =      1    inner block; outer block 
   IBRION =     -1    ionic relax: 0-MD 1-quasi-New 2-CG
   NFREE  =      1    steps in history (QN), initial steepest desc. (CG)
   ISIF   =      2    stress and relaxation
   IWAVPR =     10    prediction:  0-non 1-charg 2-wave 3-comb
   ISYM   =      2    0-nonsym 1-usesym 2-fastsym
   LCORR  =      T    Harris-Foulkes like correction to forces

   POTIM  = 0.5000    time-step for ionic-motion
   TEIN   =    0.0    initial temperature
   TEBEG  =    0.0;   TEEND  =   0.0 temperature during run
   SMASS  =  -3.00    Nose mass-parameter (am)
   estimated Nose-frequenzy (Omega)   =  0.10E-29 period in steps = 0.13E+47 mass=  -0.177E-26a.u.
   SCALEE = 1.0000    scale energy and forces
   NPACO  =    256;   APACO  = 16.0  distance and # of slots for P.C.
   PSTRESS=    0.0 pullay stress

  Mass of Ions in am
   POMASS = 107.87 52.00 12.01 16.00  1.00
  Ionic Valenz
   ZVAL   =  11.00  6.00  4.00  6.00  1.00
  Atomic Wigner-Seitz radii
   RWIGS  =  -1.00 -1.00 -1.00 -1.00 -1.00
  virtual crystal weights 
   VCA    =   1.00  1.00  1.00  1.00  1.00
   NELECT =     402.0000    total number of electrons
   NUPDOWN=      -1.0000    fix difference up-down

 DOS related values:
   EMIN   =  10.00;   EMAX   =-10.00  energy-range for DOS
   EFERMI =   0.00
   ISMEAR =    -5;   SIGMA  =   0.10  broadening in eV -4-tet -1-fermi 0-gaus

 Electronic relaxation 2 (details)
   IALGO  =     68    algorithm
   LDIAG  =      T    sub-space diagonalisation (order eigenvalues)
   LSUBROT=      F    optimize rotation matrix (better conditioning)
   TURBO    =      0    0=normal 1=particle mesh
   IRESTART =      0    0=no restart 2=restart with 2 vectors
   NREBOOT  =      0    no. of reboots
   NMIN     =      0    reboot dimension
   EREF     =   0.00    reference energy to select bands
   IMIX   =      4    mixing-type and parameters
     AMIX     =   0.40;   BMIX     =  1.00
     AMIX_MAG =   1.60;   BMIX_MAG =  1.00
     AMIN     =   0.10
     WC   =   100.;   INIMIX=   1;  MIXPRE=   1;  MAXMIX= -45

 Intra band minimization:
   WEIMIN = 0.0000     energy-eigenvalue tresh-hold
   EBREAK =  0.99E-08  absolut break condition
   DEPER  =   0.30     relativ break condition  

   TIME   =   0.40     timestep for ELM

  volume/ion in A,a.u.               =      45.62       307.84
  Fermi-wavevector in a.u.,A,eV,Ry     =   0.997130  1.884303 13.527850  0.994269
  Thomas-Fermi vector in A             =   2.129266
 
 Write flags
   LWAVE        =      F    write WAVECAR
   LDOWNSAMPLE  =      F    k-point downsampling of WAVECAR
   LCHARG       =      F    write CHGCAR
   LVTOT        =      F    write LOCPOT, total local potential
   LVHAR        =      F    write LOCPOT, Hartree potential only
   LELF         =      F    write electronic localiz. function (ELF)
   LORBIT       =     10    0 simple, 1 ext, 2 COOP (PROOUT), +10 PAW based schemes


 Dipole corrections
   LMONO  =      F    monopole corrections only (constant potential shift)
   LDIPOL =      F    correct potential (dipole corrections)
   IDIPOL =      0    1-x, 2-y, 3-z, 4-all directions 
   EPSILON=  1.0000000 bulk dielectric constant

 Exchange correlation treatment:
   GGA     =    --    GGA type
   LEXCH   =     8    internal setting for exchange type
   VOSKOWN=      0    Vosko Wilk Nusair interpolation
   LHFCALC =     F    Hartree Fock is set to
   LHFONE  =     F    Hartree Fock one center treatment
   AEXX    =    0.0000 exact exchange contribution

 Linear response parameters
   LEPSILON=     F    determine dielectric tensor
   LRPA    =     F    only Hartree local field effects (RPA)
   LNABLA  =     F    use nabla operator in PAW spheres
   LVEL    =     F    velocity operator in full k-point grid
   LINTERFAST=   F  fast interpolation
   KINTER  =     0    interpolate to denser k-point grid
   CSHIFT  =0.1000    complex shift for real part using Kramers Kronig
   OMEGAMAX=  -1.0    maximum frequency
   DEG_THRESHOLD= 0.2000000E-02 threshold for treating states as degnerate
   RTIME   =   -0.100 relaxation time in fs
  (WPLASMAI=    0.000 imaginary part of plasma frequency in eV, 0.658/RTIME)
   DFIELD  = 0.0000000 0.0000000 0.0000000 field for delta impulse in time
 
 Orbital magnetization related:
   ORBITALMAG=     F  switch on orbital magnetization
   LCHIMAG   =     F  perturbation theory with respect to B field
   DQ        =  0.001000  dq finite difference perturbation B field
   LLRAUG    =     F  two centre corrections for induced B field



--------------------------------------------------------------------------------------------------------


 Static calculation
 charge density and potential remain constant during run
 non-spin polarized calculation
 RMM-DIIS sequential band-by-band and
  variant of blocked Davidson during initial phase
 perform sub-space diagonalisation
    before iterative eigenvector-optimisation
 no mixing
 using additional bands           51
 real space projection scheme for non local part
 use partial core corrections
 calculate Harris-corrections to forces 
   (improved forces if not selfconsistent)
 use gradient corrections 
 WARNING: stress and forces are not correct
  (second derivative of E(xc) not defined)
 use of overlap-Matrix (Vanderbilt PP)
 Fermi weights with tetrahedron method with Bloechl corrections


--------------------------------------------------------------------------------------------------------


  energy-cutoff  :      500.00
  volume of cell :     1779.08
      direct lattice vectors                 reciprocal lattice vectors
     8.791366577  0.000000000  0.000000000     0.113747958 -0.065672414  0.000000000
     4.395683289  7.613546790  0.000000000     0.000000000  0.131344829  0.000000000
     0.000000000  0.000000000 26.579777397     0.000000000  0.000000000  0.037622587

  length of vectors
     8.791366577  8.791366577 26.579777397     0.131344829  0.131344829  0.037622587


 
 k-points in units of 2pi/SCALE and weight: Automatic mesh                          
   0.00000000  0.00000000  0.00000000       0.016
   0.01421849 -0.00820905  0.00000000       0.094
   0.02843699 -0.01641810  0.00000000       0.094
   0.04265548 -0.02462716  0.00000000       0.094
   0.05687398 -0.03283621  0.00000000       0.047
   0.02843699 -0.00000000  0.00000000       0.094
   0.04265548 -0.00820905  0.00000000       0.188
   0.05687398 -0.01641810  0.00000000       0.188
   0.05687398 -0.00000000  0.00000000       0.094
  -0.04265548  0.05746336  0.00000000       0.094
 
 k-points in reciprocal lattice and weights: Automatic mesh                          
   0.00000000  0.00000000  0.00000000       0.016
   0.12500000 -0.00000000  0.00000000       0.094
   0.25000000 -0.00000000  0.00000000       0.094
   0.37500000 -0.00000000  0.00000000       0.094
   0.50000000 -0.00000000  0.00000000       0.047
   0.25000000  0.12500000  0.00000000       0.094
   0.37500000  0.12500000  0.00000000       0.188
   0.50000000  0.12500000  0.00000000       0.188
   0.50000000  0.25000000  0.00000000       0.094
  -0.37500000  0.25000000  0.00000000       0.094
 
 position of ions in fractional coordinates (direct lattice) 
   0.00000000  0.00000000  0.19872959
   0.33333331  0.00000000  0.19872959
   0.66666663  0.00000000  0.19872959
   0.00000000  0.33333334  0.19872959
   0.33333331  0.33333334  0.19872959
   0.66666669  0.33333334  0.19872959
   0.00000000  0.66666669  0.19872959
   0.33333331  0.66666669  0.19872959
   0.66666663  0.66666669  0.19872959
   0.11111110  0.11111111  0.28874942
   0.44444445  0.11111111  0.28874942
   0.77777779  0.11111111  0.28874942
   0.11111110  0.44444445  0.28874942
   0.44444442  0.44444445  0.28874942
   0.77777779  0.44444445  0.28874942
   0.11111110  0.77777779  0.28874942
   0.44444445  0.77777779  0.28874942
   0.77777779  0.77777779  0.28874942
   0.88876779  0.22246443  0.37842338
   0.22289072  0.22289073  0.37769639
   0.55421851  0.22289073  0.37769639
   0.88847313  0.55576347  0.37826499
   0.22289073  0.55421857  0.37769639
   0.55576347  0.55576347  0.37826499
   0.88876779  0.88876779  0.37842338
   0.22246440  0.88876779  0.37842338
   0.55576341  0.88847313  0.37826499
   0.00000000  0.00000000  0.46751434
   0.33337477  0.00716980  0.46826558
   0.65945538  0.00716980  0.46826558
   0.00716980  0.33337480  0.46826558
   0.65945544  0.33337480  0.46826558
   0.00716980  0.65945544  0.46826558
   0.33337477  0.65945544  0.46826558
   0.66666663  0.66666669  0.46761340
   0.33333331  0.33333334  0.45850240
   0.33333331  0.33333334  0.52296292
   0.33333331  0.33333334  0.57095606
   0.33333331  0.33333334  0.60691129
 
 position of ions in cartesian coordinates  (Angst):
   0.00000000  0.00000000  5.28218814
   2.93045535  0.00000000  5.28218814
   5.86091070  0.00000000  5.28218814
   1.46522781  2.53784900  5.28218814
   4.39568315  2.53784900  5.28218814
   7.32613904  2.53784900  5.28218814
   2.93045562  5.07569801  5.28218814
   5.86091096  5.07569801  5.28218814
   8.79136632  5.07569801  5.28218814
   1.46522770  0.84594965  7.67489535
   4.39568332  0.84594965  7.67489535
   7.32613893  0.84594965  7.67489535
   2.93045542  3.38379860  7.67489535
   5.86091083  3.38379860  7.67489535
   8.79136671  3.38379860  7.67489535
   4.39568328  5.92164760  7.67489535
   7.32613890  5.92164760  7.67489535
  10.25659451  5.92164760  7.67489535
   8.79136665  1.69374335 10.05840929
   2.93927105  1.69698901 10.03908597
   5.85209513  1.69698901 10.03908597
  10.25385314  4.23133116 10.05419916
   4.39568342  4.21956900 10.03908597
   7.32888055  4.23133116 10.05419916
  11.72022521  6.76667518 10.05840929
   5.86250783  6.76667518 10.05840929
   8.79136631  6.76443172 10.05419916
   0.00000000  0.00000000 12.42642706
   2.96233593  0.05458759 12.44639484
   5.82903012  0.05458759 12.44639484
   1.52844234  2.53816460 12.44639484
   7.26292450  2.53816460 12.44639484
   2.96178957  5.02079482 12.44639484
   5.82957701  5.02079482 12.44639484
   8.79136632  5.07569801 12.42906015
   4.39568315  2.53784900 12.18689171
   4.39568315  2.53784900 13.90023799
   4.39568315  2.53784900 15.17588488
   4.39568315  2.53784900 16.13156701
 


--------------------------------------------------------------------------------------------------------


 k-point   1 :   0.0000 0.0000 0.0000  plane waves:   44983
 k-point   2 :   0.1250-0.0000 0.0000  plane waves:   45042
 k-point   3 :   0.2500-0.0000 0.0000  plane waves:   45130
 k-point   4 :   0.3750-0.0000 0.0000  plane waves:   45154
 k-point   5 :   0.5000-0.0000 0.0000  plane waves:   45200
 k-point   6 :   0.2500 0.1250 0.0000  plane waves:   45136
 k-point   7 :   0.3750 0.1250 0.0000  plane waves:   45202
 k-point   8 :   0.5000 0.1250 0.0000  plane waves:   45204
 k-point   9 :   0.5000 0.2500 0.0000  plane waves:   45196
 k-point  10 :  -0.3750 0.2500 0.0000  plane waves:   45180

 maximum and minimum number of plane-waves per node :     45204    44983

 maximum number of plane-waves:     45204
 maximum index in each direction: 
   IXMAX=   16   IYMAX=   16   IZMAX=   48
   IXMIN=  -16   IYMIN=  -16   IZMIN=  -48


 serial   3D FFT for wavefunctions
 parallel 3D FFT for charge:
    minimum data exchange during FFTs selected (reduces bandwidth)


 total amount of memory used by VASP MPI-rank0   139952. kBytes
=======================================================================

   base      :      30000. kBytes
   nonlr-proj:      14986. kBytes
   fftplans  :       5150. kBytes
   grid      :      23126. kBytes
   one-center:        606. kBytes
   wavefun   :      66084. kBytes
 
     INWAV:  cpu time    0.0000: real time    0.0000
 initial charge density was supplied:
 number of electron     402.0000395 magnetization 
 keeping initial charge density in first step


--------------------------------------------------------------------------------------------------------


 Maximum index for non-local projection operator         2331
 Maximum index for augmentation-charges          704 (set IRDMAX)


--------------------------------------------------------------------------------------------------------


 First call to EWALD:  gamma=   0.146
 Maximum number of real-space cells 4x 4x 2
 Maximum number of reciprocal cells 2x 2x 5

    FEWALD:  cpu time    0.0013: real time    0.0014


--------------------------------------- Iteration      1(   1)  ---------------------------------------


    POTLOK:  cpu time    0.0526: real time    0.0530
    SETDIJ:  cpu time    0.0048: real time    0.0048
     EDDAV:  cpu time    8.4439: real time    8.4455
 BZINTS: Fermi energy:    9.148972;  402.000000 electrons
         Band energy: 0.102718E+04;  BLOECHL correction:   -0.020768
       DOS:  cpu time    0.0104: real time    0.0105
    --------------------------------------------
      LOOP:  cpu time    8.5117: real time    8.5138

 eigenvalue-minimisations  :  5040
 total energy-change (2. order) : 0.2456110E+04  (-0.1780999E+05)
 number of electron     402.0000395 magnetization 
 augmentation part      402.0000395 magnetization 

 Free energy of the ion-electron system (eV)
  ---------------------------------------------------
  alpha Z        PSCENC =       637.52323594
  Ewald energy   TEWEN  =    162863.59037140
  -Hartree energ DENC   =   -200433.12892808
  -exchange      EXHF   =         0.00000000
  -V(xc)+E(xc)   XCENC  =      -364.78942022
  PAW double counting   =     39531.22999088   -37978.54726478
  entropy T*S    EENTRO =         0.00000000
  eigenvalues    EBANDS =      1027.17503296
  atomic energy  EATOM  =     37173.05680404
  Solvation  Ediel_sol  =         0.00000000
  ---------------------------------------------------
  free energy    TOTEN  =      2456.10982214 eV

  energy without entropy =     2456.10982214  energy(sigma->0) =     2456.10982214


--------------------------------------------------------------------------------------------------------




--------------------------------------- Iteration      1(   2)  ---------------------------------------


     EDDAV:  cpu time    8.6824: real time    8.6829
 BZINTS: Fermi energy:    1.114892;  402.000000 electrons
         Band energy:-0.142322E+04;  BLOECHL correction:   -0.032963
       DOS:  cpu time    0.0101: real time    0.0101
    --------------------------------------------
      LOOP:  cpu time    8.6925: real time    8.6930

 eigenvalue-minimisations  :  5236
 total energy-change (2. order) :-0.2450395E+04  (-0.2315145E+04)
 number of electron     402.0000395 magnetization 
 augmentation part      402.0000395 magnetization 

 Free energy of the ion-electron system (eV)
  ---------------------------------------------------
  alpha Z        PSCENC =       637.52323594
  Ewald energy   TEWEN  =    162863.59037140
  -Hartree energ DENC   =   -200433.12892808
  -exchange      EXHF   =         0.00000000
  -V(xc)+E(xc)   XCENC  =      -364.78942022
  PAW double counting   =     39531.22999088   -37978.54726478
  entropy T*S    EENTRO =         0.00000000
  eigenvalues    EBANDS =     -1423.21946727
  atomic energy  EATOM  =     37173.05680404
  Solvation  Ediel_sol  =         0.00000000
  ---------------------------------------------------
  free energy    TOTEN  =         5.71532190 eV

  energy without entropy =        5.71532190  energy(sigma->0) =        5.71532190


--------------------------------------------------------------------------------------------------------




--------------------------------------- Iteration      1(   3)  ---------------------------------------


     EDDAV:  cpu time    9.7807: real time    9.7812
 BZINTS: Fermi energy:    0.420291;  402.000000 electrons
         Band energy:-0.154008E+04;  BLOECHL correction:   -0.021818
       DOS:  cpu time    0.0103: real time    0.0103
    --------------------------------------------
      LOOP:  cpu time    9.7910: real time    9.7915

 eigenvalue-minimisations  :  6048
 total energy-change (2. order) :-0.1168633E+03  (-0.1140151E+03)
 number of electron     402.0000395 magnetization 
 augmentation part      402.0000395 magnetization 

 Free energy of the ion-electron system (eV)
  ---------------------------------------------------
  alpha Z        PSCENC =       637.52323594
  Ewald energy   TEWEN  =    162863.59037140
  -Hartree energ DENC   =   -200433.12892808
  -exchange      EXHF   =         0.00000000
  -V(xc)+E(xc)   XCENC  =      -364.78942022
  PAW double counting   =     39531.22999088   -37978.54726478
  entropy T*S    EENTRO =         0.00000000
  eigenvalues    EBANDS =     -1540.08277369
  atomic energy  EATOM  =     37173.05680404
  Solvation  Ediel_sol  =         0.00000000
  ---------------------------------------------------
  free energy    TOTEN  =      -111.14798452 eV

  energy without entropy =     -111.14798452  energy(sigma->0) =     -111.14798452


--------------------------------------------------------------------------------------------------------




--------------------------------------- Iteration      1(   4)  ---------------------------------------


     EDDAV:  cpu time    9.2802: real time    9.2805
 BZINTS: Fermi energy:    0.403382;  402.000000 electrons
         Band energy:-0.154285E+04;  BLOECHL correction:   -0.023472
       DOS:  cpu time    0.0100: real time    0.0100
    --------------------------------------------
      LOOP:  cpu time    9.2902: real time    9.2905

 eigenvalue-minimisations  :  5684
 total energy-change (2. order) :-0.2771289E+01  (-0.2748289E+01)
 number of electron     402.0000395 magnetization 
 augmentation part      402.0000395 magnetization 

 Free energy of the ion-electron system (eV)
  ---------------------------------------------------
  alpha Z        PSCENC =       637.52323594
  Ewald energy   TEWEN  =    162863.59037140
  -Hartree energ DENC   =   -200433.12892808
  -exchange      EXHF   =         0.00000000
  -V(xc)+E(xc)   XCENC  =      -364.78942022
  PAW double counting   =     39531.22999088   -37978.54726478
  entropy T*S    EENTRO =         0.00000000
  eigenvalues    EBANDS =     -1542.85406255
  atomic energy  EATOM  =     37173.05680404
  Solvation  Ediel_sol  =         0.00000000
  ---------------------------------------------------
  free energy    TOTEN  =      -113.91927337 eV

  energy without entropy =     -113.91927337  energy(sigma->0) =     -113.91927337


--------------------------------------------------------------------------------------------------------




--------------------------------------- Iteration      1(   5)  ---------------------------------------


     EDDAV:  cpu time    9.5114: real time    9.5119
 BZINTS: Fermi energy:    0.403196;  402.000000 electrons
         Band energy:-0.154292E+04;  BLOECHL correction:   -0.023475
       DOS:  cpu time    0.0104: real time    0.0104
    --------------------------------------------
      LOOP:  cpu time    9.5219: real time    9.5223

 eigenvalue-minimisations  :  5852
 total energy-change (2. order) :-0.6996395E-01  (-0.6994684E-01)
 number of electron     402.0000395 magnetization 
 augmentation part      402.0000395 magnetization 

 Free energy of the ion-electron system (eV)
  ---------------------------------------------------
  alpha Z        PSCENC =       637.52323594
  Ewald energy   TEWEN  =    162863.59037140
  -Hartree energ DENC   =   -200433.12892808
  -exchange      EXHF   =         0.00000000
  -V(xc)+E(xc)   XCENC  =      -364.78942022
  PAW double counting   =     39531.22999088   -37978.54726478
  entropy T*S    EENTRO =         0.00000000
  eigenvalues    EBANDS =     -1542.92402649
  atomic energy  EATOM  =     37173.05680404
  Solvation  Ediel_sol  =         0.00000000
  ---------------------------------------------------
  free energy    TOTEN  =      -113.98923732 eV

  energy without entropy =     -113.98923732  energy(sigma->0) =     -113.98923732


--------------------------------------------------------------------------------------------------------




--------------------------------------- Iteration      1(   6)  ---------------------------------------


    EDDIAG:  cpu time    1.6516: real time    1.6553
  RMM-DIIS:  cpu time    4.8731: real time    4.8733
    ORTHCH:  cpu time    0.3001: real time    0.3002
 BZINTS: Fermi energy:    0.403195;  402.000000 electrons
         Band energy:-0.154293E+04;  BLOECHL correction:   -0.023475
       DOS:  cpu time    0.0104: real time    0.0104
    --------------------------------------------
      LOOP:  cpu time    6.8352: real time    6.8391

 eigenvalue-minimisations  :  5193
 total energy-change (2. order) :-0.2488409E-02  (-0.2488387E-02)
 number of electron     402.0000395 magnetization 
 augmentation part      402.0000395 magnetization 

 Free energy of the ion-electron system (eV)
  ---------------------------------------------------
  alpha Z        PSCENC =       637.52323594
  Ewald energy   TEWEN  =    162863.59037140
  -Hartree energ DENC   =   -200433.12892808
  -exchange      EXHF   =         0.00000000
  -V(xc)+E(xc)   XCENC  =      -364.78942022
  PAW double counting   =     39531.22999088   -37978.54726478
  entropy T*S    EENTRO =         0.00000000
  eigenvalues    EBANDS =     -1542.92651490
  atomic energy  EATOM  =     37173.05680404
  Solvation  Ediel_sol  =         0.00000000
  ---------------------------------------------------
  free energy    TOTEN  =      -113.99172573 eV

  energy without entropy =     -113.99172573  energy(sigma->0) =     -113.99172573


--------------------------------------------------------------------------------------------------------




--------------------------------------- Iteration      1(   7)  ---------------------------------------


    EDDIAG:  cpu time    1.6544: real time    1.6544
  RMM-DIIS:  cpu time    7.2355: real time    7.2358
    ORTHCH:  cpu time    0.3006: real time    0.3005
 BZINTS: Fermi energy:    0.403194;  402.000000 electrons
         Band energy:-0.154293E+04;  BLOECHL correction:   -0.023475
       DOS:  cpu time    0.0102: real time    0.0102
    --------------------------------------------
      LOOP:  cpu time    9.2007: real time    9.2010

 eigenvalue-minimisations  :  7677
 total energy-change (2. order) :-0.1157740E-02  (-0.1127145E-02)
 number of electron     402.0000395 magnetization 
 augmentation part      402.0000395 magnetization 

 Free energy of the ion-electron system (eV)
  ---------------------------------------------------
  alpha Z        PSCENC =       637.52323594
  Ewald energy   TEWEN  =    162863.59037140
  -Hartree energ DENC   =   -200433.12892808
  -exchange      EXHF   =         0.00000000
  -V(xc)+E(xc)   XCENC  =      -364.78942022
  PAW double counting   =     39531.22999088   -37978.54726478
  entropy T*S    EENTRO =         0.00000000
  eigenvalues    EBANDS =     -1542.92767264
  atomic energy  EATOM  =     37173.05680404
  Solvation  Ediel_sol  =         0.00000000
  ---------------------------------------------------
  free energy    TOTEN  =      -113.99288347 eV

  energy without entropy =     -113.99288347  energy(sigma->0) =     -113.99288347


--------------------------------------------------------------------------------------------------------




--------------------------------------- Iteration      1(   8)  ---------------------------------------


    EDDIAG:  cpu time    1.6529: real time    1.6530
  RMM-DIIS:  cpu time    6.8293: real time    6.8295
    ORTHCH:  cpu time    0.3003: real time    0.3004
 BZINTS: Fermi energy:    0.403194;  402.000000 electrons
         Band energy:-0.154293E+04;  BLOECHL correction:   -0.023475
       DOS:  cpu time    0.0104: real time    0.0104
    --------------------------------------------
      LOOP:  cpu time    8.7929: real time    8.7933

 eigenvalue-minimisations  :  7229
 total energy-change (2. order) :-0.1018925E-03  (-0.1080584E-03)
 number of electron     402.0000395 magnetization 
 augmentation part      402.0000395 magnetization 

 Free energy of the ion-electron system (eV)
  ---------------------------------------------------
  alpha Z        PSCENC =       637.52323594
  Ewald energy   TEWEN  =    162863.59037140
  -Hartree energ DENC   =   -200433.12892808
  -exchange      EXHF   =         0.00000000
  -V(xc)+E(xc)   XCENC  =      -364.78942022
  PAW double counting   =     39531.22999088   -37978.54726478
  entropy T*S    EENTRO =         0.00000000
  eigenvalues    EBANDS =     -1542.92777453
  atomic energy  EATOM  =     37173.05680404
  Solvation  Ediel_sol  =         0.00000000
  ---------------------------------------------------
  free energy    TOTEN  =      -113.99298536 eV

  energy without entropy =     -113.99298536  energy(sigma->0) =     -113.99298536


--------------------------------------------------------------------------------------------------------




--------------------------------------- Iteration      1(   9)  ---------------------------------------


    EDDIAG:  cpu time    1.6527: real time    1.6528
  RMM-DIIS:  cpu time    5.8031: real time    5.8033
    ORTHCH:  cpu time    0.3007: real time    0.3007
 BZINTS: Fermi energy:    0.403194;  402.000000 electrons
         Band energy:-0.154293E+04;  BLOECHL correction:   -0.023475
       DOS:  cpu time    0.0102: real time    0.0102
    --------------------------------------------
      LOOP:  cpu time    7.7665: real time    7.7669

 eigenvalue-minimisations  :  5576
 total energy-change (2. order) :-0.2487248E-04  (-0.2525558E-04)
 number of electron     402.0000395 magnetization 
 augmentation part      402.0000395 magnetization 

 Free energy of the ion-electron system (eV)
  ---------------------------------------------------
  alpha Z        PSCENC =       637.52323594
  Ewald energy   TEWEN  =    162863.59037140
  -Hartree energ DENC   =   -200433.12892808
  -exchange      EXHF   =         0.00000000
  -V(xc)+E(xc)   XCENC  =      -364.78942022
  PAW double counting   =     39531.22999088   -37978.54726478
  entropy T*S    EENTRO =         0.00000000
  eigenvalues    EBANDS =     -1542.92779941
  atomic energy  EATOM  =     37173.05680404
  Solvation  Ediel_sol  =         0.00000000
  ---------------------------------------------------
  free energy    TOTEN  =      -113.99301023 eV

  energy without entropy =     -113.99301023  energy(sigma->0) =     -113.99301023


--------------------------------------------------------------------------------------------------------




--------------------------------------- Iteration      1(  10)  ---------------------------------------


    EDDIAG:  cpu time    1.6515: real time    1.6517
  RMM-DIIS:  cpu time    3.9766: real time    3.9768
    ORTHCH:  cpu time    0.3004: real time    0.3003
 BZINTS: Fermi energy:    0.403194;  402.000000 electrons
         Band energy:-0.154293E+04;  BLOECHL correction:   -0.023475
       DOS:  cpu time    0.0099: real time    0.0099
    --------------------------------------------
      LOOP:  cpu time    5.9384: real time    5.9387

 eigenvalue-minimisations  :  3527
 total energy-change (2. order) :-0.2545945E-05  (-0.2812222E-05)
 number of electron     402.0000395 magnetization 
 augmentation part      402.0000395 magnetization 

 Free energy of the ion-electron system (eV)
  ---------------------------------------------------
  alpha Z        PSCENC =       637.52323594
  Ewald energy   TEWEN  =    162863.59037140
  -Hartree energ DENC   =   -200433.12892808
  -exchange      EXHF   =         0.00000000
  -V(xc)+E(xc)   XCENC  =      -364.78942022
  PAW double counting   =     39531.22999088   -37978.54726478
  entropy T*S    EENTRO =         0.00000000
  eigenvalues    EBANDS =     -1542.92780195
  atomic energy  EATOM  =     37173.05680404
  Solvation  Ediel_sol  =         0.00000000
  ---------------------------------------------------
  free energy    TOTEN  =      -113.99301278 eV

  energy without entropy =     -113.99301278  energy(sigma->0) =     -113.99301278


--------------------------------------------------------------------------------------------------------




 average (electrostatic) potential at core
  the test charge radii are     1.1249  1.1394  0.6991  0.7215  0.5201
  (the norm of the test charge is              1.0000)
       1 -78.5132       2 -78.4830       3 -78.4829       4 -78.4830       5 -78.4674
       6 -78.4828       7 -78.4829       8 -78.4827       9 -78.5071      10 -78.7269
      11 -78.6943      12 -78.7268      13 -78.6943      14 -78.6942      15 -78.7108
      16 -78.7267      17 -78.7108      18 -78.7108      19 -78.6997      20 -78.8287
      21 -78.8287      22 -78.6955      23 -78.8287      24 -78.6957      25 -78.6995
      26 -78.6997      27 -78.6955      28 -78.4812      29 -78.4541      30 -78.4540
      31 -78.4541      32 -78.4540      33 -78.4540      34 -78.4540      35 -78.4564
      36 -48.3504      37 -56.2744      38 -78.4324      39 -43.0382
 
 
 
 E-fermi :   0.4032     XC(G=0):  -5.0654     alpha+bet : -4.7361

 Fermi energy:         0.4031940987

 k-point     1 :       0.0000    0.0000    0.0000
  band No.  band energies     occupation 
      1     -23.4415      2.00000
      2     -14.2089      2.00000
      3      -6.9339      2.00000
      4      -6.5530      2.00000
      5      -6.2787      2.00000
      6      -6.2785      2.00000
      7      -5.8085      2.00000
      8      -5.5426      2.00000
      9      -5.4495      2.00000
     10      -5.4419      2.00000
     11      -5.4419      2.00000
     12      -5.4362      2.00000
     13      -5.4359      2.00000
     14      -5.4359      2.00000
     15      -5.4176      2.00000
     16      -5.3990      2.00000
     17      -5.3990      2.00000
     18      -5.3936      2.00000
     19      -5.3828      2.00000
     20      -5.3828      2.00000
     21      -5.3000      2.00000
     22      -5.2355      2.00000
     23      -5.2331      2.00000
     24      -5.2331      2.00000
     25      -5.2272      2.00000
     26      -5.2183      2.00000
     27      -5.2182      2.00000
     28      -5.0398      2.00000
     29      -5.0361      2.00000
     30      -5.0361      2.00000
     31      -5.0172      2.00000
     32      -5.0113      2.00000
     33      -5.0032      2.00000
     34      -5.0023      2.00000
     35      -5.0023      2.00000
     36      -4.9837      2.00000
     37      -4.9837      2.00000
     38      -4.9749      2.00000
     39      -4.9748      2.00000
     40      -4.8804      2.00000
     41      -4.8698      2.00000
     42      -4.8698      2.00000
     43      -4.7648      2.00000
     44      -4.7353      2.00000
     45      -4.7353      2.00000
     46      -4.6551      2.00000
     47      -4.6551      2.00000
     48      -4.6399      2.00000
     49      -4.6390      2.00000
     50      -4.6390      2.00000
     51      -4.6205      2.00000
     52      -4.6204      2.00000
     53      -4.5974      2.00000
     54      -4.5847      2.00000
     55      -4.5846      2.00000
     56      -4.4891      2.00000
     57      -4.4847      2.00000
     58      -4.4658      2.00000
     59      -4.4574      2.00000
     60      -4.2599      2.00000
     61      -4.2553      2.00000
     62      -4.2553      2.00000
     63      -4.2480      2.00000
     64      -4.2480      2.00000
     65      -4.2443      2.00000
     66      -4.2203      2.00000
     67      -4.2203      2.00000
     68      -4.2073      2.00000
     69      -4.1912      2.00000
     70      -4.1912      2.00000
     71      -4.1009      2.00000
     72      -4.1009      2.00000
     73      -4.0812      2.00000
     74      -4.0812      2.00000
     75      -4.0783      2.00000
     76      -4.0762      2.00000
     77      -4.0658      2.00000
     78      -4.0658      2.00000
     79      -4.0477      2.00000
     80      -4.0477      2.00000
     81      -4.0371      2.00000
     82      -4.0075      2.00000
     83      -4.0033      2.00000
     84      -4.0033      2.00000
     85      -3.9996      2.00000
     86      -3.9996      2.00000
     87      -3.9908      2.00000
     88      -3.9370      2.00000
     89      -3.9370      2.00000
     90      -3.8666      2.00000
     91      -3.8666      2.00000
     92      -3.8655      2.00000
     93      -3.8422      2.00000
     94      -3.8422      2.00000
     95      -3.8159      2.00000
     96      -3.8159      2.00000
     97      -3.7915      2.00000
     98      -3.7915      2.00000
     99      -3.7715      2.00000
    100      -3.7648      2.00000
    101      -3.7648      2.00000
[...]
  0.000   0.000   0.000   0.000   0.000   0.000   0.000   0.000   0.000   0.000   1.000   0.000   0.000   0.000   0.000   0.000
  0.000   0.000   0.000   0.000   0.000   0.000   0.000   0.000   0.000   0.000   0.000   0.000   0.000   0.000   0.000   0.000
  0.000   0.000   0.000   0.000   0.000   0.000   0.000   0.000   0.000   0.000   0.000   0.000   0.000   0.000   0.000   0.000
  0.000   0.000   0.000   0.000   0.000   0.000   0.000   0.000   0.000   0.000   0.000   0.000   0.000   0.000   0.000   0.000
  0.000   0.000   0.000   0.000   0.000   0.000   0.000   0.000   0.000   0.000   0.000   0.000   0.000   0.000   0.000   0.000
  0.000   0.000   0.000   0.000   0.000   0.000   0.000   0.000   0.000   0.000   0.000   0.000   0.000   0.000   0.000   0.000
  0.000   0.000   0.000   0.000   0.000   0.000   0.000   0.000   0.000   0.000   0.000   0.000   0.000   0.000   0.000   0.000
  0.000   0.000   0.000   0.000   0.000   0.000   0.000   0.000   0.000   0.000   0.000   0.000   0.000   0.000   0.000   0.000


------------------------ aborting loop because EDIFF is reached ----------------------------------------





 total charge

# of ion       s       p       d       tot
------------------------------------------
    1        0.419   0.203   9.179   9.801
    2        0.419   0.204   9.177   9.800
    3        0.419   0.204   9.177   9.800
    4        0.419   0.204   9.177   9.800
    5        0.418   0.204   9.175   9.797
    6        0.419   0.204   9.177   9.800
    7        0.419   0.204   9.177   9.800
    8        0.419   0.204   9.177   9.800
    9        0.416   0.203   9.179   9.797
   10        0.408   0.270   9.165   9.842
   11        0.409   0.268   9.168   9.845
   12        0.408   0.270   9.165   9.842
   13        0.409   0.268   9.168   9.845
   14        0.409   0.268   9.168   9.845
   15        0.403   0.271   9.165   9.839
   16        0.408   0.270   9.165   9.842
   17        0.403   0.271   9.165   9.839
   18        0.403   0.271   9.165   9.839
   19        0.401   0.265   9.166   9.833
   20        0.432   0.293   9.144   9.869
   21        0.432   0.293   9.144   9.869
   22        0.396   0.275   9.164   9.835
   23        0.432   0.293   9.144   9.869
   24        0.396   0.275   9.164   9.835
   25        0.401   0.265   9.166   9.833
   26        0.401   0.265   9.166   9.833
   27        0.396   0.275   9.164   9.835
   28        0.416   0.197   9.178   9.791
   29        0.420   0.212   9.168   9.799
   30        0.420   0.212   9.168   9.799
   31        0.420   0.212   9.168   9.799
   32        0.420   0.212   9.168   9.799
   33        0.420   0.212   9.168   9.799
   34        0.420   0.212   9.168   9.799
   35        0.413   0.200   9.176   9.789
   36        0.449   0.555   4.481   5.484
   37        0.927   1.438   0.000   2.364
   38        1.520   3.761   0.000   5.281
   39        0.568   0.138   0.000   0.706
--------------------------------------------------
tot         17.921  14.325 325.351 357.598
 
    CHARGE:  cpu time    0.4341: real time    0.4343
    FORLOC:  cpu time    0.0141: real time    0.0141
    FORNL :  cpu time    1.7447: real time    1.7450
    STRESS:  cpu time    5.2325: real time    5.2328
    FORCOR:  cpu time    0.0572: real time    0.0573
    FORHAR:  cpu time    0.0225: real time    0.0226
    OFIELD:  cpu time    0.0003: real time    0.0003

  FORCE on cell =-STRESS in cart. coord.  units (eV):
  Direction    XX          YY          ZZ          XY          YZ          ZX
  --------------------------------------------------------------------------------------
  Alpha Z   637.52324   637.52324   637.52324
  Ewald  185272.45948185272.45949************     0.00003    -0.00001     0.00005
  Hartree195365.43479195365.43480************     0.00001    -0.00000     0.00002
  E(xc)   -2102.56467 -2102.56483 -2107.81853     0.00013    -0.00001    -0.00002
  Local  ************************391537.74316     0.00063    -0.00007    -0.00020
  n-local  -364.26414  -346.99259  -358.98906    10.06009    -0.49860     0.61228
  augment  3255.04266  3255.04287  3262.85578    -0.00018    -0.00003    -0.00004
  Kinetic  5030.52429  5034.45608  4999.60258     4.10247     0.83454    -0.19939
  Fock        0.00000     0.00000     0.00000     0.00000     0.00000     0.00000
  -------------------------------------------------------------------------------------
  Total      -9.72122    -9.72122    -0.57580    -0.00000     0.00000    -0.00000
  in kB      -8.75460    -8.75460    -0.51855    -0.00000     0.00000    -0.00000
  external pressure =       -6.01 kB  Pullay stress =        0.00 kB


 VOLUME and BASIS-vectors are now :
 -----------------------------------------------------------------------------
  energy-cutoff  :      500.00
  volume of cell :     1779.08
      direct lattice vectors                 reciprocal lattice vectors
     8.791366577  0.000000000  0.000000000     0.113747958 -0.065672414  0.000000000
     4.395683289  7.613546790  0.000000000     0.000000000  0.131344829  0.000000000
     0.000000000  0.000000000 26.579777397     0.000000000  0.000000000  0.037622587

  length of vectors
     8.791366577  8.791366577 26.579777397     0.131344829  0.131344829  0.037622587


 FORCES acting on ions
    electron-ion (+dipol)            ewald-force                    non-local-force                 convergence-correction
 -----------------------------------------------------------------------------------------------
   0.456E-04 -.284E-04 0.283E+04   -.954E-04 0.593E-04 -.283E+04   -.313E-17 0.457E-17 -.206E+01   -.120E-03 -.176E-03 -.618E-01
   -.757E-02 0.320E+00 0.283E+04   -.254E+00 -.238E+00 -.283E+04   0.758E-01 0.364E-01 -.154E+01   0.185E+00 -.970E-01 0.216E-01
   0.767E-02 0.320E+00 0.283E+04   0.254E+00 -.238E+00 -.283E+04   -.758E-01 0.364E-01 -.154E+01   -.186E+00 -.952E-01 0.223E-01
   0.274E+00 -.167E+00 0.283E+04   -.333E+00 -.101E+00 -.283E+04   0.694E-01 0.475E-01 -.154E+01   0.875E-02 0.209E+00 0.216E-01
   -.402E-05 -.177E-04 0.283E+04   0.981E-04 -.200E-05 -.283E+04   -.262E-17 -.429E-18 -.127E+01   0.616E-02 0.377E-02 0.163E+00
   -.274E+00 -.167E+00 0.283E+04   0.333E+00 -.101E+00 -.283E+04   -.694E-01 0.475E-01 -.154E+01   -.101E-01 0.210E+00 0.223E-01
   0.281E+00 -.154E+00 0.283E+04   -.795E-01 0.339E+00 -.283E+04   -.638E-02 -.839E-01 -.154E+01   -.175E+00 -.113E+00 0.223E-01
   -.281E+00 -.154E+00 0.283E+04   0.794E-01 0.339E+00 -.283E+04   0.638E-02 -.839E-01 -.154E+01   0.176E+00 -.114E+00 0.223E-01
   0.370E-04 -.126E-04 0.283E+04   0.792E-04 -.643E-04 -.283E+04   0.186E-17 -.827E-18 -.192E+01   -.657E-02 -.338E-02 -.644E-01
   0.241E+01 0.139E+01 0.973E+03   -.225E+01 -.130E+01 -.974E+03   -.323E+00 -.187E+00 -.744E+00   0.164E+00 0.948E-01 0.101E+01
   -.292E-04 0.252E+01 0.977E+03   0.412E-04 -.288E+01 -.978E+03   0.110E-11 0.168E+00 -.438E+00   0.638E-02 0.151E+00 0.965E+00
   -.241E+01 0.139E+01 0.973E+03   0.225E+01 -.130E+01 -.974E+03   0.323E+00 -.187E+00 -.744E+00   -.166E+00 0.951E-01 0.101E+01
   0.219E+01 -.126E+01 0.977E+03   -.250E+01 0.144E+01 -.978E+03   0.145E+00 -.838E-01 -.438E+00   0.133E+00 -.697E-01 0.965E+00
   -.219E+01 -.126E+01 0.977E+03   0.250E+01 0.144E+01 -.978E+03   -.145E+00 -.838E-01 -.438E+00   -.123E+00 -.710E-01 0.963E+00
   0.154E-04 0.743E+00 0.974E+03   -.108E-03 -.866E+00 -.975E+03   0.406E-12 0.618E-01 -.773E+00   -.117E-02 0.511E-01 0.919E+00
   -.727E-05 -.278E+01 0.973E+03   0.207E-04 0.260E+01 -.974E+03   0.245E-11 0.374E+00 -.744E+00   -.454E-03 -.191E+00 0.101E+01
   0.644E+00 -.372E+00 0.974E+03   -.750E+00 0.433E+00 -.975E+03   0.536E-01 -.309E-01 -.773E+00   0.436E-01 -.266E-01 0.919E+00
   -.644E+00 -.372E+00 0.974E+03   0.750E+00 0.433E+00 -.975E+03   -.536E-01 -.309E-01 -.773E+00   -.431E-01 -.249E-01 0.921E+00
   0.395E-04 -.126E+01 -.908E+03   -.127E-03 0.990E+00 0.906E+03   0.694E-12 0.106E+00 0.813E+00   0.942E-03 0.167E+00 0.119E+01
   0.792E+00 0.457E+00 -.894E+03   -.253E+00 -.146E+00 0.894E+03   -.107E+01 -.616E+00 -.871E+00   0.426E+00 0.246E+00 0.166E+01
   -.792E+00 0.457E+00 -.894E+03   0.254E+00 -.146E+00 0.894E+03   0.107E+01 -.616E+00 -.871E+00   -.437E+00 0.244E+00 0.166E+01
   -.162E+00 0.936E-01 -.900E+03   -.303E+00 0.175E+00 0.898E+03   0.245E+00 -.141E+00 0.506E+00   0.250E+00 -.137E+00 0.116E+01
   -.553E-04 -.915E+00 -.894E+03   0.409E-04 0.292E+00 0.894E+03   0.809E-11 0.123E+01 -.871E+00   -.688E-02 -.499E+00 0.166E+01
   0.162E+00 0.937E-01 -.900E+03   0.303E+00 0.175E+00 0.898E+03   -.245E+00 -.141E+00 0.506E+00   -.238E+00 -.137E+00 0.116E+01
   0.109E+01 0.630E+00 -.908E+03   -.858E+00 -.495E+00 0.906E+03   -.915E-01 -.528E-01 0.813E+00   -.146E+00 -.847E-01 0.119E+01
   -.109E+01 0.630E+00 -.908E+03   0.857E+00 -.495E+00 0.906E+03   0.915E-01 -.528E-01 0.813E+00   0.145E+00 -.830E-01 0.119E+01
   0.198E-04 -.187E+00 -.900E+03   0.110E-03 -.349E+00 0.898E+03   0.185E-11 0.282E+00 0.506E+00   0.576E-02 0.285E+00 0.116E+01
   0.536E-04 -.368E-04 -.274E+04   -.115E-03 0.777E-04 0.274E+04   0.252E-17 -.254E-19 0.188E+01   0.285E-04 -.119E-03 0.459E+00
   0.194E+02 0.309E+02 -.272E+04   -.190E+02 -.305E+02 0.272E+04   -.696E+00 -.105E+01 0.194E+01   0.289E+00 0.574E+00 0.279E+00
   -.194E+02 0.309E+02 -.272E+04   0.190E+02 -.305E+02 0.272E+04   0.696E+00 -.105E+01 0.194E+01   -.290E+00 0.575E+00 0.279E+00
   0.365E+02 0.134E+01 -.272E+04   -.359E+02 -.123E+01 0.272E+04   -.126E+01 -.765E-01 0.194E+01   0.642E+00 -.366E-01 0.279E+00
   -.365E+02 0.134E+01 -.272E+04   0.359E+02 -.123E+01 0.272E+04   0.126E+01 -.765E-01 0.194E+01   -.642E+00 -.360E-01 0.281E+00
   0.171E+02 -.323E+02 -.272E+04   -.169E+02 0.317E+02 0.272E+04   -.563E+00 0.113E+01 0.194E+01   0.353E+00 -.537E+00 0.279E+00
   -.171E+02 -.323E+02 -.272E+04   0.169E+02 0.317E+02 0.272E+04   0.563E+00 0.113E+01 0.194E+01   -.352E+00 -.538E+00 0.281E+00
   0.232E-04 -.119E-04 -.274E+04   0.106E-03 -.660E-04 0.274E+04   -.141E-17 0.427E-18 0.189E+01   -.605E-02 -.306E-02 0.421E+00
   -.176E-04 -.525E-05 -.128E+04   0.576E-04 0.774E-05 0.129E+04   -.219E-18 -.122E-17 -.109E+01   0.135E-02 0.830E-03 0.292E+00
   -.102E-05 -.725E-04 -.104E+04   0.202E-04 0.313E-06 0.102E+04   -.303E-18 -.290E-18 0.204E+02   0.107E-02 0.658E-03 -.531E+00
   0.238E-03 -.901E-04 -.174E+04   0.985E-05 0.209E-07 0.174E+04   -.108E-17 -.374E-18 -.328E+01   0.379E-02 0.232E-02 -.458E+00
   0.657E-05 -.143E-04 -.335E+03   0.669E-06 -.260E-08 0.343E+03   -.578E-20 -.147E-19 -.870E+01   0.201E-03 0.123E-03 -.628E-01
 -----------------------------------------------------------------------------------------------
   0.604E-03 -.860E-03 -.263E+02   -.196E-12 0.946E-13 0.773E-11   0.330E-15 -.147E-17 0.374E+01   0.132E-01 0.110E-01 0.227E+02
 
 
 POSITION                                       TOTAL-FORCE (eV/Angst)
 -----------------------------------------------------------------------------------
      0.00000      0.00000      5.28219        -0.000000     -0.000000     -0.016517
      2.93046      0.00000      5.28219         0.000097      0.022359      0.027121
      5.86091      0.00000      5.28219        -0.000097      0.022359      0.027121
      1.46523      2.53785      5.28219         0.019412     -0.011095      0.027121
      4.39568      2.53785      5.28219        -0.000000     -0.000000     -0.013104
      7.32614      2.53785      5.28219        -0.019412     -0.011095      0.027121
      2.93046      5.07570      5.28219         0.019315     -0.011263      0.027121
      5.86091      5.07570      5.28219        -0.019315     -0.011263      0.027121
      8.79137      5.07570      5.28219        -0.000000     -0.000000      0.020760
      1.46523      0.84595      7.67490         0.002198      0.001269     -0.023607
      4.39568      0.84595      7.67490        -0.000000     -0.044374     -0.054083
      7.32614      0.84595      7.67490        -0.002198      0.001269     -0.023607
      2.93046      3.38380      7.67490        -0.038429      0.022187     -0.054083
      5.86091      3.38380      7.67490         0.038429      0.022187     -0.054083
      8.79137      3.38380      7.67490        -0.000000     -0.010420      0.004088
      4.39568      5.92165      7.67490        -0.000000     -0.002538     -0.023607
      7.32614      5.92165      7.67490        -0.009024      0.005210      0.004088
     10.25659      5.92165      7.67490         0.009024      0.005210      0.004088
      8.79137      1.69374     10.05841         0.000000      0.004497      0.040224
      2.93927      1.69699     10.03909        -0.098126     -0.056653     -0.161272
      5.85210      1.69699     10.03909         0.098126     -0.056653     -0.161272
     10.25385      4.23133     10.05420         0.023421     -0.013522      0.003577
      4.39568      4.21957     10.03909         0.000000      0.113306     -0.161272
      7.32888      4.23133     10.05420        -0.023421     -0.013522      0.003577
     11.72023      6.76668     10.05841        -0.003895     -0.002249      0.040224
      5.86251      6.76668     10.05841         0.003895     -0.002249      0.040224
      8.79137      6.76443     10.05420         0.000000      0.027044      0.003577
      0.00000      0.00000     12.42643        -0.000000     -0.000000     -0.030857
      2.96234      0.05459     12.44639        -0.013939     -0.020608     -0.036565
      5.82903      0.05459     12.44639         0.013939     -0.020608     -0.036565
      1.52844      2.53816     12.44639        -0.024816     -0.001767     -0.036565
      7.26292      2.53816     12.44639         0.024816     -0.001767     -0.036565
      2.96179      5.02079     12.44639        -0.010877      0.022375     -0.036565
      5.82958      5.02079     12.44639         0.010877      0.022375     -0.036565
      8.79137      5.07570     12.42906        -0.000000     -0.000000     -0.026339
      4.39568      2.53785     12.18689        -0.000000     -0.000000      0.653898
      4.39568      2.53785     13.90024        -0.000000     -0.000000      0.066460
      4.39568      2.53785     15.17588        -0.000000     -0.000000     -0.026694
      4.39568      2.53785     16.13157        -0.000000     -0.000000      0.002275
 -----------------------------------------------------------------------------------
    total drift:                                0.013831      0.010171      0.175869


--------------------------------------------------------------------------------------------------------



  FREE ENERGIE OF THE ION-ELECTRON SYSTEM (eV)
  ---------------------------------------------------
  free  energy   TOTEN  =      -113.99301278 eV

  energy  without entropy=     -113.99301278  energy(sigma->0) =     -113.99301278
 


--------------------------------------------------------------------------------------------------------


    POTLOK:  cpu time    0.0525: real time    0.0525


--------------------------------------------------------------------------------------------------------


 stress matrix after NEB project (eV)
     -9.72122     -0.00000     -0.00000
     -0.00000     -9.72122      0.00000
     -0.00000      0.00000     -0.57580
  FORCES: max atom, RMS     0.066460    0.011474
  FORCE total and by dimension    0.071657    0.066460
  Stress total and by dimension   13.759930    9.721217
     LOOP+:  cpu time   91.9476: real time   91.9634
 -----------------------------------------------------------------------------
|                                                                             |
|           W    W    AA    RRRRR   N    N  II  N    N   GGGG   !!!           |
|           W    W   A  A   R    R  NN   N  II  NN   N  G    G  !!!           |
|           W    W  A    A  R    R  N N  N  II  N N  N  G       !!!           |
|           W WW W  AAAAAA  RRRRR   N  N N  II  N  N N  G  GGG   !            |
|           WW  WW  A    A  R   R   N   NN  II  N   NN  G    G                |
|           W    W  A    A  R    R  N    N  II  N    N   GGGG   !!!           |
|                                                                             |
|     Tetrahedron method does not include variations of the Fermi             |
|     occupations, so forces and stress will be inaccurate. We suggest        |
|     using a different smearing scheme ISMEAR = 1 or 2 for metals in         |
|     relaxations.                                                            |
|                                                                             |
 -----------------------------------------------------------------------------

    4ORBIT:  cpu time    0.0000: real time    0.0000



 total charge

# of ion       s       p       d       tot
------------------------------------------
    1        0.419   0.203   9.179   9.801
    2        0.419   0.204   9.177   9.800
    3        0.419   0.204   9.177   9.800
    4        0.419   0.204   9.177   9.800
    5        0.418   0.204   9.175   9.797
    6        0.419   0.204   9.177   9.800
    7        0.419   0.204   9.177   9.800
    8        0.419   0.204   9.177   9.800
    9        0.416   0.203   9.179   9.797
   10        0.408   0.270   9.165   9.842
   11        0.409   0.268   9.168   9.845
   12        0.408   0.270   9.165   9.842
   13        0.409   0.268   9.168   9.845
   14        0.409   0.268   9.168   9.845
   15        0.403   0.271   9.165   9.839
   16        0.408   0.270   9.165   9.842
   17        0.403   0.271   9.165   9.839
   18        0.403   0.271   9.165   9.839
   19        0.401   0.265   9.166   9.833
   20        0.432   0.293   9.144   9.869
   21        0.432   0.293   9.144   9.869
   22        0.396   0.275   9.164   9.835
   23        0.432   0.293   9.144   9.869
   24        0.396   0.275   9.164   9.835
   25        0.401   0.265   9.166   9.833
   26        0.401   0.265   9.166   9.833
   27        0.396   0.275   9.164   9.835
   28        0.416   0.197   9.178   9.791
   29        0.420   0.212   9.168   9.799
   30        0.420   0.212   9.168   9.799
   31        0.420   0.212   9.168   9.799
   32        0.420   0.212   9.168   9.799
   33        0.420   0.212   9.168   9.799
   34        0.420   0.212   9.168   9.799
   35        0.413   0.200   9.176   9.789
   36        0.449   0.555   4.481   5.484
   37        0.927   1.438   0.000   2.364
   38        1.520   3.761   0.000   5.281
   39        0.568   0.138   0.000   0.706
--------------------------------------------------
tot         17.921  14.325 325.351 357.598
 
 BZINTS: Fermi energy:    0.403194;  402.000000 electrons
         Band energy:-0.154293E+04;  BLOECHL correction:   -0.023475

 total amount of memory used by VASP MPI-rank0   139952. kBytes
=======================================================================

   base      :      30000. kBytes
   nonlr-proj:      14986. kBytes
   fftplans  :       5150. kBytes
   grid      :      23126. kBytes
   one-center:        606. kBytes
   wavefun   :      66084. kBytes
 
  
  
 General timing and accounting informations for this job:
 ========================================================
  
                  Total CPU time used (sec):      100.441
                            User time (sec):       97.063
                          System time (sec):        3.378
                         Elapsed time (sec):      100.845
  
                   Maximum memory used (kb):      412572.
                   Average memory used (kb):          N/A
  
                          Minor page faults:        75936
                          Major page faults:            0
                 Voluntary context switches:         5236
