PROCAR new format
# of k-points:   10         # of bands:  252         # of ions:   39

 k-point     1 :    0.00000000 0.00000000 0.00000000     weight = 0.01562500

band     1 # energy  -23.44146356 # occ.  2.00000000
 
ion      s      p      d    tot
    1  0.000  0.000  0.000  0.000
    2  0.000  0.000  0.000  0.000
    3  0.000  0.000  0.000  0.000
    4  0.000  0.000  0.000  0.000
    5  0.000  0.000  0.000  0.000
    6  0.000  0.000  0.000  0.000
    7  0.000  0.000  0.000  0.000
    8  0.000  0.000  0.000  0.000
    9  0.000  0.000  0.000  0.000
   10  0.000  0.000  0.000  0.000
   11  0.000  0.000  0.000  0.000
   12  0.000  0.000  0.000  0.000
   13  0.000  0.000  0.000  0.000
   14  0.000  0.000  0.000  0.000
   15  0.000  0.000  0.000  0.000
   16  0.000  0.000  0.000  0.000
   17  0.000  0.000  0.000  0.000
   18  0.000  0.000  0.000  0.000
   19  0.000  0.000  0.000  0.000
   20  0.000  0.000  0.000  0.000
   21  0.000  0.000  0.000  0.000
   22  0.000  0.000  0.000  0.000
   23  0.000  0.000  0.000  0.000
   24  0.000  0.000  0.000  0.000
   25  0.000  0.000  0.000  0.000
   26  0.000  0.000  0.000  0.000
   27  0.000  0.000  0.000  0.000
   28  0.000  0.000  0.000  0.000
   29  0.000  0.000  0.000  0.000
   30  0.000  0.000  0.000  0.000
   31  0.000  0.000  0.000  0.000
   32  0.000  0.000  0.000  0.000
   33  0.000  0.000  0.000  0.000
   34  0.000  0.000  0.000  0.000
   35  0.000  0.000  0.000  0.000
   36  0.000  0.000  0.000  0.000
   37  0.072  0.053  0.000  0.125
   38  0.726  0.005  0.000  0.731
   39  0.066  0.014  0.000  0.080
tot    0.864  0.072  0.000  0.936
 
band     2 # energy  -14.20893958 # occ.  2.00000000
 
ion      s      p      d    tot
    1  0.000  0.000  0.000  0.000
    2  0.000  0.000  0.000  0.000
    3  0.000  0.000  0.000  0.000
    4  0.000  0.000  0.000  0.000
    5  0.000  0.000  0.000  0.000
    6  0.000  0.000  0.000  0.000
    7  0.000  0.000  0.000  0.000
    8  0.000  0.000  0.000  0.000
    9  0.000  0.000  0.000  0.000
   10  0.000  0.000  0.000  0.000
   11  0.000  0.000  0.000  0.000
   12  0.000  0.000  0.000  0.000
   13  0.000  0.000  0.000  0.000
   14  0.000  0.000  0.000  0.000
   15  0.000  0.000  0.000  0.000
   16  0.000  0.000  0.000  0.000
   17  0.000  0.000  0.000  0.000
   18  0.000  0.000  0.000  0.000
   19  0.000  0.000  0.000  0.000
   20  0.000  0.000  0.000  0.000
   21  0.000  0.000  0.000  0.000
   22  0.000  0.000  0.000  0.000
   23  0.000  0.000  0.000  0.000
   24  0.000  0.000  0.000  0.000
   25  0.000  0.000  0.000  0.000
   26  0.000  0.000  0.000  0.000
   27  0.000  0.000  0.000  0.000
   28  0.000  0.000  0.000  0.000
   29  0.000  0.000  0.000  0.000
   30  0.000  0.000  0.000  0.000
   31  0.000  0.000  0.000  0.000
   32  0.000  0.000  0.000  0.000
   33  0.000  0.000  0.000  0.000
   34  0.000  0.000  0.000  0.000
   35  0.000  0.000  0.000  0.000
   36  0.003  0.003  0.002  0.008
   37  0.158  0.051  0.000  0.209
   38  0.014  0.520  0.000  0.534
   39  0.200  0.032  0.000  0.232
tot    0.376  0.606  0.002  0.984
 
band     3 # energy   -6.93389931 # occ.  2.00000000
 
ion      s      p      d    tot
    1  0.002  0.000  0.000  0.002
    2  0.001  0.000  0.000  0.002
    3  0.001  0.000  0.000  0.002
    4  0.001  0.000  0.000  0.002
    5  0.001  0.000  0.000  0.001
    6  0.001  0.000  0.000  0.002
    7  0.001  0.000  0.000  0.002
    8  0.001  0.000  0.000  0.002
    9  0.001  0.000  0.000  0.001
   10  0.007  0.000  0.000  0.008
   11  0.007  0.000  0.000  0.007
   12  0.007  0.000  0.000  0.008
   13  0.007  0.000  0.000  0.007
   14  0.007  0.000  0.000  0.007
   15  0.006  0.000  0.000  0.006
   16  0.007  0.000  0.000  0.008
   17  0.006  0.000  0.000  0.006
   18  0.006  0.000  0.000  0.006
   19  0.010  0.000  0.000  0.010
   20  0.018  0.000  0.004  0.022
   21  0.018  0.000  0.004  0.022
   22  0.009  0.000  0.000  0.010
   23  0.018  0.000  0.004  0.022
   24  0.009  0.000  0.000  0.010
   25  0.010  0.000  0.000  0.010
   26  0.010  0.000  0.000  0.010
   27  0.009  0.000  0.000  0.010
   28  0.004  0.000  0.000  0.004
   29  0.008  0.000  0.002  0.010
   30  0.008  0.000  0.002  0.010
   31  0.008  0.000  0.002  0.010
   32  0.008  0.000  0.002  0.010
   33  0.008  0.000  0.002  0.010
   34  0.008  0.000  0.002  0.010
   35  0.004  0.000  0.000  0.004
   36  0.111  0.029  0.082  0.222
   37  0.100  0.088  0.000  0.188
   38  0.008  0.029  0.000  0.037
   39  0.008  0.001  0.000  0.009
tot    0.468  0.153  0.107  0.728
 
band     4 # energy   -6.55302351 # occ.  2.00000000
 
ion      s      p      d    tot
    1  0.006  0.000  0.000  0.006
    2  0.006  0.001  0.000  0.007
    3  0.006  0.001  0.000  0.007
    4  0.006  0.001  0.000  0.007
    5  0.006  0.001  0.000  0.007
    6  0.006  0.001  0.000  0.007
    7  0.006  0.001  0.000  0.007
    8  0.006  0.001  0.000  0.007
    9  0.006  0.001  0.000  0.007
   10  0.018  0.000  0.001  0.019
   11  0.020  0.000  0.001  0.020
   12  0.018  0.000  0.001  0.019
   13  0.020  0.000  0.001  0.020
   14  0.020  0.000  0.001  0.020
   15  0.020  0.000  0.001  0.021
   16  0.018  0.000  0.001  0.019
   17  0.020  0.000  0.001  0.021
   18  0.020  0.000  0.001  0.021
   19  0.011  0.000  0.000  0.012
   20  0.007  0.001  0.004  0.012
   21  0.007  0.001  0.004  0.012
   22  0.012  0.000  0.000  0.013
   23  0.007  0.001  0.004  0.012
   24  0.012  0.000  0.000  0.013
   25  0.011  0.000  0.000  0.012
   26  0.011  0.000  0.000  0.012
   27  0.012  0.000  0.000  0.013
   28  0.001  0.000  0.000  0.002
   29  0.000  0.001  0.003  0.004
   30  0.000  0.001  0.003  0.004
   31  0.000  0.001  0.003  0.004
   32  0.000  0.001  0.003  0.004
   33  0.000  0.001  0.003  0.004
   34  0.000  0.001  0.003  0.004
   35  0.001  0.000  0.000  0.002
   36  0.043  0.034  0.061  0.137
   37  0.074  0.061  0.000  0.134
   38  0.006  0.019  0.000  0.025
   39  0.006  0.000  0.000  0.006
tot    0.450  0.128  0.101  0.678
 
band     5 # energy   -6.27868700 # occ.  2.00000000
 
ion      s      p      d    tot
    1  0.000  0.000  0.000  0.000
    2  0.000  0.000  0.000  0.000
    3  0.000  0.000  0.000  0.000
    4  0.000  0.000  0.000  0.000
    5  0.000  0.000  0.000  0.000
    6  0.000  0.000  0.000  0.000
    7  0.000  0.000  0.000  0.000
    8  0.000  0.000  0.000  0.000
    9  0.000  0.000  0.000  0.000
   10  0.000  0.000  0.000  0.000
   11  0.000  0.000  0.000  0.000
   12  0.000  0.000  0.000  0.000
   13  0.000  0.000  0.000  0.000
   14  0.000  0.000  0.000  0.000
   15  0.000  0.000  0.000  0.000
   16  0.000  0.000  0.000  0.000
   17  0.000  0.000  0.000  0.000
   18  0.000  0.000  0.000  0.000
   19  0.000  0.000  0.000  0.000
   20  0.000  0.000  0.000  0.000
   21  0.000  0.000  0.000  0.000
   22  0.000  0.000  0.000  0.000
   23  0.000  0.000  0.000  0.000
   24  0.000  0.000  0.000  0.000
   25  0.000  0.000  0.000  0.000
   26  0.000  0.000  0.000  0.000
   27  0.000  0.000  0.000  0.000
   28  0.000  0.000  0.000  0.000
   29  0.001  0.000  0.001  0.002
   30  0.000  0.000  0.001  0.001
   31  0.001  0.000  0.001  0.002
   32  0.001  0.000  0.002  0.002
   33  0.000  0.000  0.001  0.001
   34  0.001  0.000  0.002  0.002
   35  0.000  0.000  0.000  0.000
   36  0.000  0.003  0.013  0.016
   37  0.000  0.108  0.000  0.108
   38  0.000  0.530  0.000  0.530
   39  0.000  0.008  0.000  0.008
tot    0.003  0.649  0.021  0.673
 
band     6 # energy   -6.27849537 # occ.  2.00000000
 
ion      s      p      d    tot
    1  0.000  0.000  0.000  0.000
    2  0.000  0.000  0.000  0.000
    3  0.000  0.000  0.000  0.000
    4  0.000  0.000  0.000  0.000
    5  0.000  0.000  0.000  0.000
    6  0.000  0.000  0.000  0.000
    7  0.000  0.000  0.000  0.000
    8  0.000  0.000  0.000  0.000
    9  0.000  0.000  0.000  0.000
   10  0.000  0.000  0.000  0.000
   11  0.000  0.000  0.000  0.000
   12  0.000  0.000  0.000  0.000
   13  0.000  0.000  0.000  0.000
   14  0.000  0.000  0.000  0.000
   15  0.000  0.000  0.000  0.000
   16  0.000  0.000  0.000  0.000
   17  0.000  0.000  0.000  0.000
   18  0.000  0.000  0.000  0.000
   19  0.000  0.000  0.000  0.000
   20  0.000  0.000  0.000  0.000
   21  0.000  0.000  0.000  0.000
   22  0.000  0.000  0.000  0.000
   23  0.000  0.000  0.000  0.000
   24  0.000  0.000  0.000  0.000
   25  0.000  0.000  0.000  0.000
   26  0.000  0.000  0.000  0.000
   27  0.000  0.000  0.000  0.000
   28  0.000  0.000  0.000  0.000
   29  0.000  0.000  0.001  0.001
   30  0.001  0.000  0.002  0.003
   31  0.000  0.000  0.001  0.001
   32  0.000  0.000  0.001  0.001
   33  0.001  0.000  0.002  0.003
   34  0.000  0.000  0.001  0.001
   35  0.000  0.000  0.000  0.000
   36  0.000  0.003  0.013  0.016
   37  0.000  0.108  0.000  0.108
   38  0.000  0.530  0.000  0.530
   39  0.000  0.008  0.000  0.008
tot    0.003  0.649  0.021  0.673
 
band     7 # energy   -5.80853318 # occ.  2.00000000
 
ion      s      p      d    tot
    1  0.006  0.000  0.000  0.007
    2  0.005  0.000  0.000  0.006
    3  0.005  0.000  0.000  0.006
    4  0.005  0.000  0.000  0.006
    5  0.005  0.000  0.000  0.005
    6  0.005  0.000  0.000  0.006
    7  0.005  0.000  0.000  0.006
    8  0.005  0.000  0.000  0.006
    9  0.005  0.000  0.000  0.005
   10  0.010  0.001  0.016  0.027
   11  0.008  0.001  0.018  0.027
   12  0.010  0.001  0.016  0.027
   13  0.008  0.001  0.018  0.027
   14  0.008  0.001  0.018  0.027
   15  0.007  0.001  0.016  0.024
   16  0.010  0.001  0.016  0.027
   17  0.007  0.001  0.016  0.024
   18  0.007  0.001  0.016  0.024
   19  0.014  0.001  0.023  0.038
   20  0.011  0.000  0.031  0.043
   21  0.011  0.000  0.031  0.043
   22  0.016  0.001  0.021  0.037
   23  0.011  0.000  0.031  0.043
   24  0.016  0.001  0.021  0.037
   25  0.014  0.001  0.023  0.038
   26  0.014  0.001  0.023  0.038
   27  0.016  0.001  0.021  0.037
   28  0.005  0.001  0.000  0.006
   29  0.003  0.001  0.002  0.005
   30  0.003  0.001  0.002  0.005
   31  0.003  0.001  0.002  0.005
   32  0.003  0.001  0.002  0.005
   33  0.003  0.001  0.002  0.005
   34  0.003  0.001  0.002  0.005
   35  0.005  0.001  0.000  0.006
   36  0.001  0.005  0.005  0.010
   37  0.006  0.005  0.000  0.011
   38  0.000  0.001  0.000  0.002
   39  0.000  0.000  0.000  0.000
tot    0.281  0.030  0.391  0.703
 
band     8 # energy   -5.54261326 # occ.  2.00000000
 
ion      s      p      d    tot
    1  0.022  0.000  0.028  0.050
    2  0.018  0.000  0.029  0.047
    3  0.018  0.000  0.029  0.047
    4  0.018  0.000  0.029  0.047
    5  0.016  0.000  0.029  0.045
    6  0.018  0.000  0.029  0.047
    7  0.018  0.000  0.029  0.047
    8  0.018  0.000  0.029  0.047
    9  0.017  0.000  0.029  0.046
   10  0.000  0.001  0.026  0.027
   11  0.001  0.001  0.018  0.020
   12  0.000  0.001  0.026  0.027
   13  0.001  0.001  0.018  0.020
   14  0.001  0.001  0.018  0.020
   15  0.001  0.001  0.018  0.020
   16  0.000  0.001  0.026  0.027
   17  0.001  0.001  0.018  0.020
   18  0.001  0.001  0.018  0.020
   19  0.000  0.000  0.005  0.005
   20  0.000  0.000  0.008  0.008
   21  0.000  0.000  0.008  0.008
   22  0.001  0.000  0.005  0.007
   23  0.000  0.000  0.008  0.008
   24  0.001  0.000  0.005  0.007
   25  0.000  0.000  0.005  0.005
   26  0.000  0.000  0.005  0.005
   27  0.001  0.000  0.005  0.007
   28  0.005  0.000  0.003  0.008
   29  0.004  0.000  0.004  0.008
   30  0.004  0.000  0.004  0.008
   31  0.004  0.000  0.004  0.008
   32  0.004  0.000  0.004  0.008
   33  0.004  0.000  0.004  0.008
   34  0.004  0.000  0.004  0.008
   35  0.007  0.000  0.003  0.010
   36  0.000  0.000  0.005  0.005
   37  0.001  0.001  0.000  0.002
   38  0.000  0.000  0.000  0.000
   39  0.000  0.000  0.000  0.000
tot    0.208  0.010  0.535  0.753
 
band     9 # energy   -5.44946762 # occ.  2.00000000
 
ion      s      p      d    tot
    1  0.000  0.000  0.005  0.005
    2  0.001  0.000  0.005  0.006
    3  0.001  0.000  0.005  0.006
    4  0.001  0.000  0.005  0.006
    5  0.001  0.000  0.002  0.004
    6  0.001  0.000  0.005  0.006
    7  0.001  0.000  0.005  0.006
    8  0.001  0.000  0.005  0.006
    9  0.002  0.000  0.000  0.003
   10  0.002  0.000  0.029  0.031
   11  0.003  0.001  0.020  0.025
   12  0.002  0.000  0.029  0.031
   13  0.003  0.001  0.020  0.025
   14  0.003  0.001  0.020  0.025
   15  0.006  0.000  0.027  0.033
   16  0.002  0.000  0.029  0.031
   17  0.006  0.000  0.027  0.033
   18  0.006  0.000  0.027  0.033
   19  0.001  0.001  0.034  0.036
   20  0.009  0.000  0.081  0.090
   21  0.009  0.000  0.081  0.090
   22  0.010  0.001  0.014  0.025
   23  0.009  0.000  0.081  0.090
   24  0.010  0.001  0.014  0.025
   25  0.001  0.001  0.034  0.036
   26  0.001  0.001  0.034  0.036
   27  0.010  0.001  0.014  0.025
   28  0.000  0.000  0.000  0.000
   29  0.000  0.000  0.005  0.006
   30  0.000  0.000  0.005  0.006
   31  0.000  0.000  0.005  0.006
   32  0.000  0.000  0.005  0.006
   33  0.000  0.000  0.005  0.006
   34  0.000  0.000  0.005  0.006
   35  0.002  0.001  0.001  0.004
   36  0.000  0.004  0.000  0.004
   37  0.002  0.001  0.000  0.003
   38  0.000  0.000  0.000  0.001
   39  0.000  0.000  0.000  0.000
tot    0.106  0.019  0.688  0.813
 
band    10 # energy   -5.44186632 # occ.  2.00000000
 
ion      s      p      d    tot
    1  0.000  0.000  0.009  0.009
    2  0.001  0.000  0.003  0.003
    3  0.001  0.000  0.003  0.005
    4  0.001  0.000  0.003  0.003
    5  0.000  0.000  0.003  0.003
    6  0.000  0.000  0.003  0.003
    7  0.001  0.000  0.003  0.005
    8  0.000  0.000  0.003  0.003
    9  0.000  0.000  0.003  0.003
   10  0.000  0.001  0.025  0.026
   11  0.002  0.000  0.027  0.029
   12  0.012  0.001  0.019  0.032
   13  0.001  0.000  0.027  0.029
   14  0.000  0.001  0.021  0.022
   15  0.005  0.000  0.016  0.021
   16  0.012  0.001  0.019  0.032
   17  0.005  0.000  0.016  0.022
   18  0.000  0.000  0.041  0.041
   19  0.017  0.001  0.031  0.049
   20  0.000  0.000  0.134  0.135
   21  0.016  0.001  0.039  0.056
   22  0.000  0.000  0.034  0.035
   23  0.017  0.001  0.037  0.054
   24  0.000  0.001  0.041  0.042
   25  0.000  0.001  0.026  0.027
   26  0.017  0.001  0.031  0.048
   27  0.000  0.000  0.034  0.035
   28  0.000  0.000  0.005  0.005
   29  0.001  0.000  0.006  0.007
   30  0.000  0.000  0.002  0.002
   31  0.001  0.000  0.006  0.007
   32  0.001  0.001  0.005  0.006
   33  0.000  0.000  0.002  0.002
   34  0.001  0.001  0.005  0.006
   35  0.000  0.000  0.000  0.000
   36  0.000  0.001  0.001  0.002
   37  0.000  0.000  0.000  0.000
   38  0.000  0.000  0.000  0.000
   39  0.000  0.000  0.000  0.000
tot    0.112  0.016  0.682  0.810
 
band    11 # energy   -5.44185128 # occ.  2.00000000
 
ion      s      p      d    tot
    1  0.000  0.000  0.009  0.009
    2  0.001  0.000  0.003  0.005
    3  0.000  0.000  0.003  0.003
    4  0.001  0.000  0.003  0.005
    5  0.000  0.000  0.003  0.003
    6  0.001  0.000  0.003  0.004
    7  0.000  0.000  0.003  0.003
    8  0.001  0.000  0.003  0.004
    9  0.000  0.000  0.003  0.003
   10  0.016  0.001  0.017  0.034
   11  0.000  0.001  0.023  0.024
   12  0.004  0.001  0.023  0.028
   13  0.000  0.001  0.023  0.024
   14  0.002  0.000  0.029  0.031
   15  0.002  0.000  0.033  0.035
   16  0.004  0.001  0.023  0.028
   17  0.002  0.000  0.032  0.034
   18  0.007  0.001  0.008  0.015
   19  0.005  0.001  0.027  0.034
   20  0.022  0.001  0.006  0.029
   21  0.006  0.000  0.101  0.107
   22  0.000  0.001  0.039  0.039
   23  0.005  0.000  0.104  0.109
   24  0.000  0.000  0.032  0.033
   25  0.022  0.000  0.033  0.056
   26  0.006  0.001  0.028  0.035
   27  0.000  0.001  0.039  0.040
   28  0.000  0.000  0.005  0.005
   29  0.001  0.000  0.002  0.003
   30  0.001  0.001  0.006  0.008
   31  0.001  0.000  0.002  0.003
   32  0.000  0.000  0.003  0.004
   33  0.001  0.001  0.006  0.008
   34  0.000  0.000  0.004  0.004
   35  0.000  0.000  0.000  0.000
   36  0.000  0.001  0.001  0.002
   37  0.000  0.000  0.000  0.000
   38  0.000  0.000  0.000  0.000
   39  0.000  0.000  0.000  0.000
tot    0.112  0.016  0.682  0.810
 
band    12 # energy   -5.43623845 # occ.  2.00000000
 
ion      s      p      d    tot
    1  0.000  0.000  0.001  0.002
    2  0.000  0.000  0.006  0.006
    3  0.000  0.000  0.006  0.006
    4  0.000  0.000  0.006  0.006
    5  0.006  0.001  0.002  0.009
    6  0.000  0.000  0.006  0.006
    7  0.000  0.000  0.006  0.006
    8  0.000  0.000  0.006  0.006
    9  0.001  0.000  0.004  0.005
   10  0.008  0.001  0.005  0.014
   11  0.011  0.000  0.035  0.046
   12  0.008  0.001  0.004  0.014
   13  0.011  0.000  0.035  0.046
   14  0.010  0.000  0.036  0.046
   15  0.000  0.000  0.039  0.040
   16  0.008  0.001  0.004  0.014
   17  0.000  0.000  0.039  0.040
   18  0.000  0.000  0.042  0.042
   19  0.016  0.001  0.024  0.041
   20  0.004  0.001  0.020  0.025
   21  0.004  0.001  0.018  0.023
   22  0.002  0.000  0.065  0.067
   23  0.004  0.001  0.018  0.023
   24  0.001  0.000  0.066  0.067
   25  0.016  0.001  0.023  0.039
   26  0.016  0.001  0.024  0.041
   27  0.002  0.000  0.065  0.067
   28  0.004  0.001  0.006  0.011
   29  0.000  0.000  0.004  0.004
   30  0.000  0.000  0.004  0.004
   31  0.000  0.000  0.004  0.004
   32  0.000  0.000  0.004  0.004
   33  0.000  0.000  0.004  0.004
   34  0.000  0.000  0.004  0.004
   35  0.002  0.001  0.006  0.009
   36  0.001  0.000  0.000  0.001
   37  0.000  0.000  0.000  0.000
   38  0.000  0.000  0.000  0.000
   39  0.000  0.000  0.000  0.000
tot    0.138  0.018  0.641  0.797
 
band    13 # energy   -5.43594917 # occ.  2.00000000
 
ion      s      p      d    tot
    1  0.000  0.000  0.002  0.002
    2  0.000  0.000  0.002  0.003
    3  0.001  0.000  0.006  0.007
    4  0.000  0.000  0.003  0.003
    5  0.000  0.000  0.009  0.009
    6  0.001  0.000  0.004  0.006
    7  0.001  0.000  0.006  0.007
    8  0.001  0.000  0.004  0.006
    9  0.000  0.000  0.003  0.003
   10  0.003  0.000  0.019  0.023
   11  0.007  0.001  0.064  0.071
   12  0.001  0.001  0.060  0.061
   13  0.006  0.001  0.065  0.072
   14  0.029  0.001  0.008  0.038
   15  0.003  0.001  0.017  0.021
   16  0.001  0.001  0.059  0.060
   17  0.003  0.001  0.016  0.020
   18  0.012  0.000  0.035  0.047
   19  0.001  0.000  0.040  0.041
   20  0.008  0.000  0.035  0.043
   21  0.002  0.001  0.024  0.027
   22  0.005  0.001  0.038  0.043
   23  0.002  0.001  0.024  0.028
   24  0.020  0.001  0.009  0.030
   25  0.003  0.000  0.014  0.018
   26  0.001  0.000  0.040  0.041
   27  0.005  0.001  0.037  0.043
   28  0.000  0.000  0.002  0.002
   29  0.001  0.000  0.004  0.005
   30  0.000  0.000  0.002  0.002
   31  0.001  0.000  0.004  0.005
   32  0.001  0.000  0.002  0.003
   33  0.000  0.000  0.002  0.002
   34  0.001  0.000  0.002  0.003
   35  0.000  0.000  0.007  0.007
   36  0.000  0.000  0.001  0.001
   37  0.000  0.000  0.000  0.000
   38  0.000  0.000  0.000  0.000
   39  0.000  0.000  0.000  0.000
tot    0.120  0.016  0.668  0.805
 
band    14 # energy   -5.43594250 # occ.  2.00000000
 
ion      s      p      d    tot
    1  0.000  0.000  0.002  0.002
    2  0.001  0.001  0.006  0.008
    3  0.000  0.000  0.003  0.003
    4  0.001  0.001  0.006  0.008
    5  0.000  0.000  0.009  0.009
    6  0.001  0.000  0.004  0.005
    7  0.000  0.000  0.003  0.003
    8  0.001  0.000  0.004  0.005
    9  0.000  0.000  0.003  0.004
   10  0.000  0.001  0.073  0.073
   11  0.021  0.001  0.028  0.050
   12  0.002  0.000  0.032  0.035
   13  0.021  0.001  0.027  0.049
   14  0.000  0.000  0.083  0.083
   15  0.009  0.001  0.029  0.039
   16  0.002  0.000  0.033  0.036
   17  0.009  0.001  0.030  0.039
   18  0.000  0.002  0.009  0.010
   19  0.002  0.000  0.023  0.025
   20  0.000  0.001  0.020  0.021
   21  0.006  0.001  0.032  0.039
   22  0.015  0.001  0.018  0.034
   23  0.006  0.001  0.031  0.038
   24  0.000  0.000  0.046  0.047
   25  0.000  0.000  0.049  0.049
   26  0.002  0.000  0.022  0.025
   27  0.015  0.001  0.019  0.035
   28  0.000  0.000  0.002  0.002
   29  0.000  0.000  0.002  0.002
   30  0.001  0.000  0.003  0.005
   31  0.000  0.000  0.002  0.002
   32  0.001  0.000  0.003  0.004
   33  0.001  0.000  0.003  0.005
   34  0.001  0.000  0.003  0.004
   35  0.000  0.000  0.007  0.007
   36  0.000  0.000  0.001  0.001
   37  0.000  0.000  0.000  0.000
   38  0.000  0.000  0.000  0.000
   39  0.000  0.000  0.000  0.000
tot    0.120  0.016  0.669  0.805
 
band    15 # energy   -5.41762670 # occ.  2.00000000
 
ion      s      p      d    tot
    1  0.000  0.001  0.021  0.022
    2  0.000  0.000  0.008  0.009
    3  0.000  0.000  0.008  0.009
    4  0.000  0.000  0.008  0.009
    5  0.000  0.000  0.002  0.002
    6  0.000  0.000  0.008  0.009
    7  0.000  0.000  0.008  0.009
    8  0.000  0.000  0.008  0.009
    9  0.008  0.001  0.000  0.009
   10  0.006  0.000  0.070  0.076
   11  0.001  0.000  0.059  0.060
   12  0.006  0.000  0.070  0.076
   13  0.001  0.000  0.059  0.060
   14  0.001  0.000  0.059  0.060
   15  0.007  0.001  0.004  0.011
   16  0.006  0.000  0.070  0.076
   17  0.007  0.001  0.004  0.011
   18  0.007  0.001  0.004  0.011
   19  0.000  0.000  0.014  0.015
   20  0.001  0.000  0.034  0.035
   21  0.001  0.000  0.034  0.035
   22  0.001  0.000  0.025  0.025
   23  0.001  0.000  0.034  0.035
   24  0.001  0.000  0.025  0.025
   25  0.000  0.000  0.014  0.015
   26  0.000  0.000  0.014  0.015
   27  0.001  0.000  0.025  0.025
   28  0.007  0.000  0.002  0.009
   29  0.001  0.000  0.010  0.011
   30  0.001  0.000  0.010  0.011
   31  0.001  0.000  0.010  0.011
   32  0.001  0.000  0.010  0.011
   33  0.001  0.000  0.010  0.011
   34  0.001  0.000  0.010  0.011
   35  0.000  0.000  0.009  0.010
   36  0.001  0.000  0.000  0.001
   37  0.000  0.000  0.000  0.000
   38  0.000  0.000  0.000  0.000
   39  0.000  0.000  0.000  0.000
tot    0.072  0.008  0.757  0.837
 
band    16 # energy   -5.39901825 # occ.  2.00000000
 
ion      s      p      d    tot
    1  0.000  0.000  0.016  0.016
    2  0.001  0.001  0.010  0.012
    3  0.003  0.001  0.005  0.009
    4  0.001  0.001  0.010  0.012
    5  0.000  0.000  0.008  0.008
    6  0.001  0.000  0.009  0.010
    7  0.003  0.001  0.005  0.009
    8  0.001  0.000  0.009  0.010
    9  0.000  0.001  0.008  0.008
   10  0.014  0.000  0.031  0.045
   11  0.000  0.000  0.025  0.026
   12  0.004  0.000  0.050  0.054
   13  0.000  0.000  0.026  0.027
   14  0.000  0.000  0.043  0.043
   15  0.003  0.000  0.087  0.091
   16  0.003  0.000  0.051  0.055
   17  0.004  0.000  0.083  0.087
   18  0.015  0.000  0.004  0.019
   19  0.000  0.000  0.029  0.029
   20  0.004  0.000  0.009  0.014
   21  0.001  0.000  0.034  0.036
   22  0.001  0.000  0.021  0.022
   23  0.001  0.000  0.036  0.037
   24  0.002  0.000  0.025  0.027
   25  0.000  0.000  0.026  0.026
   26  0.000  0.000  0.029  0.029
   27  0.000  0.000  0.021  0.022
   28  0.000  0.000  0.012  0.012
   29  0.002  0.000  0.004  0.006
   30  0.000  0.000  0.005  0.005
   31  0.002  0.000  0.004  0.006
   32  0.002  0.000  0.004  0.006
   33  0.000  0.000  0.005  0.005
   34  0.002  0.000  0.004  0.006
   35  0.000  0.000  0.006  0.006
   36  0.000  0.000  0.001  0.001
   37  0.000  0.000  0.000  0.000
   38  0.000  0.000  0.000  0.000
   39  0.000  0.000  0.000  0.000
tot    0.071  0.009  0.755  0.836
 
band    17 # energy   -5.39900890 # occ.  2.00000000
 
ion      s      p      d    tot
    1  0.000  0.000  0.016  0.016
    2  0.002  0.000  0.006  0.009
    3  0.000  0.000  0.011  0.011
    4  0.002  0.000  0.006  0.009
    5  0.000  0.000  0.008  0.008
    6  0.003  0.001  0.007  0.011
    7  0.000  0.000  0.011  0.011
    8  0.003  0.001  0.007  0.011
    9  0.000  0.001  0.008  0.008
   10  0.000  0.000  0.057  0.058
   11  0.000  0.000  0.038  0.038
   12  0.010  0.000  0.038  0.048
   13  0.000  0.000  0.037  0.037
   14  0.000  0.000  0.020  0.020
   15  0.011  0.000  0.029  0.041
   16  0.011  0.000  0.037  0.048
   17  0.011  0.000  0.033  0.044
   18  0.000  0.000  0.112  0.112
   19  0.000  0.000  0.027  0.027
   20  0.000  0.000  0.043  0.044
   21  0.003  0.000  0.019  0.022
   22  0.002  0.000  0.023  0.025
   23  0.003  0.000  0.017  0.020
   24  0.000  0.000  0.020  0.020
   25  0.000  0.000  0.030  0.030
   26  0.000  0.000  0.027  0.027
   27  0.002  0.000  0.023  0.025
   28  0.000  0.000  0.012  0.012
   29  0.001  0.000  0.005  0.006
   30  0.003  0.000  0.004  0.007
   31  0.001  0.000  0.005  0.006
   32  0.001  0.000  0.004  0.005
   33  0.003  0.000  0.004  0.007
   34  0.001  0.000  0.004  0.006
   35  0.000  0.000  0.006  0.006
   36  0.000  0.000  0.001  0.001
   37  0.000  0.000  0.000  0.000
   38  0.000  0.000  0.000  0.000
   39  0.000  0.000  0.000  0.000
tot    0.071  0.009  0.755  0.835
 
band    18 # energy   -5.39355804 # occ.  2.00000000
 
ion      s      p      d    tot
    1  0.002  0.000  0.000  0.003
    2  0.001  0.000  0.011  0.012
    3  0.001  0.000  0.011  0.012
    4  0.001  0.000  0.011  0.012
    5  0.004  0.000  0.000  0.005
    6  0.001  0.000  0.011  0.012
    7  0.001  0.000  0.011  0.012
    8  0.001  0.000  0.011  0.012
    9  0.002  0.000  0.017  0.020
   10  0.003  0.000  0.029  0.032
   11  0.002  0.000  0.007  0.010
   12  0.003  0.000  0.029  0.032
   13  0.002  0.000  0.007  0.010
   14  0.002  0.000  0.007  0.010
   15  0.001  0.000  0.063  0.065
   16  0.003  0.000  0.029  0.032
   17  0.001  0.000  0.063  0.065
   18  0.001  0.000  0.064  0.065
   19  0.000  0.000  0.047  0.048
   20  0.005  0.000  0.022  0.027
   21  0.004  0.000  0.022  0.027
   22  0.000  0.000  0.035  0.036
   23  0.004  0.000  0.022  0.027
   24  0.000  0.000  0.035  0.035
   25  0.000  0.000  0.047  0.048
   26  0.000  0.000  0.047  0.048
   27  0.000  0.000  0.035  0.036
   28  0.001  0.000  0.002  0.003
   29  0.001  0.000  0.010  0.011
   30  0.001  0.000  0.010  0.011
   31  0.001  0.000  0.010  0.011
   32  0.001  0.000  0.010  0.011
   33  0.001  0.000  0.010  0.011
   34  0.001  0.000  0.010  0.011
   35  0.009  0.000  0.008  0.017
   36  0.000  0.002  0.001  0.003
   37  0.000  0.000  0.000  0.001
   38  0.000  0.000  0.000  0.000
   39  0.000  0.000  0.000  0.000
tot    0.066  0.009  0.764  0.839
 
band    19 # energy   -5.38283652 # occ.  2.00000000
 
ion      s      p      d    tot
    1  0.000  0.000  0.006  0.006
    2  0.003  0.000  0.007  0.010
    3  0.000  0.000  0.010  0.010
    4  0.003  0.000  0.007  0.010
    5  0.000  0.000  0.010  0.011
    6  0.002  0.000  0.007  0.009
    7  0.000  0.000  0.010  0.010
    8  0.002  0.000  0.007  0.009
    9  0.000  0.000  0.020  0.020
   10  0.004  0.000  0.023  0.027
   11  0.002  0.000  0.051  0.053
   12  0.001  0.000  0.029  0.030
   13  0.002  0.000  0.048  0.050
   14  0.007  0.000  0.009  0.017
   15  0.000  0.000  0.027  0.027
   16  0.001  0.000  0.030  0.031
   17  0.000  0.000  0.028  0.028
   18  0.000  0.000  0.042  0.043
   19  0.002  0.000  0.063  0.064
   20  0.000  0.000  0.049  0.050
   21  0.000  0.000  0.023  0.023
   22  0.003  0.000  0.057  0.060
   23  0.000  0.000  0.021  0.021
   24  0.011  0.000  0.020  0.032
   25  0.007  0.000  0.009  0.015
   26  0.002  0.000  0.059  0.061
   27  0.003  0.000  0.060  0.062
   28  0.000  0.000  0.004  0.004
   29  0.000  0.000  0.007  0.007
   30  0.001  0.000  0.002  0.004
   31  0.000  0.000  0.007  0.007
   32  0.001  0.001  0.007  0.009
   33  0.001  0.000  0.002  0.004
   34  0.001  0.001  0.007  0.008
   35  0.000  0.000  0.009  0.009
   36  0.000  0.000  0.001  0.001
   37  0.000  0.000  0.000  0.000
   38  0.000  0.000  0.000  0.000
   39  0.000  0.000  0.000  0.000
tot    0.060  0.007  0.777  0.844
 
band    20 # energy   -5.38282139 # occ.  2.00000000
 
ion      s      p      d    tot
    1  0.000  0.000  0.006  0.006
    2  0.000  0.000  0.009  0.009
    3  0.003  0.001  0.006  0.010
    4  0.000  0.000  0.009  0.009
    5  0.000  0.000  0.010  0.011
    6  0.002  0.000  0.009  0.010
    7  0.003  0.001  0.006  0.010
    8  0.002  0.000  0.009  0.010
    9  0.000  0.000  0.020  0.020
   10  0.000  0.000  0.032  0.032
   11  0.005  0.000  0.021  0.027
   12  0.003  0.000  0.026  0.028
   13  0.005  0.000  0.024  0.029
   14  0.000  0.000  0.063  0.063
   15  0.000  0.000  0.038  0.038
   16  0.003  0.000  0.025  0.028
   17  0.000  0.000  0.037  0.037
   18  0.000  0.000  0.023  0.023
   19  0.005  0.000  0.024  0.030
   20  0.000  0.000  0.013  0.013
   21  0.000  0.000  0.039  0.040
   22  0.008  0.000  0.034  0.043
   23  0.000  0.000  0.041  0.041
   24  0.000  0.000  0.071  0.071
   25  0.000  0.000  0.079  0.079
   26  0.005  0.000  0.028  0.033
   27  0.009  0.000  0.032  0.041
   28  0.000  0.000  0.004  0.004
   29  0.002  0.001  0.004  0.006
   30  0.000  0.000  0.009  0.009
   31  0.002  0.001  0.003  0.005
   32  0.001  0.000  0.003  0.004
   33  0.000  0.000  0.009  0.009
   34  0.001  0.000  0.004  0.005
   35  0.000  0.000  0.009  0.009
   36  0.000  0.000  0.001  0.001
   37  0.000  0.000  0.000  0.000
   38  0.000  0.000  0.000  0.000
   39  0.000  0.000  0.000  0.000