PROCAR new format
# of k-points:   10         # of bands:  252         # of ions:   36

 k-point     1 :    0.00000000 0.00000000 0.00000000     weight = 0.01562500

band     1 # energy  -55.11406051 # occ.  2.00000000
 
ion      s      p      d    tot
    1  0.000  0.000  0.000  0.000
    2  0.000  0.000  0.000  0.000
    3  0.000  0.000  0.000  0.000
    4  0.000  0.000  0.000  0.000
    5  0.000  0.000  0.000  0.000
    6  0.000  0.000  0.000  0.000
    7  0.000  0.000  0.000  0.000
    8  0.000  0.000  0.000  0.000
    9  0.000  0.000  0.000  0.000
   10  0.000  0.000  0.000  0.000
   11  0.000  0.000  0.000  0.000
   12  0.000  0.000  0.000  0.000
   13  0.000  0.000  0.000  0.000
   14  0.000  0.000  0.000  0.000
   15  0.000  0.000  0.000  0.000
   16  0.000  0.000  0.000  0.000
   17  0.000  0.000  0.000  0.000
   18  0.000  0.000  0.000  0.000
   19  0.000  0.000  0.000  0.000
   20  0.000  0.000  0.000  0.000
   21  0.000  0.000  0.000  0.000
   22  0.000  0.000  0.000  0.000
   23  0.000  0.000  0.000  0.000
   24  0.000  0.000  0.000  0.000
   25  0.000  0.000  0.000  0.000
   26  0.000  0.000  0.000  0.000
   27  0.000  0.000  0.000  0.000
   28  0.000  0.000  0.000  0.000
   29  0.000  0.000  0.000  0.000
   30  0.000  0.000  0.000  0.000
   31  0.000  0.000  0.000  0.000
   32  0.000  0.000  0.000  0.000
   33  0.000  0.000  0.000  0.000
   34  0.000  0.000  0.000  0.000
   35  0.000  0.000  0.000  0.000
   36  0.993  0.000  0.000  0.993
tot    0.993  0.000  0.000  0.993
 
band     2 # energy  -31.25007454 # occ.  2.00000000
 
ion      s      p      d    tot
    1  0.000  0.000  0.000  0.000
    2  0.000  0.000  0.000  0.000
    3  0.000  0.000  0.000  0.000
    4  0.000  0.000  0.000  0.000
    5  0.000  0.000  0.000  0.000
    6  0.000  0.000  0.000  0.000
    7  0.000  0.000  0.000  0.000
    8  0.000  0.000  0.000  0.000
    9  0.000  0.000  0.000  0.000
   10  0.000  0.000  0.000  0.000
   11  0.000  0.000  0.000  0.000
   12  0.000  0.000  0.000  0.000
   13  0.000  0.000  0.000  0.000
   14  0.000  0.000  0.000  0.000
   15  0.000  0.000  0.000  0.000
   16  0.000  0.000  0.000  0.000
   17  0.000  0.000  0.000  0.000
   18  0.000  0.000  0.000  0.000
   19  0.000  0.000  0.000  0.000
   20  0.000  0.000  0.000  0.000
   21  0.000  0.000  0.000  0.000
   22  0.000  0.000  0.000  0.000
   23  0.000  0.000  0.000  0.000
   24  0.000  0.000  0.000  0.000
   25  0.000  0.000  0.000  0.000
   26  0.000  0.000  0.000  0.000
   27  0.000  0.000  0.000  0.000
   28  0.000  0.000  0.000  0.000
   29  0.000  0.000  0.000  0.000
   30  0.000  0.000  0.000  0.000
   31  0.000  0.000  0.000  0.000
   32  0.000  0.000  0.000  0.000
   33  0.000  0.000  0.000  0.000
   34  0.000  0.000  0.000  0.000
   35  0.000  0.000  0.000  0.000
   36  0.000  0.974  0.000  0.974
tot    0.000  0.974  0.000  0.975
 
band     3 # energy  -31.16112581 # occ.  2.00000000
 
ion      s      p      d    tot
    1  0.000  0.000  0.000  0.000
    2  0.000  0.000  0.000  0.000
    3  0.000  0.000  0.000  0.000
    4  0.000  0.000  0.000  0.000
    5  0.000  0.000  0.000  0.000
    6  0.000  0.000  0.000  0.000
    7  0.000  0.000  0.000  0.000
    8  0.000  0.000  0.000  0.000
    9  0.000  0.000  0.000  0.000
   10  0.000  0.000  0.000  0.000
   11  0.000  0.000  0.000  0.000
   12  0.000  0.000  0.000  0.000
   13  0.000  0.000  0.000  0.000
   14  0.000  0.000  0.000  0.000
   15  0.000  0.000  0.000  0.000
   16  0.000  0.000  0.000  0.000
   17  0.000  0.000  0.000  0.000
   18  0.000  0.000  0.000  0.000
   19  0.000  0.000  0.000  0.000
   20  0.000  0.000  0.000  0.000
   21  0.000  0.000  0.000  0.000
   22  0.000  0.000  0.000  0.000
   23  0.000  0.000  0.000  0.000
   24  0.000  0.000  0.000  0.000
   25  0.000  0.000  0.000  0.000
   26  0.000  0.000  0.000  0.000
   27  0.000  0.000  0.000  0.000
   28  0.000  0.000  0.000  0.000
   29  0.000  0.000  0.000  0.000
   30  0.000  0.000  0.000  0.001
   31  0.000  0.000  0.000  0.000
   32  0.000  0.000  0.000  0.000
   33  0.000  0.000  0.000  0.001
   34  0.000  0.000  0.000  0.000
   35  0.000  0.000  0.000  0.000
   36  0.000  0.971  0.000  0.971
tot    0.001  0.972  0.001  0.974
 
band     4 # energy  -31.16111724 # occ.  2.00000000
 
ion      s      p      d    tot
    1  0.000  0.000  0.000  0.000
    2  0.000  0.000  0.000  0.000
    3  0.000  0.000  0.000  0.000
    4  0.000  0.000  0.000  0.000
    5  0.000  0.000  0.000  0.000
    6  0.000  0.000  0.000  0.000
    7  0.000  0.000  0.000  0.000
    8  0.000  0.000  0.000  0.000
    9  0.000  0.000  0.000  0.000
   10  0.000  0.000  0.000  0.000
   11  0.000  0.000  0.000  0.000
   12  0.000  0.000  0.000  0.000
   13  0.000  0.000  0.000  0.000
   14  0.000  0.000  0.000  0.000
   15  0.000  0.000  0.000  0.000
   16  0.000  0.000  0.000  0.000
   17  0.000  0.000  0.000  0.000
   18  0.000  0.000  0.000  0.000
   19  0.000  0.000  0.000  0.000
   20  0.000  0.000  0.000  0.000
   21  0.000  0.000  0.000  0.000
   22  0.000  0.000  0.000  0.000
   23  0.000  0.000  0.000  0.000
   24  0.000  0.000  0.000  0.000
   25  0.000  0.000  0.000  0.000
   26  0.000  0.000  0.000  0.000
   27  0.000  0.000  0.000  0.000
   28  0.000  0.000  0.000  0.000
   29  0.000  0.000  0.000  0.001
   30  0.000  0.000  0.000  0.000
   31  0.000  0.000  0.000  0.001
   32  0.000  0.000  0.000  0.001
   33  0.000  0.000  0.000  0.000
   34  0.000  0.000  0.000  0.001
   35  0.000  0.000  0.000  0.000
   36  0.000  0.971  0.000  0.971
tot    0.001  0.972  0.001  0.974
 
band     5 # energy   -8.55272470 # occ.  2.00000000
 
ion      s      p      d    tot
    1  0.007  0.001  0.000  0.008
    2  0.007  0.001  0.000  0.007
    3  0.007  0.001  0.000  0.007
    4  0.007  0.001  0.000  0.007
    5  0.007  0.001  0.000  0.007
    6  0.007  0.001  0.000  0.007
    7  0.007  0.001  0.000  0.007
    8  0.007  0.001  0.000  0.007
    9  0.007  0.001  0.000  0.007
   10  0.025  0.000  0.000  0.025
   11  0.025  0.000  0.000  0.025
   12  0.025  0.000  0.000  0.025
   13  0.025  0.000  0.000  0.025
   14  0.025  0.000  0.000  0.025
   15  0.025  0.000  0.000  0.025
   16  0.025  0.000  0.000  0.025
   17  0.025  0.000  0.000  0.025
   18  0.025  0.000  0.000  0.025
   19  0.025  0.000  0.000  0.025
   20  0.024  0.000  0.000  0.024
   21  0.024  0.000  0.000  0.024
   22  0.024  0.000  0.000  0.024
   23  0.024  0.000  0.000  0.024
   24  0.024  0.000  0.000  0.024
   25  0.025  0.000  0.000  0.025
   26  0.025  0.000  0.000  0.025
   27  0.024  0.000  0.000  0.024
   28  0.007  0.001  0.000  0.008
   29  0.007  0.001  0.000  0.007
   30  0.007  0.001  0.000  0.007
   31  0.007  0.001  0.000  0.007
   32  0.007  0.001  0.000  0.007
   33  0.007  0.001  0.000  0.007
   34  0.007  0.001  0.000  0.007
   35  0.007  0.001  0.000  0.008
   36  0.003  0.000  0.000  0.003
tot    0.560  0.016  0.001  0.577
 
band     6 # energy   -7.26849487 # occ.  2.00000000
 
ion      s      p      d    tot
    1  0.018  0.001  0.000  0.019
    2  0.018  0.001  0.000  0.019
    3  0.018  0.001  0.000  0.019
    4  0.018  0.001  0.000  0.019
    5  0.018  0.001  0.000  0.019
    6  0.018  0.001  0.000  0.019
    7  0.018  0.001  0.000  0.019
    8  0.018  0.001  0.000  0.019
    9  0.017  0.001  0.000  0.019
   10  0.010  0.002  0.001  0.012
   11  0.010  0.002  0.000  0.013
   12  0.010  0.002  0.001  0.012
   13  0.010  0.002  0.000  0.013
   14  0.010  0.002  0.000  0.013
   15  0.009  0.002  0.001  0.012
   16  0.010  0.002  0.001  0.012
   17  0.009  0.002  0.001  0.012
   18  0.009  0.002  0.001  0.012
   19  0.011  0.002  0.000  0.014
   20  0.008  0.002  0.001  0.011
   21  0.008  0.002  0.001  0.011
   22  0.011  0.002  0.000  0.013
   23  0.008  0.002  0.001  0.011
   24  0.011  0.002  0.000  0.013
   25  0.011  0.002  0.000  0.014
   26  0.011  0.002  0.000  0.014
   27  0.011  0.002  0.000  0.013
   28  0.021  0.001  0.001  0.022
   29  0.019  0.001  0.001  0.021
   30  0.019  0.001  0.001  0.021
   31  0.019  0.001  0.001  0.021
   32  0.019  0.001  0.001  0.021
   33  0.019  0.001  0.001  0.021
   34  0.019  0.001  0.001  0.021
   35  0.020  0.001  0.001  0.022
   36  0.008  0.000  0.001  0.009
tot    0.501  0.053  0.020  0.574
 
band     7 # energy   -5.70215779 # occ.  2.00000000
 
ion      s      p      d    tot
    1  0.016  0.000  0.005  0.021
    2  0.015  0.000  0.005  0.021
    3  0.015  0.000  0.005  0.021
    4  0.015  0.000  0.005  0.021
    5  0.008  0.000  0.006  0.015
    6  0.015  0.000  0.005  0.021
    7  0.015  0.000  0.005  0.021
    8  0.015  0.000  0.005  0.021
    9  0.023  0.000  0.004  0.027
   10  0.003  0.004  0.002  0.009
   11  0.009  0.005  0.001  0.014
   12  0.003  0.004  0.002  0.009
   13  0.009  0.005  0.001  0.014
   14  0.009  0.005  0.001  0.014
   15  0.000  0.003  0.003  0.006
   16  0.003  0.004  0.002  0.009
   17  0.000  0.003  0.003  0.006
   18  0.000  0.003  0.003  0.006
   19  0.002  0.003  0.005  0.010
   20  0.017  0.004  0.003  0.023
   21  0.017  0.004  0.003  0.023
   22  0.001  0.003  0.004  0.008
   23  0.017  0.004  0.003  0.023
   24  0.001  0.003  0.004  0.008
   25  0.002  0.003  0.005  0.010
   26  0.002  0.003  0.005  0.010
   27  0.001  0.003  0.004  0.008
   28  0.020  0.000  0.006  0.026
   29  0.017  0.000  0.008  0.026
   30  0.017  0.000  0.008  0.026
   31  0.017  0.000  0.008  0.026
   32  0.017  0.000  0.008  0.026
   33  0.017  0.000  0.008  0.026
   34  0.017  0.000  0.008  0.026
   35  0.026  0.000  0.006  0.032
   36  0.003  0.000  0.011  0.014
tot    0.384  0.066  0.174  0.624
 
band     8 # energy   -5.59873000 # occ.  2.00000000
 
ion      s      p      d    tot
    1  0.000  0.003  0.005  0.007
    2  0.007  0.002  0.002  0.011
    3  0.006  0.002  0.002  0.010
    4  0.007  0.002  0.002  0.011
    5  0.000  0.001  0.002  0.002
    6  0.000  0.001  0.002  0.003
    7  0.006  0.002  0.002  0.010
    8  0.000  0.001  0.002  0.003
    9  0.000  0.001  0.004  0.005
   10  0.050  0.002  0.006  0.057
   11  0.000  0.008  0.003  0.012
   12  0.013  0.007  0.008  0.027
   13  0.000  0.008  0.003  0.012
   14  0.001  0.001  0.005  0.007
   15  0.008  0.001  0.011  0.021
   16  0.012  0.007  0.008  0.026
   17  0.009  0.001  0.011  0.021
   18  0.034  0.004  0.002  0.041
   19  0.015  0.006  0.009  0.030
   20  0.033  0.004  0.003  0.040
   21  0.008  0.002  0.013  0.023
   22  0.001  0.010  0.003  0.013
   23  0.008  0.002  0.013  0.023
   24  0.005  0.000  0.006  0.011
   25  0.061  0.002  0.006  0.069
   26  0.016  0.006  0.009  0.031
   27  0.001  0.010  0.002  0.013
   28  0.000  0.004  0.006  0.011
   29  0.008  0.002  0.003  0.013
   30  0.013  0.003  0.004  0.020
   31  0.008  0.002  0.003  0.013
   32  0.001  0.001  0.004  0.005
   33  0.013  0.003  0.004  0.020
   34  0.001  0.001  0.004  0.006
   35  0.000  0.001  0.003  0.005
   36  0.000  0.000  0.007  0.007
tot    0.345  0.112  0.181  0.638
 
band     9 # energy   -5.59855338 # occ.  2.00000000
 
ion      s      p      d    tot
    1  0.000  0.003  0.005  0.007
    2  0.002  0.001  0.002  0.005
    3  0.002  0.001  0.002  0.006
    4  0.002  0.001  0.002  0.005
    5  0.000  0.001  0.002  0.002
    6  0.009  0.002  0.002  0.013
    7  0.003  0.001  0.002  0.006
    8  0.009  0.002  0.002  0.013
    9  0.000  0.001  0.004  0.005
   10  0.000  0.008  0.008  0.016
   11  0.001  0.003  0.004  0.008
   12  0.037  0.004  0.006  0.047
   13  0.001  0.003  0.004  0.008
   14  0.000  0.010  0.003  0.013
   15  0.026  0.003  0.005  0.034
   16  0.037  0.004  0.006  0.047
   17  0.026  0.003  0.005  0.034
   18  0.000  0.000  0.014  0.014
   19  0.046  0.004  0.007  0.057
   20  0.000  0.001  0.017  0.017
   21  0.024  0.004  0.006  0.034
   22  0.003  0.004  0.005  0.012
   23  0.025  0.004  0.006  0.035
   24  0.000  0.013  0.001  0.014
   25  0.000  0.007  0.010  0.018
   26  0.045  0.004  0.007  0.056
   27  0.004  0.003  0.005  0.012
   28  0.000  0.004  0.006  0.011
   29  0.007  0.002  0.004  0.012
   30  0.001  0.001  0.003  0.006
   31  0.007  0.002  0.004  0.013
   32  0.014  0.003  0.004  0.020
   33  0.001  0.001  0.003  0.006
   34  0.014  0.003  0.004  0.020
   35  0.000  0.001  0.003  0.005
   36  0.000  0.000  0.007  0.007
tot    0.345  0.112  0.181  0.638
 
band    10 # energy   -5.56847848 # occ.  2.00000000
 
ion      s      p      d    tot
    1  0.020  0.003  0.001  0.025
    2  0.000  0.002  0.004  0.006
    3  0.000  0.002  0.004  0.006
    4  0.000  0.002  0.004  0.006
    5  0.002  0.000  0.000  0.003
    6  0.000  0.002  0.004  0.006
    7  0.000  0.002  0.004  0.006
    8  0.000  0.002  0.004  0.006
    9  0.008  0.001  0.000  0.009
   10  0.030  0.006  0.005  0.041
   11  0.007  0.000  0.011  0.018
   12  0.030  0.006  0.005  0.042
   13  0.007  0.000  0.011  0.018
   14  0.006  0.000  0.011  0.018
   15  0.010  0.007  0.004  0.021
   16  0.030  0.006  0.005  0.042
   17  0.010  0.007  0.004  0.021
   18  0.010  0.007  0.004  0.021
   19  0.024  0.009  0.002  0.035
   20  0.000  0.003  0.010  0.013
   21  0.000  0.003  0.010  0.013
   22  0.024  0.002  0.009  0.034
   23  0.000  0.003  0.010  0.013
   24  0.023  0.002  0.009  0.034
   25  0.024  0.009  0.002  0.035
   26  0.024  0.009  0.002  0.035
   27  0.024  0.002  0.009  0.034
   28  0.019  0.003  0.000  0.023
   29  0.000  0.002  0.005  0.007
   30  0.000  0.002  0.005  0.007
   31  0.000  0.002  0.005  0.007
   32  0.000  0.002  0.005  0.007
   33  0.000  0.002  0.005  0.007
   34  0.000  0.002  0.005  0.007
   35  0.013  0.002  0.001  0.016
   36  0.000  0.000  0.000  0.000
tot    0.344  0.114  0.182  0.640
 
band    11 # energy   -5.55973168 # occ.  2.00000000
 
ion      s      p      d    tot
    1  0.000  0.000  0.003  0.003
    2  0.007  0.002  0.002  0.012
    3  0.007  0.002  0.002  0.012
    4  0.007  0.002  0.002  0.012
    5  0.000  0.003  0.006  0.008
    6  0.000  0.001  0.002  0.003
    7  0.007  0.002  0.002  0.011
    8  0.000  0.001  0.002  0.003
    9  0.000  0.002  0.003  0.005
   10  0.000  0.004  0.010  0.015
   11  0.045  0.004  0.006  0.055
   12  0.007  0.003  0.005  0.015
   13  0.044  0.004  0.007  0.054
   14  0.000  0.002  0.015  0.017
   15  0.016  0.003  0.005  0.025
   16  0.007  0.003  0.005  0.015
   17  0.016  0.004  0.005  0.025
   18  0.000  0.013  0.002  0.015
   19  0.003  0.003  0.005  0.011
   20  0.000  0.014  0.003  0.016
   21  0.024  0.004  0.006  0.034
   22  0.044  0.004  0.006  0.054
   23  0.025  0.004  0.006  0.035
   24  0.000  0.001  0.016  0.017
   25  0.000  0.006  0.009  0.015
   26  0.003  0.004  0.005  0.012
   27  0.045  0.004  0.006  0.055
   28  0.000  0.000  0.003  0.003
   29  0.008  0.002  0.003  0.012
   30  0.009  0.003  0.004  0.015
   31  0.007  0.002  0.003  0.012
   32  0.000  0.001  0.003  0.004
   33  0.008  0.003  0.004  0.015
   34  0.000  0.001  0.003  0.004
   35  0.000  0.003  0.006  0.009
   36  0.000  0.001  0.005  0.007
tot    0.341  0.114  0.181  0.636
 
band    12 # energy   -5.55956979 # occ.  2.00000000
 
ion      s      p      d    tot
    1  0.000  0.000  0.003  0.003
    2  0.002  0.001  0.002  0.005
    3  0.002  0.001  0.002  0.006
    4  0.003  0.001  0.002  0.006
    5  0.000  0.003  0.006  0.008
    6  0.010  0.002  0.002  0.015
    7  0.003  0.001  0.002  0.006
    8  0.010  0.002  0.002  0.015
    9  0.000  0.002  0.003  0.005
   10  0.010  0.003  0.003  0.016
   11  0.014  0.003  0.012  0.029
   12  0.002  0.004  0.008  0.015
   13  0.015  0.003  0.012  0.030
   14  0.060  0.004  0.004  0.068
   15  0.005  0.010  0.003  0.018
   16  0.002  0.004  0.008  0.015
   17  0.006  0.010  0.003  0.019
   18  0.021  0.000  0.006  0.028
   19  0.001  0.006  0.007  0.014
   20  0.033  0.000  0.007  0.041
   21  0.009  0.010  0.004  0.023
   22  0.015  0.002  0.013  0.030
   23  0.008  0.010  0.004  0.022
   24  0.060  0.005  0.003  0.067
   25  0.005  0.002  0.003  0.010
   26  0.001  0.005  0.007  0.014
   27  0.014  0.002  0.013  0.029
   28  0.000  0.000  0.003  0.003
   29  0.003  0.002  0.004  0.008
   30  0.002  0.001  0.003  0.006
   31  0.003  0.002  0.004  0.009
   32  0.011  0.003  0.003  0.017
   33  0.002  0.001  0.003  0.006
   34  0.011  0.003  0.003  0.016
   35  0.000  0.003  0.006  0.009
   36  0.000  0.001  0.005  0.007
tot    0.341  0.114  0.181  0.636
 
band    13 # energy   -5.47822500 # occ.  2.00000000
 
ion      s      p      d    tot
    1  0.000  0.000  0.001  0.001
    2  0.001  0.002  0.006  0.009
    3  0.001  0.002  0.006  0.009
    4  0.001  0.002  0.006  0.009
    5  0.035  0.003  0.000  0.038
    6  0.001  0.002  0.006  0.009
    7  0.001  0.002  0.006  0.009
    8  0.001  0.002  0.006  0.009
    9  0.006  0.002  0.003  0.012
   10  0.002  0.004  0.010  0.015
   11  0.021  0.010  0.003  0.034
   12  0.002  0.004  0.010  0.015
   13  0.021  0.010  0.003  0.034
   14  0.021  0.010  0.003  0.034
   15  0.029  0.002  0.011  0.042
   16  0.002  0.004  0.010  0.015
   17  0.029  0.002  0.011  0.042
   18  0.029  0.002  0.011  0.042
   19  0.007  0.001  0.010  0.018
   20  0.021  0.004  0.007  0.032
   21  0.021  0.004  0.007  0.032
   22  0.010  0.007  0.004  0.021
   23  0.021  0.004  0.007  0.032
   24  0.010  0.007  0.004  0.021
   25  0.007  0.001  0.010  0.018
   26  0.007  0.001  0.010  0.018
   27  0.010  0.007  0.004  0.021
   28  0.000  0.000  0.002  0.003
   29  0.002  0.001  0.003  0.006
   30  0.002  0.001  0.003  0.006
   31  0.002  0.001  0.003  0.006
   32  0.002  0.001  0.003  0.006
   33  0.002  0.001  0.003  0.006
   34  0.002  0.001  0.003  0.006
   35  0.001  0.001  0.001  0.003
   36  0.008  0.001  0.000  0.010
tot    0.336  0.109  0.194  0.639
 
band    14 # energy   -4.88098881 # occ.  2.00000000
 
ion      s      p      d    tot
    1  0.000  0.004  0.009  0.013
    2  0.004  0.002  0.005  0.010
    3  0.019  0.004  0.005  0.028
    4  0.003  0.002  0.005  0.010
    5  0.000  0.000  0.010  0.010
    6  0.006  0.002  0.005  0.013
    7  0.020  0.004  0.005  0.028
    8  0.007  0.002  0.005  0.013
    9  0.000  0.005  0.008  0.013
   10  0.011  0.001  0.006  0.018
   11  0.001  0.002  0.012  0.016
   12  0.003  0.004  0.013  0.020
   13  0.001  0.002  0.012  0.016
   14  0.004  0.001  0.007  0.012
   15  0.007  0.001  0.017  0.025
   16  0.003  0.004  0.013  0.020
   17  0.007  0.001  0.016  0.025
   18  0.028  0.005  0.004  0.037
   19  0.002  0.002  0.011  0.015
   20  0.000  0.001  0.010  0.011
   21  0.000  0.002  0.014  0.016
   22  0.002  0.002  0.022  0.026
   23  0.000  0.002  0.014  0.016
   24  0.007  0.003  0.002  0.013
   25  0.010  0.007  0.009  0.026
   26  0.003  0.002  0.011  0.016
   27  0.002  0.002  0.023  0.026
   28  0.000  0.004  0.008  0.012
   29  0.006  0.002  0.010  0.018
   30  0.028  0.003  0.011  0.042
   31  0.006  0.002  0.010  0.017
   32  0.008  0.002  0.009  0.020
   33  0.028  0.003  0.011  0.042
   34  0.008  0.002  0.009  0.020
   35  0.000  0.005  0.010  0.015
   36  0.000  0.000  0.018  0.018
tot    0.234  0.091  0.372  0.697
 
band    15 # energy   -4.88096195 # occ.  2.00000000
 
ion      s      p      d    tot
    1  0.000  0.004  0.009  0.013
    2  0.016  0.003  0.005  0.024
    3  0.000  0.001  0.005  0.006
    4  0.016  0.003  0.005  0.024
    5  0.000  0.000  0.010  0.010
    6  0.013  0.003  0.005  0.021
    7  0.000  0.001  0.005  0.006
    8  0.013  0.003  0.005  0.021
    9  0.000  0.005  0.008  0.013
   10  0.000  0.005  0.016  0.020
   11  0.003  0.002  0.009  0.013
   12  0.008  0.002  0.009  0.019
   13  0.003  0.002  0.009  0.013
   14  0.000  0.003  0.014  0.017
   15  0.021  0.003  0.008  0.033
   16  0.008  0.002  0.009  0.019
   17  0.021  0.003  0.008  0.033
   18  0.000  0.000  0.021  0.021
   19  0.008  0.005  0.010  0.022
   20  0.000  0.002  0.016  0.018
   21  0.000  0.001  0.012  0.013
   22  0.006  0.003  0.009  0.017
   23  0.000  0.001  0.012  0.013
   24  0.000  0.001  0.029  0.031
   25  0.000  0.000  0.012  0.012
   26  0.007  0.005  0.010  0.022
   27  0.006  0.003  0.009  0.017
   28  0.000  0.004  0.008  0.012
   29  0.022  0.003  0.010  0.035
   30  0.000  0.002  0.009  0.011
   31  0.022  0.003  0.010  0.035
   32  0.020  0.002  0.011  0.033
   33  0.000  0.002  0.009  0.011
   34  0.019  0.002  0.011  0.033
   35  0.000  0.005  0.010  0.015
   36  0.000  0.000  0.018  0.018
tot    0.234  0.091  0.372  0.697
 
band    16 # energy   -4.85032219 # occ.  2.00000000
 
ion      s      p      d    tot
    1  0.005  0.001  0.010  0.015
    2  0.006  0.001  0.010  0.016
    3  0.006  0.001  0.010  0.016
    4  0.006  0.001  0.010  0.016
    5  0.001  0.001  0.010  0.012
    6  0.006  0.001  0.010  0.016
    7  0.006  0.001  0.010  0.016
    8  0.006  0.001  0.010  0.016
    9  0.015  0.000  0.008  0.023
   10  0.009  0.000  0.025  0.034
   11  0.010  0.000  0.022  0.032
   12  0.009  0.000  0.025  0.034
   13  0.010  0.000  0.022  0.032
   14  0.010  0.000  0.021  0.032
   15  0.003  0.000  0.022  0.026
   16  0.009  0.000  0.025  0.034
   17  0.003  0.000  0.022  0.026
   18  0.003  0.000  0.022  0.026
   19  0.005  0.000  0.020  0.025
   20  0.009  0.001  0.026  0.035
   21  0.009  0.001  0.026  0.035
   22  0.003  0.000  0.019  0.022
   23  0.009  0.001  0.026  0.035
   24  0.003  0.000  0.019  0.022
   25  0.005  0.000  0.020  0.025
   26  0.005  0.000  0.020  0.025
   27  0.003  0.000  0.019  0.022
   28  0.001  0.001  0.006  0.008
   29  0.003  0.000  0.009  0.012
   30  0.003  0.000  0.009  0.012
   31  0.003  0.000  0.009  0.012
   32  0.003  0.000  0.009  0.012
   33  0.003  0.000  0.009  0.012
   34  0.003  0.000  0.009  0.012
   35  0.009  0.000  0.006  0.015
   36  0.000  0.001  0.008  0.009
tot    0.203  0.013  0.558  0.774
 
band    17 # energy   -4.81795083 # occ.  2.00000000
 
ion      s      p      d    tot
    1  0.034  0.003  0.000  0.037
    2  0.000  0.003  0.010  0.013
    3  0.000  0.003  0.010  0.013
    4  0.000  0.003  0.010  0.013
    5  0.000  0.000  0.001  0.001
    6  0.000  0.003  0.010  0.013
    7  0.000  0.003  0.010  0.013
    8  0.000  0.003  0.010  0.013
    9  0.026  0.004  0.001  0.031
   10  0.008  0.003  0.011  0.022
   11  0.002  0.000  0.015  0.016
   12  0.008  0.003  0.010  0.022
   13  0.002  0.000  0.015  0.016
   14  0.002  0.000  0.015  0.016
   15  0.008  0.003  0.015  0.027
   16  0.008  0.003  0.010  0.022
   17  0.008  0.003  0.015  0.027
   18  0.008  0.003  0.015  0.027
   19  0.003  0.003  0.020  0.027
   20  0.000  0.000  0.014  0.014
   21  0.000  0.000  0.014  0.014
   22  0.011  0.003  0.009  0.023
   23  0.000  0.000  0.014  0.014
   24  0.011  0.003  0.009  0.023
   25  0.003  0.003  0.020  0.027
   26  0.003  0.003  0.020  0.027
   27  0.011  0.003  0.009  0.023
   28  0.039  0.003  0.000  0.042
   29  0.000  0.003  0.014  0.017
   30  0.000  0.003  0.014  0.017
   31  0.000  0.003  0.014  0.017
   32  0.000  0.003  0.014  0.017
   33  0.000  0.003  0.014  0.017
   34  0.000  0.003  0.014  0.017
   35  0.028  0.004  0.001  0.032
   36  0.000  0.000  0.000  0.000
tot    0.225  0.090  0.391  0.706
 
band    18 # energy   -4.80175886 # occ.  2.00000000
 
ion      s      p      d    tot
    1  0.000  0.002  0.009  0.012
    2  0.004  0.002  0.005  0.011
    3  0.020  0.004  0.005  0.029
    4  0.002  0.002  0.005  0.009
    5  0.000  0.006  0.009  0.015
    6  0.007  0.002  0.005  0.014
    7  0.021  0.004  0.005  0.030
    8  0.010  0.003  0.005  0.017
    9  0.000  0.001  0.012  0.013
   10  0.000  0.000  0.018  0.018
   11  0.016  0.003  0.009  0.028
   12  0.010  0.003  0.011  0.025
   13  0.013  0.003  0.011  0.028
   14  0.000  0.002  0.026  0.028
   15  0.000  0.001  0.010  0.011
   16  0.012  0.004  0.010  0.026
   17  0.000  0.001  0.011  0.012
   18  0.000  0.004  0.017  0.021
   19  0.002  0.001  0.010  0.013
   20  0.000  0.001  0.032  0.033
   21  0.014  0.004  0.014  0.031
   22  0.006  0.003  0.011  0.019
   23  0.016  0.004  0.010  0.031
   24  0.000  0.001  0.013  0.014
   25  0.000  0.003  0.023  0.026
   26  0.002  0.001  0.012  0.015
   27  0.007  0.003  0.010  0.020
   28  0.000  0.002  0.013  0.015
   29  0.005  0.002  0.007  0.013
   30  0.019  0.004  0.008  0.031
   31  0.003  0.002  0.006  0.011
   32  0.005  0.002  0.006  0.013
   33  0.019  0.004  0.008  0.031
   34  0.007  0.002  0.007  0.016
   35  0.000  0.001  0.011  0.012
   36  0.000  0.003  0.008  0.011
tot    0.219  0.089  0.396  0.704
 
band    19 # energy   -4.80174847 # occ.  2.00000000
 
ion      s      p      d    tot
    1  0.000  0.002  0.009  0.012
    2  0.017  0.003  0.005  0.026
    3  0.001  0.002  0.005  0.008
    4  0.019  0.004  0.005  0.028
    5  0.000  0.006  0.009  0.015
    6  0.014  0.003  0.005  0.023
    7  0.000  0.002  0.005  0.007
    8  0.011  0.003  0.005  0.020
    9  0.000  0.001  0.012  0.013
   10  0.015  0.004  0.008  0.028
   11  0.004  0.002  0.022  0.028
   12  0.005  0.002  0.015  0.021
   13  0.006  0.002  0.019  0.028
   14  0.019  0.004  0.005  0.028
   15  0.000  0.003  0.015  0.019
   16  0.003  0.001  0.016  0.020
   17  0.000  0.003  0.014  0.017
   18  0.000  0.000  0.008  0.009
   19  0.000  0.003  0.020  0.023
   20  0.020  0.005  0.005  0.030
   21  0.006  0.002  0.024  0.032
   22  0.003  0.002  0.012  0.016
   23  0.004  0.002  0.027  0.033
   24  0.008  0.004  0.010  0.022
   25  0.002  0.000  0.007  0.009
   26  0.001  0.002  0.018  0.021
   27  0.002  0.001  0.012  0.015
   28  0.000  0.002  0.013  0.015
   29  0.014  0.003  0.008  0.025
   30  0.000  0.001  0.006  0.008
   31  0.016  0.003  0.008  0.028
   32  0.014  0.003  0.008  0.025
   33  0.000  0.001  0.006  0.007
   34  0.012  0.003  0.008  0.022
   35  0.000  0.001  0.011  0.012
   36  0.000  0.003  0.008  0.011
tot    0.219  0.089  0.396  0.704
 
band    20 # energy   -4.64279004 # occ.  2.00000000
 
ion      s      p      d    tot
    1  0.015  0.002  0.000  0.017
    2  0.000  0.003  0.012  0.015
    3  0.000  0.003  0.012  0.015
    4  0.000  0.003  0.012  0.015
    5  0.045  0.004  0.000  0.049
    6  0.000  0.003  0.012  0.014
    7  0.000  0.003  0.012  0.015
    8  0.000  0.003  0.012  0.014
    9  0.005  0.001  0.001  0.006
   10  0.001  0.001  0.028  0.030
   11  0.004  0.004  0.020  0.029
   12  0.001  0.001  0.028  0.030
   13  0.004  0.004  0.020  0.029
   14  0.004  0.004  0.020  0.029
   15  0.003  0.001  0.009  0.013
   16  0.001  0.001  0.028  0.030
   17  0.003  0.001  0.009  0.013
   18  0.003  0.001  0.009  0.013
   19  0.010  0.001  0.022  0.033
   20  0.012  0.004  0.007  0.023
   21  0.012  0.004  0.007  0.023
   22  0.002  0.002  0.017  0.021
   23  0.012  0.004  0.007  0.023
   24  0.002  0.002  0.017  0.021
   25  0.010  0.001  0.022  0.033
   26  0.010  0.001  0.022  0.033
   27  0.002  0.002  0.017  0.021
   28  0.003  0.002  0.005  0.009
   29  0.001  0.002  0.011  0.014
   30  0.001  0.002  0.011  0.014
   31  0.001  0.002  0.011  0.014
   32  0.001  0.002  0.011  0.014
   33  0.001  0.002  0.011  0.014
   34  0.001  0.002  0.011  0.014
   35  0.004  0.001  0.001  0.006
   36  0.017  0.002  0.000  0.019
tot    0.192  0.079  0.451  0.722
 
band    21 # energy   -4.22817618 # occ.  2.00000000
 
ion      s      p      d    tot
    1  0.000  0.001  0.027  0.027
    2  0.015  0.002  0.007  0.024
    3  0.006  0.001  0.007  0.014
    4  0.015  0.002  0.007  0.024
    5  0.000  0.001  0.014  0.015
    6  0.002  0.001  0.008  0.011
    7  0.006  0.001  0.007  0.014
    8  0.002  0.001  0.008  0.011
    9  0.000  0.003  0.003  0.006
   10  0.000  0.000  0.060  0.060
   11  0.000  0.003  0.016  0.019
   12  0.000  0.000  0.019  0.019
   13  0.000  0.003  0.015  0.019
   14  0.000  0.000  0.006  0.006
   15  0.000  0.005  0.015  0.020
   16  0.000  0.000  0.018  0.019
   17  0.000  0.005  0.015  0.020
   18  0.000  0.000  0.026  0.026
   19  0.005  0.003  0.015  0.023
   20  0.000  0.000  0.057  0.057
   21  0.000  0.000  0.023  0.024
   22  0.003  0.002  0.014  0.019
   23  0.000  0.000  0.023  0.023
   24  0.000  0.000  0.016  0.016
   25  0.000  0.000  0.021  0.021
   26  0.005  0.003  0.015  0.023
   27  0.003  0.002  0.014  0.019
   28  0.000  0.001  0.007  0.008
   29  0.009  0.000  0.025  0.034
   30  0.000  0.001  0.017  0.017
   31  0.009  0.000  0.025  0.034
   32  0.011  0.000  0.022  0.034
   33  0.000  0.001  0.017  0.017
   34  0.011  0.000  0.022  0.033
   35  0.000  0.001  0.011  0.012
   36  0.000  0.000  0.029  0.029
tot    0.103  0.044  0.652  0.799
 
band    22 # energy   -4.22809711 # occ.  2.00000000
 
ion      s      p      d    tot
    1  0.000  0.001  0.027  0.027
    2  0.000  0.001  0.007  0.008
    3  0.010  0.001  0.008  0.019
    4  0.000  0.001  0.007  0.008
    5  0.000  0.001  0.014  0.015
    6  0.013  0.001  0.007  0.022
    7  0.010  0.001  0.008  0.019
    8  0.013  0.001  0.007  0.022
    9  0.000  0.003  0.003  0.006
   10  0.000  0.000  0.004  0.005
   11  0.000  0.001  0.009  0.010
   12  0.000  0.000  0.046  0.046
   13  0.000  0.001  0.009  0.010
   14  0.000  0.004  0.019  0.023
   15  0.000  0.002  0.022  0.024
   16  0.000  0.000  0.047  0.047