 vasp.6.2.0 18Jan21 (build Jun 12 2021 23:27:24) complex                        
  
 executed on             LinuxIFC date 2022.05.27  05:29:42
 running on   28 total cores
 distrk:  each k-point on   28 cores,    1 groups
 distr:  one band on NCORE=   1 cores,   28 groups


--------------------------------------------------------------------------------------------------------


 INCAR:
   ISMEAR = -5
   SIGMA = 0.1
   ISPIN = 1
   EDIFF = 1.d-5
   EDIFFG = -0.01
   NSW = 0
   NELM = 150
   ENCUT = 500
   ISIF = 2
   IBRION = 2
   LREAL = Auto
   ALGO = Fast
   ICHARG = 11
   LORBIT = 10
   LCHARG = .F.
   LWAVE = .F.

 POTCAR:    PAW_PBE Ag 02Apr2005                  
 POTCAR:    PAW_PBE Mn 06Sep2000                  
 POTCAR:    PAW_PBE H 15Jun2001                   
 -----------------------------------------------------------------------------
|                                                                             |
|           W    W    AA    RRRRR   N    N  II  N    N   GGGG   !!!           |
|           W    W   A  A   R    R  NN   N  II  NN   N  G    G  !!!           |
|           W    W  A    A  R    R  N N  N  II  N N  N  G       !!!           |
|           W WW W  AAAAAA  RRRRR   N  N N  II  N  N N  G  GGG   !            |
|           WW  WW  A    A  R   R   N   NN  II  N   NN  G    G                |
|           W    W  A    A  R    R  N    N  II  N    N   GGGG   !!!           |
|                                                                             |
|     For optimal performance we recommend to set                             |
|       NCORE = 2 up to number-of-cores-per-socket                            |
|     NCORE specifies how many cores store one orbital (NPAR=cpu/NCORE).      |
|     This setting can greatly improve the performance of VASP for DFT.       |
|     The default, NCORE=1 might be grossly inefficient on modern             |
|     multi-core architectures or massively parallel machines. Do your        |
|     own testing! More info at https://www.vasp.at/wiki/index.php/NCORE      |
|     Unfortunately you need to use the default for GW and RPA                |
|     calculations (for HF NCORE is supported but not extensively tested      |
|     yet).                                                                   |
|                                                                             |
 -----------------------------------------------------------------------------

 POTCAR:    PAW_PBE Ag 02Apr2005                  
   VRHFIN =Ag : s1 d10                                                                              
   LEXCH  = PE                                                                                      
   EATOM  =  1037.2675 eV,   76.2370 Ry                                                             
                                                                                                    
   TITEL  = PAW_PBE Ag 02Apr2005                                                                    
   LULTRA =        F    use ultrasoft PP ?                                                          
   IUNSCR =        1    unscreen: 0-lin 1-nonlin 2-no                                               
   RPACOR =    2.000    partial core radius                                                         
   POMASS =  107.868; ZVAL   =   11.000    mass and valenz                                          
   RCORE  =    2.500    outmost cutoff radius                                                       
   RWIGS  =    2.840; RWIGS  =    1.503    wigner-seitz radius (au A)                               
   ENMAX  =  249.844; ENMIN  =  187.383 eV                                                          
   ICORE  =        3    local potential                                                             
   LCOR   =        T    correct aug charges                                                         
   LPAW   =        T    paw PP                                                                      
   EAUG   =  412.496                                                                                
   DEXC   =    0.000                                                                                
   RMAX   =    2.560    core radius for proj-oper                                                   
   RAUG   =    1.300    factor for augmentation sphere                                              
   RDEP   =    2.576    radius for radial grids                                                     
   RDEPT  =    2.072    core radius for aug-charge                                                  
                                                                                                    
   Atomic configuration                                                                             
   12 entries                                                                                       
     n  l   j            E        occ.                                                              
     1  0  0.50    -25324.9161   2.0000                                                             
     2  0  0.50     -3728.5341   2.0000                                                             
     2  1  1.50     -3344.0404   6.0000                                                             
     3  0  0.50      -683.5581   2.0000                                                             
     3  1  1.50      -557.3225   6.0000                                                             
     3  2  2.50      -358.3853  10.0000                                                             
     4  0  0.50       -95.0341   2.0000                                                             
     4  1  1.50       -58.5511   6.0000                                                             
     4  2  2.50        -7.4440  10.0000                                                             
     5  0  0.50        -4.4045   1.0000                                                             
     5  1  0.50        -1.3606   0.0000                                                             
     4  3  2.50        -1.3606   0.0000                                                             
   Description                                                                                      
     l       E           TYP  RCUT    TYP  RCUT                                                     
     2     -7.4439781     23  2.400                                                                 
     2     -8.8045607     23  2.400                                                                 
     0     -4.4044681     23  2.400                                                                 
     0      1.9520038     23  2.400                                                                 
     1     -1.3605826     23  2.500                                                                 
     1     27.2116520     23  2.500                                                                 
     3     -4.0817478     23  2.400                                                                 
  local pseudopotential read in
  partial core-charges read in
  partial kinetic energy density read in
  atomic valenz-charges read in
  non local Contribution for L=           2  read in
    real space projection operators read in
  non local Contribution for L=           2  read in
    real space projection operators read in
  non local Contribution for L=           0  read in
    real space projection operators read in
  non local Contribution for L=           0  read in
    real space projection operators read in
  non local Contribution for L=           1  read in
    real space projection operators read in
  non local Contribution for L=           1  read in
    real space projection operators read in
    PAW grid and wavefunctions read in
 
   number of l-projection  operators is LMAX  =           6
   number of lm-projection operators is LMMAX =          18
 
 POTCAR:    PAW_PBE Mn 06Sep2000                  
   VRHFIN =Mn: d6 s1                                                                                
   LEXCH  = PE                                                                                      
   EATOM  =   416.7541 eV,   30.6306 Ry                                                             
                                                                                                    
   TITEL  = PAW_PBE Mn 06Sep2000                                                                    
   LULTRA =        F    use ultrasoft PP ?                                                          
   IUNSCR =        1    unscreen: 0-lin 1-nonlin 2-no                                               
   RPACOR =    2.000    partial core radius                                                         
   POMASS =   54.938; ZVAL   =    7.000    mass and valenz                                          
   RCORE  =    2.300    outmost cutoff radius                                                       
   RWIGS  =    2.500; RWIGS  =    1.323    wigner-seitz radius (au A)                               
   ENMAX  =  269.864; ENMIN  =  202.398 eV                                                          
   RCLOC  =    1.725    cutoff for local pot                                                        
   LCOR   =        T    correct aug charges                                                         
   LPAW   =        T    paw PP                                                                      
   EAUG   =  500.711                                                                                
   DEXC   =    0.000                                                                                
   RMAX   =    2.343    core radius for proj-oper                                                   
   RAUG   =    1.300    factor for augmentation sphere                                              
   RDEP   =    2.338    radius for radial grids                                                     
   RDEPT  =    1.911    core radius for aug-charge                                                  
                                                                                                    
   Atomic configuration                                                                             
    9 entries                                                                                       
     n  l   j            E        occ.                                                              
     1  0  0.50     -6424.8288   2.0000                                                             
     2  0  0.50      -739.1154   2.0000                                                             
     2  1  1.50      -625.3949   6.0000                                                             
     3  0  0.50       -81.6100   2.0000                                                             
     3  1  1.50       -50.4667   6.0000                                                             
     3  2  2.50        -3.3745   6.0000                                                             
     4  0  0.50        -4.1331   1.0000                                                             
     4  1  0.50        -4.0817   0.0000                                                             
     4  3  2.50        -1.3606   0.0000                                                             
   Description                                                                                      
     l       E           TYP  RCUT    TYP  RCUT                                                     
     2     -3.3744664     23  2.300                                                                 
     2     -4.7350490     23  2.300                                                                 
     0     -4.1331408     23  2.300                                                                 
     0      7.6656614     23  2.300                                                                 
     1     -2.7211652     23  2.300                                                                 
     1     20.4087390     23  2.300                                                                 
  local pseudopotential read in
  partial core-charges read in
  partial kinetic energy density read in
  atomic valenz-charges read in
  non local Contribution for L=           2  read in
    real space projection operators read in
  non local Contribution for L=           2  read in
    real space projection operators read in
  non local Contribution for L=           0  read in
    real space projection operators read in
  non local Contribution for L=           0  read in
    real space projection operators read in
  non local Contribution for L=           1  read in
    real space projection operators read in
  non local Contribution for L=           1  read in
    real space projection operators read in
    PAW grid and wavefunctions read in
 
   number of l-projection  operators is LMAX  =           6
   number of lm-projection operators is LMMAX =          18
 
 POTCAR:    PAW_PBE H 15Jun2001                   
   VRHFIN =H: ultrasoft test                                                                        
   LEXCH  = PE                                                                                      
   EATOM  =    12.4884 eV,    0.9179 Ry                                                             
                                                                                                    
   TITEL  = PAW_PBE H 15Jun2001                                                                     
   LULTRA =        F    use ultrasoft PP ?                                                          
   IUNSCR =        0    unscreen: 0-lin 1-nonlin 2-no                                               
   RPACOR =    0.000    partial core radius                                                         
   POMASS =    1.000; ZVAL   =    1.000    mass and valenz                                          
   RCORE  =    1.100    outmost cutoff radius                                                       
   RWIGS  =    0.700; RWIGS  =    0.370    wigner-seitz radius (au A)                               
   ENMAX  =  250.000; ENMIN  =  200.000 eV                                                          
   RCLOC  =    0.701    cutoff for local pot                                                        
   LCOR   =        T    correct aug charges                                                         
   LPAW   =        T    paw PP                                                                      
   EAUG   =  400.000                                                                                
   RMAX   =    1.123    core radius for proj-oper                                                   
   RAUG   =    1.200    factor for augmentation sphere                                              
   RDEP   =    1.112    radius for radial grids                                                     
   RDEPT  =    0.926    core radius for aug-charge                                                  
                                                                                                    
   Atomic configuration                                                                             
    2 entries                                                                                       
     n  l   j            E        occ.                                                              
     1  0  0.50        -6.4927   1.0000                                                             
     2  1  0.50        -3.4015   0.0000                                                             
   Description                                                                                      
     l       E           TYP  RCUT    TYP  RCUT                                                     
     0     -6.4927494     23  1.100                                                                 
     0      6.8029130     23  1.100                                                                 
     1     -4.0817478     23  1.100                                                                 
  local pseudopotential read in
  atomic valenz-charges read in
  non local Contribution for L=           0  read in
    real space projection operators read in
  non local Contribution for L=           0  read in
    real space projection operators read in
  non local Contribution for L=           1  read in
    real space projection operators read in
    PAW grid and wavefunctions read in
 
   number of l-projection  operators is LMAX  =           3
   number of lm-projection operators is LMMAX =           5
 
 Optimization of the real space projectors (new method)

 maximal supplied QI-value         = 15.12
 optimisation between [QCUT,QGAM] = [ 11.34, 22.83] = [ 36.00,145.93] Ry 
 Optimized for a Real-space Cutoff    1.43 Angstroem

   l    n(q)    QCUT    max X(q) W(low)/X(q) W(high)/X(q)  e(spline) 
   2      9    11.338    53.897    0.16E-03    0.20E-03    0.28E-06
   2      9    11.338    52.416    0.16E-03    0.20E-03    0.29E-06
   0     10    11.338   122.045    0.31E-04    0.76E-04    0.15E-06
   0     10    11.338    73.629    0.30E-04    0.72E-04    0.15E-06
   1      9    11.338    15.255    0.20E-03    0.19E-04    0.17E-06
   1      9    11.338     9.562    0.16E-03    0.15E-04    0.14E-06
 Optimization of the real space projectors (new method)

 maximal supplied QI-value         = 16.25
 optimisation between [QCUT,QGAM] = [ 11.38, 22.75] = [ 36.24,144.96] Ry 
 Optimized for a Real-space Cutoff    1.39 Angstroem

   l    n(q)    QCUT    max X(q) W(low)/X(q) W(high)/X(q)  e(spline) 
   2      8    11.376   110.144    0.49E-03    0.27E-04    0.26E-06
   2      8    11.376   103.200    0.49E-03    0.28E-04    0.27E-06
   0      9    11.376    68.437    0.57E-04    0.92E-04    0.15E-06
   0      9    11.376    33.971    0.51E-04    0.83E-04    0.14E-06
   1      9    11.376    17.065    0.34E-03    0.68E-04    0.14E-06
   1      9    11.376    12.540    0.27E-03    0.59E-04    0.11E-06
 Optimization of the real space projectors (new method)

 maximal supplied QI-value         = 34.20
 optimisation between [QCUT,QGAM] = [ 11.29, 22.57] = [ 35.68,142.71] Ry 
 Optimized for a Real-space Cutoff    1.16 Angstroem

   l    n(q)    QCUT    max X(q) W(low)/X(q) W(high)/X(q)  e(spline) 
   0      8    11.287    19.460    0.40E-03    0.73E-03    0.16E-06
   0      8    11.287    12.209    0.38E-03    0.70E-03    0.15E-06
   1      7    11.287     4.655    0.22E-03    0.25E-04    0.22E-06
  PAW_PBE Ag 02Apr2005                  :
 energy of atom  1       EATOM=-1037.2675
 kinetic energy error for atom=    0.0052 (will be added to EATOM!!)
  PAW_PBE Mn 06Sep2000                  :
 energy of atom  2       EATOM= -416.7541
 kinetic energy error for atom=    0.0024 (will be added to EATOM!!)
  PAW_PBE H 15Jun2001                   :
 energy of atom  3       EATOM=  -12.4884
 kinetic energy error for atom=    0.0020 (will be added to EATOM!!)
 
 
 POSCAR: Ag-Mn-H2
  positions in direct lattice
  velocities in cartesian coordinates
 exchange correlation table for  LEXCH =        8
   RHO(1)=    0.500       N(1)  =     2000
   RHO(2)=  100.500       N(2)  =     4000

 VTST: version 3.2, (02/03/18)

 CHAIN: initializing optimizer
 
 OPT: Using VASP Conjugate-Gradient optimizer
 CHAIN: Read ICHAIN            0
 
 POSCAR: Ag-Mn-H2
  positions in direct lattice
  velocities in cartesian coordinates
 


--------------------------------------------------------------------------------------------------------


 ion  position               nearest neighbor table
   1  0.000  0.000  0.238-   2 2.93   8 2.93   7 2.93   6 2.93   4 2.93  12 2.93  16 2.93  10 2.93
                             3 2.93
   2  0.333  0.000  0.238-   1 2.93   8 2.93   9 2.93   3 2.93   4 2.93   5 2.93  10 2.93  17 2.93
                            11 2.93
   3  0.667  0.000  0.238-   9 2.93   2 2.93   5 2.93  11 2.93   7 2.93  18 2.93   1 2.93   6 2.93
                            12 2.93
   4  0.000  0.333  0.238-   5 2.93   6 2.93   2 2.93   1 2.93   7 2.93  13 2.93  15 2.93   9 2.93
                            10 2.93
   5  0.333  0.333  0.238-   4 2.93   3 2.93   7 2.93   2 2.93   8 2.93  14 2.93  13 2.93  11 2.93
                             6 2.93
   6  0.667  0.333  0.238-   4 2.93   9 2.93   1 2.93  15 2.93   8 2.93  12 2.93   3 2.93   5 2.93
                            14 2.93
   7  0.000  0.667  0.238-   8 2.93   1 2.93   5 2.93   3 2.93   4 2.93  16 2.93  18 2.93  13 2.93
                             9 2.93
   8  0.333  0.667  0.238-   7 2.93   1 2.93   2 2.93   9 2.93   5 2.93  16 2.93   6 2.93  17 2.93
                            14 2.93
   9  0.667  0.667  0.238-   3 2.93   2 2.93   8 2.93   6 2.93  17 2.93   4 2.93  15 2.93   7 2.93
                            18 2.93
  10  0.111  0.111  0.346-  20 2.92  19 2.93  26 2.93  12 2.93  16 2.93  15 2.93  17 2.93  13 2.93
                            11 2.93   2 2.93   1 2.93   4 2.93
  11  0.444  0.111  0.346-  21 2.90  20 2.90  27 2.92  14 2.93  17 2.93  18 2.93   3 2.93  12 2.93
                            13 2.93  10 2.93   5 2.93   2 2.93
  12  0.778  0.111  0.346-  21 2.92  25 2.93  19 2.93  10 2.93  16 2.93  18 2.93  15 2.93  11 2.93
                             1 2.93  14 2.93   6 2.93   3 2.93
  13  0.111  0.444  0.346-  20 2.90  23 2.90  22 2.92  15 2.93  14 2.93  18 2.93  10 2.93  11 2.93
                            16 2.93   4 2.93   5 2.93   7 2.93
  14  0.444  0.444  0.346-  23 2.90  21 2.90  24 2.92  13 2.93  11 2.93  16 2.93   5 2.93  12 2.93
                            17 2.93   8 2.93  15 2.93   6 2.93
  15  0.778  0.444  0.346-  24 2.92  22 2.92  19 2.92  13 2.93  10 2.93  12 2.93  17 2.93  18 2.93
                             4 2.93   6 2.93   9 2.93  14 2.93
  16  0.111  0.778  0.346-  23 2.92  26 2.93  25 2.93  18 2.93  12 2.93  10 2.93  14 2.93  17 2.93
                            13 2.93   7 2.93   8 2.93   1 2.93
  17  0.444  0.778  0.346-  27 2.92  24 2.92  26 2.92  11 2.93  10 2.93   9 2.93  18 2.93  15 2.93
                            16 2.93   2 2.93  14 2.93   8 2.93
  18  0.778  0.778  0.346-  22 2.92  27 2.92  25 2.92  16 2.93  12 2.93  13 2.93  11 2.93  17 2.93
                            15 2.93   7 2.93   3 2.93   9 2.93
  19  0.889  0.223  0.454-  28 2.91  15 2.92  10 2.93  12 2.93  24 2.93  22 2.93  26 2.94  25 2.94
                            20 2.94  21 2.94  32 2.95  31 2.95
  20  0.223  0.223  0.453-  36 2.71  31 2.90  29 2.90  13 2.90  11 2.90  21 2.91  23 2.91  10 2.92
                            27 2.93  22 2.93  19 2.94  26 2.94
  21  0.554  0.223  0.453-  36 2.71  30 2.90  32 2.90  11 2.90  14 2.90  20 2.91  23 2.91  12 2.92
                            27 2.93  24 2.93  25 2.94  19 2.94
  22  0.888  0.556  0.453-  35 2.91  18 2.92  15 2.92  13 2.92  24 2.93  27 2.93  33 2.93  31 2.93
                            25 2.93  19 2.93  23 2.93  20 2.93
  23  0.223  0.554  0.453-  36 2.71  34 2.90  33 2.90  14 2.90  13 2.90  21 2.91  20 2.91  16 2.92
                            22 2.93  24 2.93  26 2.94  25 2.94
  24  0.556  0.556  0.453-  35 2.91  15 2.92  17 2.92  14 2.92  27 2.93  22 2.93  32 2.93  34 2.93
                            19 2.93  26 2.93  23 2.93  21 2.93
  25  0.889  0.889  0.454-  28 2.91  18 2.92  16 2.93  12 2.93  22 2.93  27 2.93  26 2.94  19 2.94
                            23 2.94  21 2.94  33 2.95  30 2.95
  26  0.223  0.889  0.454-  28 2.91  17 2.92  16 2.93  10 2.93  27 2.93  24 2.93  25 2.94  19 2.94
                            23 2.94  20 2.94  34 2.95  29 2.95
  27  0.556  0.888  0.453-  35 2.91  17 2.92  18 2.92  11 2.92  24 2.93  22 2.93  29 2.93  30 2.93
                            26 2.93  25 2.93  20 2.93  21 2.93
  28  0.000  0.000  0.560-  26 2.91  25 2.91  19 2.91  29 2.97  34 2.97  33 2.97  32 2.97  31 2.97
                            30 2.97
  29  0.333  0.008  0.561-  31 2.86  30 2.86  36 2.87  20 2.90  27 2.93  26 2.95  28 2.97  35 2.97
                            34 3.07
  30  0.659  0.008  0.561-  32 2.86  29 2.86  36 2.87  21 2.90  27 2.93  25 2.95  28 2.97  35 2.97
                            33 3.07
  31  0.008  0.333  0.561-  29 2.86  33 2.86  36 2.87  20 2.90  22 2.93  19 2.95  28 2.97  35 2.97
                            32 3.07
  32  0.659  0.333  0.561-  30 2.86  34 2.86  36 2.87  21 2.90  24 2.93  19 2.95  28 2.97  35 2.97
                            31 3.07
  33  0.008  0.659  0.561-  34 2.86  31 2.86  36 2.87  23 2.90  22 2.93  25 2.95  28 2.97  35 2.97
                            30 3.07
  34  0.333  0.659  0.561-  33 2.86  32 2.86  36 2.87  23 2.90  24 2.93  26 2.95  28 2.97  35 2.97
                            29 3.07
  35  0.667  0.667  0.560-  24 2.91  27 2.91  22 2.91  32 2.97  30 2.97  29 2.97  34 2.97  31 2.97
                            33 2.97
  36  0.333  0.333  0.549-  38 1.62  37 1.62  21 2.71  20 2.71  23 2.71  31 2.87  30 2.87  33 2.87
                            29 2.87  34 2.87  32 2.87
  37  0.281  0.332  0.618-  36 1.62
  38  0.388  0.332  0.618-  36 1.62
 
  LATTYP: Found a hexagonal cell.
 ALAT       =     8.7913665772
 C/A-ratio  =     2.5227160501
  
  Lattice vectors:
  
 A1 = (  -4.3956832886,  -7.6135467898,   0.0000000000)
 A2 = (   8.7913665771,   0.0000000000,   0.0000000000)
 A3 = (   0.0000000000,   0.0000000000,  22.1781215668)


Analysis of symmetry for initial positions (statically):
=====================================================================
 Subroutine PRICEL returns:
 Original cell was already a primitive cell.
 

 Routine SETGRP: Setting up the symmetry group for a 
 hexagonal supercell.


 Subroutine GETGRP returns: Found  2 space group operations
 (whereof  2 operations were pure point group operations)
 out of a pool of 24 trial point group operations.


The static configuration has the point symmetry C_1h.


Analysis of symmetry for dynamics (positions and initial velocities):
=====================================================================
 Subroutine PRICEL returns:
 Original cell was already a primitive cell.
 

 Routine SETGRP: Setting up the symmetry group for a 
 hexagonal supercell.


 Subroutine GETGRP returns: Found  2 space group operations
 (whereof  2 operations were pure point group operations)
 out of a pool of 24 trial point group operations.


The dynamic configuration has the point symmetry C_1h.


Analysis of constrained symmetry for selective dynamics:
=====================================================================
 Subroutine PRICEL returns:
 Original cell was already a primitive cell.
 

 Routine SETGRP: Setting up the symmetry group for a 
 hexagonal supercell.


 Subroutine GETGRP returns: Found  2 space group operations
 (whereof  2 operations were pure point group operations)
 out of a pool of 24 trial point group operations.


The constrained configuration has the point symmetry C_1h.


 Subroutine INISYM returns: Found  2 space group operations
 (whereof  2 operations are pure point group operations),
 and found     1 'primitive' translations


----------------------------------------------------------------------------------------

                                     Primitive cell                                     

  volume of cell :    1484.4589

  direct lattice vectors                    reciprocal lattice vectors
     8.791366577  0.000000000  0.000000000     0.113747958 -0.065672414  0.000000000
     4.395683289  7.613546790  0.000000000     0.000000000  0.131344829  0.000000000
     0.000000000  0.000000000 22.178121567     0.000000000  0.000000000  0.045089481

  length of vectors
     8.791366577  8.791366577 22.178121567     0.131344829  0.131344829  0.045089481

  position of ions in fractional coordinates (direct lattice)
     0.000000000  0.000000000  0.238171124
     0.333333313  0.000000000  0.238171124
     0.666666627  0.000000000  0.238171124
     0.000000000  0.333333343  0.238171124
     0.333333313  0.333333343  0.238171124
     0.666666687  0.333333343  0.238171124
     0.000000000  0.666666687  0.238171124
     0.333333313  0.666666687  0.238171124
     0.666666627  0.666666687  0.238171124
     0.111111104  0.111111112  0.346057051
     0.444444448  0.111111112  0.346057051
     0.777777791  0.111111112  0.346057051
     0.111111097  0.444444448  0.346057051
     0.444444418  0.444444448  0.346057051
     0.777777791  0.444444448  0.346057051
     0.111111104  0.777777791  0.346057051
     0.444444448  0.777777791  0.346057051
     0.777777791  0.777777791  0.346057051
     0.888714883  0.222570249  0.453663014
     0.223066128  0.223066143  0.452714222
     0.553867683  0.223066143  0.452714222
     0.888483964  0.555758048  0.453313683
     0.223066143  0.553867743  0.452714222
     0.555758048  0.555758048  0.453313683
     0.888714883  0.888714883  0.453663014
     0.222570219  0.888714883  0.453663014
     0.555757988  0.888483964  0.453313683
     0.000000000  0.000000000  0.560253222
     0.333276683  0.007879607  0.560847750
     0.658843650  0.007879607  0.560847750
     0.007879607  0.333276713  0.560847750
     0.658843710  0.333276713  0.560847750
     0.007879607  0.658843710  0.560847750
     0.333276683  0.658843710  0.560847750
     0.666666627  0.666666687  0.560223949
     0.333333313  0.333333343  0.548724862
     0.280513662  0.331555034  0.618462973
     0.387931273  0.331555034  0.618462973

  ion indices of the primitive-cell ions
   primitive index   ion index
                 1           1
                 2           2
                 3           3
                 4           4
                 5           5
                 6           6
                 7           7
                 8           8
                 9           9
                10          10
                11          11
                12          12
                13          13
                14          14
                15          15
                16          16
                17          17
                18          18
                19          19
                20          20
                21          21
                22          22
                23          23
                24          24
                25          25
                26          26
                27          27
                28          28
                29          29
                30          30
                31          31
                32          32
                33          33
                34          34
                35          35
                36          36
                37          37
                38          38

----------------------------------------------------------------------------------------

 
 
 KPOINTS: Automatic mesh                          

Automatic generation of k-mesh.
 Grid dimensions read from file:
 generate k-points for:    8    8    1

 Generating k-lattice:

  Cartesian coordinates                     Fractional coordinates (reciprocal lattice)
     0.014218495 -0.008209052  0.000000000     0.125000000  0.000000000  0.000000000
     0.000000000  0.016418104  0.000000000     0.000000000  0.125000000  0.000000000
     0.000000000  0.000000000  0.045089481     0.000000000  0.000000000  1.000000000

  Length of vectors
     0.016418104  0.016418104  0.045089481

  Shift w.r.t. Gamma in fractional coordinates (k-lattice)
     0.000000000  0.000000000  0.000000000

 TETIRR: Found    100 inequivalent tetrahedra from      384
 
 Subroutine IBZKPT returns following result:
 ===========================================
 
 Found     21 irreducible k-points:
 
 Following reciprocal coordinates:
            Coordinates               Weight
  0.000000  0.000000  0.000000      1.000000
  0.125000 -0.000000  0.000000      4.000000
  0.000000  0.125000  0.000000      2.000000
  0.250000 -0.000000  0.000000      4.000000
  0.000000  0.250000  0.000000      2.000000
  0.375000 -0.000000  0.000000      4.000000
  0.000000  0.375000  0.000000      2.000000
  0.500000 -0.000000  0.000000      2.000000
  0.000000  0.500000  0.000000      1.000000
  0.250000  0.125000  0.000000      2.000000
  0.125000  0.250000  0.000000      4.000000
  0.375000  0.125000  0.000000      4.000000
  0.250000  0.375000  0.000000      4.000000
 -0.125000  0.250000  0.000000      4.000000
  0.500000  0.125000  0.000000      4.000000
  0.375000  0.500000  0.000000      4.000000
 -0.125000  0.375000  0.000000      4.000000
  0.500000  0.250000  0.000000      2.000000
  0.250000  0.500000  0.000000      4.000000
 -0.375000  0.250000  0.000000      4.000000
 -0.250000  0.375000  0.000000      2.000000
 
 Following cartesian coordinates:
            Coordinates               Weight
  0.000000  0.000000  0.000000      1.000000
  0.014218 -0.008209  0.000000      4.000000
  0.000000  0.016418  0.000000      2.000000
  0.028437 -0.016418  0.000000      4.000000
  0.000000  0.032836  0.000000      2.000000
  0.042655 -0.024627  0.000000      4.000000
  0.000000  0.049254  0.000000      2.000000
  0.056874 -0.032836  0.000000      2.000000
  0.000000  0.065672  0.000000      1.000000
  0.028437 -0.000000  0.000000      2.000000
  0.014218  0.024627  0.000000      4.000000
  0.042655 -0.008209  0.000000      4.000000
  0.028437  0.032836  0.000000      4.000000
 -0.014218  0.041045  0.000000      4.000000
  0.056874 -0.016418  0.000000      4.000000
  0.042655  0.041045  0.000000      4.000000
 -0.014218  0.057463  0.000000      4.000000
  0.056874 -0.000000  0.000000      2.000000
  0.028437  0.049254  0.000000      4.000000
 -0.042655  0.057463  0.000000      4.000000
 -0.028437  0.065672  0.000000      2.000000
 


--------------------------------------------------------------------------------------------------------




 Dimension of arrays:
   k-points           NKPTS =     21   k-points in BZ     NKDIM =     21   number of bands    NBANDS=    252
   number of dos      NEDOS =    301   number of ions     NIONS =     38
   non local maximal  LDIM  =      6   non local SUM 2l+1 LMDIM =     18
   total plane-waves  NPLWV = 290304
   max r-space proj   IRMAX =   2452   max aug-charges    IRDMAX=   9814
   dimension x,y,z NGX =    48 NGY =   48 NGZ =  126
   dimension x,y,z NGXF=    96 NGYF=   96 NGZF=  252
   support grid    NGXF=    96 NGYF=   96 NGZF=  252
   ions per type =              35   1   2
   NGX,Y,Z   is equivalent  to a cutoff of   9.08,  9.08,  9.44 a.u.
   NGXF,Y,Z  is equivalent  to a cutoff of  18.15, 18.15, 18.89 a.u.

 SYSTEM =  unknown system                          
 POSCAR =  Ag-Mn-H2                                

 Startparameter for this run:
   NWRITE =      2    write-flag & timer
   PREC   = normal    normal or accurate (medium, high low for compatibility)
   ISTART =      0    job   : 0-new  1-cont  2-samecut
   ICHARG =     11    charge: 1-file 2-atom 10-const
   ISPIN  =      1    spin polarized calculation?
   LNONCOLLINEAR =      F non collinear calculations
   LSORBIT =      F    spin-orbit coupling
   INIWAV =      1    electr: 0-lowe 1-rand  2-diag
   LASPH  =      F    aspherical Exc in radial PAW
   METAGGA=      F    non-selfconsistent MetaGGA calc.

 Electronic Relaxation 1
   ENCUT  =  500.0 eV  36.75 Ry    6.06 a.u.  16.03 16.03 40.44*2*pi/ulx,y,z
   ENINI  =  500.0     initial cutoff
   ENAUG  =  500.7 eV  augmentation charge cutoff
   NELM   =    150;   NELMIN=  2; NELMDL= -5     # of ELM steps 
   EDIFF  = 0.1E-04   stopping-criterion for ELM
   LREAL  =      T    real-space projection
   NLSPLINE    = F    spline interpolate recip. space projectors
   LCOMPAT=      F    compatible to vasp.4.4
   GGA_COMPAT  = T    GGA compatible to vasp.4.4-vasp.4.6
   LMAXPAW     = -100 max onsite density
   LMAXMIX     =    2 max onsite mixed and CHGCAR
   VOSKOWN=      0    Vosko Wilk Nusair interpolation
   ROPT   =   -0.00050  -0.00050  -0.00050
 Ionic relaxation
   EDIFFG = -.1E-01   stopping-criterion for IOM
   NSW    =      0    number of steps for IOM
   NBLOCK =      1;   KBLOCK =      1    inner block; outer block 
   IBRION =     -1    ionic relax: 0-MD 1-quasi-New 2-CG
   NFREE  =      1    steps in history (QN), initial steepest desc. (CG)
   ISIF   =      2    stress and relaxation
   IWAVPR =     10    prediction:  0-non 1-charg 2-wave 3-comb
   ISYM   =      2    0-nonsym 1-usesym 2-fastsym
   LCORR  =      T    Harris-Foulkes like correction to forces

   POTIM  = 0.5000    time-step for ionic-motion
   TEIN   =    0.0    initial temperature
   TEBEG  =    0.0;   TEEND  =   0.0 temperature during run
   SMASS  =  -3.00    Nose mass-parameter (am)
   estimated Nose-frequenzy (Omega)   =  0.10E-29 period in steps = 0.13E+47 mass=  -0.177E-26a.u.
   SCALEE = 1.0000    scale energy and forces
   NPACO  =    256;   APACO  = 16.0  distance and # of slots for P.C.
   PSTRESS=    0.0 pullay stress

  Mass of Ions in am
   POMASS = 107.87 54.94  1.00
  Ionic Valenz
   ZVAL   =  11.00  7.00  1.00
  Atomic Wigner-Seitz radii
   RWIGS  =  -1.00 -1.00 -1.00
  virtual crystal weights 
   VCA    =   1.00  1.00  1.00
   NELECT =     394.0000    total number of electrons
   NUPDOWN=      -1.0000    fix difference up-down

 DOS related values:
   EMIN   =  10.00;   EMAX   =-10.00  energy-range for DOS
   EFERMI =   0.00
   ISMEAR =    -5;   SIGMA  =   0.10  broadening in eV -4-tet -1-fermi 0-gaus

 Electronic relaxation 2 (details)
   IALGO  =     68    algorithm
   LDIAG  =      T    sub-space diagonalisation (order eigenvalues)
   LSUBROT=      F    optimize rotation matrix (better conditioning)
   TURBO    =      0    0=normal 1=particle mesh
   IRESTART =      0    0=no restart 2=restart with 2 vectors
   NREBOOT  =      0    no. of reboots
   NMIN     =      0    reboot dimension
   EREF     =   0.00    reference energy to select bands
   IMIX   =      4    mixing-type and parameters
     AMIX     =   0.40;   BMIX     =  1.00
     AMIX_MAG =   1.60;   BMIX_MAG =  1.00
     AMIN     =   0.10
     WC   =   100.;   INIMIX=   1;  MIXPRE=   1;  MAXMIX= -45

 Intra band minimization:
   WEIMIN = 0.0000     energy-eigenvalue tresh-hold
   EBREAK =  0.99E-08  absolut break condition
   DEPER  =   0.30     relativ break condition  

   TIME   =   0.40     timestep for ELM

  volume/ion in A,a.u.               =      39.06       263.62
  Fermi-wavevector in a.u.,A,eV,Ry     =   1.052085  1.988152 15.060057  1.106883
  Thomas-Fermi vector in A             =   2.187154
 
 Write flags
   LWAVE        =      F    write WAVECAR
   LDOWNSAMPLE  =      F    k-point downsampling of WAVECAR
   LCHARG       =      F    write CHGCAR
   LVTOT        =      F    write LOCPOT, total local potential
   LVHAR        =      F    write LOCPOT, Hartree potential only
   LELF         =      F    write electronic localiz. function (ELF)
   LORBIT       =     10    0 simple, 1 ext, 2 COOP (PROOUT), +10 PAW based schemes


 Dipole corrections
   LMONO  =      F    monopole corrections only (constant potential shift)
   LDIPOL =      F    correct potential (dipole corrections)
   IDIPOL =      0    1-x, 2-y, 3-z, 4-all directions 
   EPSILON=  1.0000000 bulk dielectric constant

 Exchange correlation treatment:
   GGA     =    --    GGA type
   LEXCH   =     8    internal setting for exchange type
   VOSKOWN=      0    Vosko Wilk Nusair interpolation
   LHFCALC =     F    Hartree Fock is set to
   LHFONE  =     F    Hartree Fock one center treatment
   AEXX    =    0.0000 exact exchange contribution

 Linear response parameters
   LEPSILON=     F    determine dielectric tensor
   LRPA    =     F    only Hartree local field effects (RPA)
   LNABLA  =     F    use nabla operator in PAW spheres
   LVEL    =     F    velocity operator in full k-point grid
   LINTERFAST=   F  fast interpolation
   KINTER  =     0    interpolate to denser k-point grid
   CSHIFT  =0.1000    complex shift for real part using Kramers Kronig
   OMEGAMAX=  -1.0    maximum frequency
   DEG_THRESHOLD= 0.2000000E-02 threshold for treating states as degnerate
   RTIME   =   -0.100 relaxation time in fs
  (WPLASMAI=    0.000 imaginary part of plasma frequency in eV, 0.658/RTIME)
   DFIELD  = 0.0000000 0.0000000 0.0000000 field for delta impulse in time
 
 Orbital magnetization related:
   ORBITALMAG=     F  switch on orbital magnetization
   LCHIMAG   =     F  perturbation theory with respect to B field
   DQ        =  0.001000  dq finite difference perturbation B field
   LLRAUG    =     F  two centre corrections for induced B field



--------------------------------------------------------------------------------------------------------


 Static calculation
 charge density and potential remain constant during run
 non-spin polarized calculation
 RMM-DIIS sequential band-by-band and
  variant of blocked Davidson during initial phase
 perform sub-space diagonalisation
    before iterative eigenvector-optimisation
 no mixing
 using additional bands           55
 real space projection scheme for non local part
 use partial core corrections
 calculate Harris-corrections to forces 
   (improved forces if not selfconsistent)
 use gradient corrections 
 WARNING: stress and forces are not correct
  (second derivative of E(xc) not defined)
 use of overlap-Matrix (Vanderbilt PP)
 Fermi weights with tetrahedron method with Bloechl corrections


--------------------------------------------------------------------------------------------------------


  energy-cutoff  :      500.00
  volume of cell :     1484.46
      direct lattice vectors                 reciprocal lattice vectors
     8.791366577  0.000000000  0.000000000     0.113747958 -0.065672414  0.000000000
     4.395683289  7.613546790  0.000000000     0.000000000  0.131344829  0.000000000
     0.000000000  0.000000000 22.178121567     0.000000000  0.000000000  0.045089481

  length of vectors
     8.791366577  8.791366577 22.178121567     0.131344829  0.131344829  0.045089481


 
 k-points in units of 2pi/SCALE and weight: Automatic mesh                          
   0.00000000  0.00000000  0.00000000       0.016
   0.01421849 -0.00820905  0.00000000       0.062
   0.00000000  0.01641810  0.00000000       0.031
   0.02843699 -0.01641810  0.00000000       0.062
   0.00000000  0.03283621  0.00000000       0.031
   0.04265548 -0.02462716  0.00000000       0.062
   0.00000000  0.04925431  0.00000000       0.031
   0.05687398 -0.03283621  0.00000000       0.031
   0.00000000  0.06567241  0.00000000       0.016
   0.02843699 -0.00000000  0.00000000       0.031
   0.01421849  0.02462716  0.00000000       0.062
   0.04265548 -0.00820905  0.00000000       0.062
   0.02843699  0.03283621  0.00000000       0.062
  -0.01421849  0.04104526  0.00000000       0.062
   0.05687398 -0.01641810  0.00000000       0.062
   0.04265548  0.04104526  0.00000000       0.062
  -0.01421849  0.05746336  0.00000000       0.062
   0.05687398 -0.00000000  0.00000000       0.031
   0.02843699  0.04925431  0.00000000       0.062
  -0.04265548  0.05746336  0.00000000       0.062
  -0.02843699  0.06567241  0.00000000       0.031
 
 k-points in reciprocal lattice and weights: Automatic mesh                          
   0.00000000  0.00000000  0.00000000       0.016
   0.12500000 -0.00000000  0.00000000       0.062
   0.00000000  0.12500000  0.00000000       0.031
   0.25000000 -0.00000000  0.00000000       0.062
   0.00000000  0.25000000  0.00000000       0.031
   0.37500000 -0.00000000  0.00000000       0.062
   0.00000000  0.37500000  0.00000000       0.031
   0.50000000 -0.00000000  0.00000000       0.031
   0.00000000  0.50000000  0.00000000       0.016
   0.25000000  0.12500000  0.00000000       0.031
   0.12500000  0.25000000  0.00000000       0.062
   0.37500000  0.12500000  0.00000000       0.062
   0.25000000  0.37500000  0.00000000       0.062
  -0.12500000  0.25000000  0.00000000       0.062
   0.50000000  0.12500000  0.00000000       0.062
   0.37500000  0.50000000  0.00000000       0.062
  -0.12500000  0.37500000  0.00000000       0.062
   0.50000000  0.25000000  0.00000000       0.031
   0.25000000  0.50000000  0.00000000       0.062
  -0.37500000  0.25000000  0.00000000       0.062
  -0.25000000  0.37500000  0.00000000       0.031
 
 position of ions in fractional coordinates (direct lattice) 
   0.00000000  0.00000000  0.23817112
   0.33333331  0.00000000  0.23817112
   0.66666663  0.00000000  0.23817112
   0.00000000  0.33333334  0.23817112
   0.33333331  0.33333334  0.23817112
   0.66666669  0.33333334  0.23817112
   0.00000000  0.66666669  0.23817112
   0.33333331  0.66666669  0.23817112
   0.66666663  0.66666669  0.23817112
   0.11111110  0.11111111  0.34605705
   0.44444445  0.11111111  0.34605705
   0.77777779  0.11111111  0.34605705
   0.11111110  0.44444445  0.34605705
   0.44444442  0.44444445  0.34605705
   0.77777779  0.44444445  0.34605705
   0.11111110  0.77777779  0.34605705
   0.44444445  0.77777779  0.34605705
   0.77777779  0.77777779  0.34605705
   0.88871488  0.22257025  0.45366301
   0.22306613  0.22306614  0.45271422
   0.55386768  0.22306614  0.45271422
   0.88848396  0.55575805  0.45331368
   0.22306614  0.55386774  0.45271422
   0.55575805  0.55575805  0.45331368
   0.88871488  0.88871488  0.45366301
   0.22257022  0.88871488  0.45366301
   0.55575799  0.88848396  0.45331368
   0.00000000  0.00000000  0.56025322
   0.33327668  0.00787961  0.56084775
   0.65884365  0.00787961  0.56084775
   0.00787961  0.33327671  0.56084775
   0.65884371  0.33327671  0.56084775
   0.00787961  0.65884371  0.56084775
   0.33327668  0.65884371  0.56084775
   0.66666663  0.66666669  0.56022395
   0.33333331  0.33333334  0.54872486
   0.28051366  0.33155503  0.61846297
   0.38793127  0.33155503  0.61846297
 
 position of ions in cartesian coordinates  (Angst):
   0.00000000  0.00000000  5.28218814
   2.93045535  0.00000000  5.28218814
   5.86091070  0.00000000  5.28218814
   1.46522781  2.53784900  5.28218814
   4.39568315  2.53784900  5.28218814
   7.32613904  2.53784900  5.28218814
   2.93045562  5.07569801  5.28218814
   5.86091096  5.07569801  5.28218814
   8.79136632  5.07569801  5.28218814
   1.46522770  0.84594965  7.67489535
   4.39568332  0.84594965  7.67489535
   7.32613893  0.84594965  7.67489535
   2.93045542  3.38379860  7.67489535
   5.86091083  3.38379860  7.67489535
   8.79136671  3.38379860  7.67489535
   4.39568328  5.92164760  7.67489535
   7.32613890  5.92164760  7.67489535
  10.25659451  5.92164760  7.67489535
   8.79136665  1.69454901 10.06139347
   2.94158422  1.69832452 10.04035105
   5.84978196  1.69832452 10.04035105
  10.25392459  4.23128990 10.05364597
   4.39568342  4.21689798 10.04035105
   7.32880909  4.23128990 10.05364597
  11.71952748  6.76627235 10.06139347
   5.86320555  6.76627235 10.06139347
   8.79136631  6.76451423 10.05364597
   0.00000000  0.00000000 12.42536406
   2.96459375  0.05999176 12.43854957
   5.82677230  0.05999176 12.43854957
   1.53425139  2.53741785 12.43854957
   7.25711545  2.53741785 12.43854957
   2.96534080  5.01613741 12.43854957
   5.82602577  5.01613741 12.43854957
   8.79136632  5.07569801 12.42471485
   4.39568315  2.53784900 12.16968670
   3.92350936  2.52430977 13.71634701
   4.86785695  2.52430977 13.71634701
 


--------------------------------------------------------------------------------------------------------


 k-point   1 :   0.0000 0.0000 0.0000  plane waves:   37683
 k-point   2 :   0.1250-0.0000 0.0000  plane waves:   37658
 k-point   3 :   0.0000 0.1250 0.0000  plane waves:   37658
 k-point   4 :   0.2500-0.0000 0.0000  plane waves:   37682
 k-point   5 :   0.0000 0.2500 0.0000  plane waves:   37682
 k-point   6 :   0.3750-0.0000 0.0000  plane waves:   37686
 k-point   7 :   0.0000 0.3750 0.0000  plane waves:   37686
 k-point   8 :   0.5000-0.0000 0.0000  plane waves:   37668
 k-point   9 :   0.0000 0.5000 0.0000  plane waves:   37668
 k-point  10 :   0.2500 0.1250 0.0000  plane waves:   37666
 k-point  11 :   0.1250 0.2500 0.0000  plane waves:   37666
 k-point  12 :   0.3750 0.1250 0.0000  plane waves:   37708
 k-point  13 :   0.2500 0.3750 0.0000  plane waves:   37708
 k-point  14 :  -0.1250 0.2500 0.0000  plane waves:   37708
 k-point  15 :   0.5000 0.1250 0.0000  plane waves:   37726
 k-point  16 :   0.3750 0.5000 0.0000  plane waves:   37726
 k-point  17 :  -0.1250 0.3750 0.0000  plane waves:   37726
 k-point  18 :   0.5000 0.2500 0.0000  plane waves:   37706
 k-point  19 :   0.2500 0.5000 0.0000  plane waves:   37706
 k-point  20 :  -0.3750 0.2500 0.0000  plane waves:   37686
 k-point  21 :  -0.2500 0.3750 0.0000  plane waves:   37686

 maximum and minimum number of plane-waves per node :     37726    37658

 maximum number of plane-waves:     37726
 maximum index in each direction: 
   IXMAX=   16   IYMAX=   16   IZMAX=   40
   IXMIN=  -16   IYMIN=  -16   IZMIN=  -40


 serial   3D FFT for wavefunctions
 parallel 3D FFT for charge:
    minimum data exchange during FFTs selected (reduces bandwidth)


 total amount of memory used by VASP MPI-rank0   183861. kBytes
=======================================================================

   base      :      30000. kBytes
   nonlr-proj:      14893. kBytes
   fftplans  :       4330. kBytes
   grid      :      17879. kBytes
   one-center:        590. kBytes
   wavefun   :     116169. kBytes
 
     INWAV:  cpu time    0.0000: real time    0.0001
 initial charge density was supplied:
 number of electron     393.9999978 magnetization 
 keeping initial charge density in first step


--------------------------------------------------------------------------------------------------------


 Maximum index for non-local projection operator         2350
 Maximum index for augmentation-charges          703 (set IRDMAX)


--------------------------------------------------------------------------------------------------------


 First call to EWALD:  gamma=   0.155
 Maximum number of real-space cells 4x 4x 2
 Maximum number of reciprocal cells 2x 2x 5

    FEWALD:  cpu time    0.0014: real time    0.0015


--------------------------------------- Iteration      1(   1)  ---------------------------------------


    POTLOK:  cpu time    0.0443: real time    0.0448
    SETDIJ:  cpu time    0.0046: real time    0.0046
     EDDAV:  cpu time   15.1016: real time   15.1033
 BZINTS: Fermi energy:    9.596817;  394.000000 electrons
         Band energy: 0.124324E+04;  BLOECHL correction:   -0.018289
       DOS:  cpu time    0.0307: real time    0.0307
    --------------------------------------------
      LOOP:  cpu time   15.1812: real time   15.1835

 eigenvalue-minimisations  : 10584
 total energy-change (2. order) : 0.2408408E+04  (-0.1807397E+05)
 number of electron     393.9999978 magnetization 
 augmentation part      393.9999978 magnetization 

 Free energy of the ion-electron system (eV)
  ---------------------------------------------------
  alpha Z        PSCENC =       740.54537806
  Ewald energy   TEWEN  =     97941.01222766
  -Hartree energ DENC   =   -135416.80150719
  -exchange      EXHF   =         0.00000000
  -V(xc)+E(xc)   XCENC  =      -396.49689796
  PAW double counting   =     38801.84176459   -37250.83477051
  entropy T*S    EENTRO =         0.00000000
  eigenvalues    EBANDS =      1243.23652248
  atomic energy  EATOM  =     36745.90539482
  Solvation  Ediel_sol  =         0.00000000
  ---------------------------------------------------
  free energy    TOTEN  =      2408.40811195 eV

  energy without entropy =     2408.40811195  energy(sigma->0) =     2408.40811195


--------------------------------------------------------------------------------------------------------




--------------------------------------- Iteration      1(   2)  ---------------------------------------


     EDDAV:  cpu time   15.0978: real time   15.0982
 BZINTS: Fermi energy:    1.440649;  394.000000 electrons
         Band energy:-0.118036E+04;  BLOECHL correction:   -0.022917
       DOS:  cpu time    0.0285: real time    0.0285
    --------------------------------------------
      LOOP:  cpu time   15.1263: real time   15.1267

 eigenvalue-minimisations  : 10584
 total energy-change (2. order) :-0.2423592E+04  (-0.2297125E+04)
 number of electron     393.9999978 magnetization 
 augmentation part      393.9999978 magnetization 

 Free energy of the ion-electron system (eV)
  ---------------------------------------------------
  alpha Z        PSCENC =       740.54537806
  Ewald energy   TEWEN  =     97941.01222766
  -Hartree energ DENC   =   -135416.80150719
  -exchange      EXHF   =         0.00000000
  -V(xc)+E(xc)   XCENC  =      -396.49689796
  PAW double counting   =     38801.84176459   -37250.83477051
  entropy T*S    EENTRO =         0.00000000
  eigenvalues    EBANDS =     -1180.35512710
  atomic energy  EATOM  =     36745.90539482
  Solvation  Ediel_sol  =         0.00000000
  ---------------------------------------------------
  free energy    TOTEN  =       -15.18353762 eV

  energy without entropy =      -15.18353762  energy(sigma->0) =      -15.18353762


--------------------------------------------------------------------------------------------------------




--------------------------------------- Iteration      1(   3)  ---------------------------------------


     EDDAV:  cpu time   16.7672: real time   16.7675
 BZINTS: Fermi energy:    0.830890;  394.000000 electrons
         Band energy:-0.126604E+04;  BLOECHL correction:   -0.019045
       DOS:  cpu time    0.0296: real time    0.0296
    --------------------------------------------
      LOOP:  cpu time   16.7968: real time   16.7971

 eigenvalue-minimisations  : 12040
 total energy-change (2. order) :-0.8568572E+02  (-0.8291321E+02)
 number of electron     393.9999978 magnetization 
 augmentation part      393.9999978 magnetization 

 Free energy of the ion-electron system (eV)
  ---------------------------------------------------
  alpha Z        PSCENC =       740.54537806
  Ewald energy   TEWEN  =     97941.01222766
  -Hartree energ DENC   =   -135416.80150719
  -exchange      EXHF   =         0.00000000
  -V(xc)+E(xc)   XCENC  =      -396.49689796
  PAW double counting   =     38801.84176459   -37250.83477051
  entropy T*S    EENTRO =         0.00000000
  eigenvalues    EBANDS =     -1266.04084726
  atomic energy  EATOM  =     36745.90539482
  Solvation  Ediel_sol  =         0.00000000
  ---------------------------------------------------
  free energy    TOTEN  =      -100.86925778 eV

  energy without entropy =     -100.86925778  energy(sigma->0) =     -100.86925778


--------------------------------------------------------------------------------------------------------




--------------------------------------- Iteration      1(   4)  ---------------------------------------


     EDDAV:  cpu time   16.5354: real time   16.5357
 BZINTS: Fermi energy:    0.818630;  394.000000 electrons
         Band energy:-0.126755E+04;  BLOECHL correction:   -0.017656
       DOS:  cpu time    0.0298: real time    0.0298
    --------------------------------------------
      LOOP:  cpu time   16.5652: real time   16.5655

 eigenvalue-minimisations  : 11844
 total energy-change (2. order) :-0.1508909E+01  (-0.1505855E+01)
 number of electron     393.9999978 magnetization 
 augmentation part      393.9999978 magnetization 

 Free energy of the ion-electron system (eV)
  ---------------------------------------------------
  alpha Z        PSCENC =       740.54537806
  Ewald energy   TEWEN  =     97941.01222766
  -Hartree energ DENC   =   -135416.80150719
  -exchange      EXHF   =         0.00000000
  -V(xc)+E(xc)   XCENC  =      -396.49689796
  PAW double counting   =     38801.84176459   -37250.83477051
  entropy T*S    EENTRO =         0.00000000
  eigenvalues    EBANDS =     -1267.54975632
  atomic energy  EATOM  =     36745.90539482
  Solvation  Ediel_sol  =         0.00000000
  ---------------------------------------------------
  free energy    TOTEN  =      -102.37816684 eV

  energy without entropy =     -102.37816684  energy(sigma->0) =     -102.37816684


--------------------------------------------------------------------------------------------------------




--------------------------------------- Iteration      1(   5)  ---------------------------------------


     EDDAV:  cpu time   17.8719: real time   17.8747
 BZINTS: Fermi energy:    0.818304;  394.000000 electrons
         Band energy:-0.126759E+04;  BLOECHL correction:   -0.017618
       DOS:  cpu time    0.0304: real time    0.0304
    --------------------------------------------
      LOOP:  cpu time   17.9023: real time   17.9051

 eigenvalue-minimisations  : 13020
 total energy-change (2. order) :-0.4402924E-01  (-0.4404997E-01)
 number of electron     393.9999978 magnetization 
 augmentation part      393.9999978 magnetization 

 Free energy of the ion-electron system (eV)
  ---------------------------------------------------
  alpha Z        PSCENC =       740.54537806
  Ewald energy   TEWEN  =     97941.01222766
  -Hartree energ DENC   =   -135416.80150719
  -exchange      EXHF   =         0.00000000
  -V(xc)+E(xc)   XCENC  =      -396.49689796
  PAW double counting   =     38801.84176459   -37250.83477051
  entropy T*S    EENTRO =         0.00000000
  eigenvalues    EBANDS =     -1267.59378555
  atomic energy  EATOM  =     36745.90539482
  Solvation  Ediel_sol  =         0.00000000
  ---------------------------------------------------
  free energy    TOTEN  =      -102.42219608 eV

  energy without entropy =     -102.42219608  energy(sigma->0) =     -102.42219608


--------------------------------------------------------------------------------------------------------




--------------------------------------- Iteration      1(   6)  ---------------------------------------


    EDDIAG:  cpu time    2.9536: real time    2.9539
  RMM-DIIS:  cpu time    8.6236: real time    8.6237
    ORTHCH:  cpu time    0.5482: real time    0.5482
 BZINTS: Fermi energy:    0.818293;  394.000000 electrons
         Band energy:-0.126760E+04;  BLOECHL correction:   -0.017616
       DOS:  cpu time    0.0292: real time    0.0292
    --------------------------------------------
      LOOP:  cpu time   12.1546: real time   12.1550

 eigenvalue-minimisations  : 10917
 total energy-change (2. order) :-0.1360817E-02  (-0.1361950E-02)
 number of electron     393.9999978 magnetization 
 augmentation part      393.9999978 magnetization 

 Free energy of the ion-electron system (eV)
  ---------------------------------------------------
  alpha Z        PSCENC =       740.54537806
  Ewald energy   TEWEN  =     97941.01222766
  -Hartree energ DENC   =   -135416.80150719
  -exchange      EXHF   =         0.00000000
  -V(xc)+E(xc)   XCENC  =      -396.49689796
  PAW double counting   =     38801.84176459   -37250.83477051
  entropy T*S    EENTRO =         0.00000000
  eigenvalues    EBANDS =     -1267.59514637
  atomic energy  EATOM  =     36745.90539482
  Solvation  Ediel_sol  =         0.00000000
  ---------------------------------------------------
  free energy    TOTEN  =      -102.42355689 eV

  energy without entropy =     -102.42355689  energy(sigma->0) =     -102.42355689


--------------------------------------------------------------------------------------------------------




--------------------------------------- Iteration      1(   7)  ---------------------------------------


    EDDIAG:  cpu time    2.9533: real time    2.9535
  RMM-DIIS:  cpu time   12.4920: real time   12.4921
    ORTHCH:  cpu time    0.5476: real time    0.5476
 BZINTS: Fermi energy:    0.818288;  394.000000 electrons
         Band energy:-0.126760E+04;  BLOECHL correction:   -0.017616
       DOS:  cpu time    0.0272: real time    0.0272
    --------------------------------------------
      LOOP:  cpu time   16.0200: real time   16.0204

 eigenvalue-minimisations  : 15877
 total energy-change (2. order) :-0.7174691E-03  (-0.6967462E-03)
 number of electron     393.9999978 magnetization 
 augmentation part      393.9999978 magnetization 

 Free energy of the ion-electron system (eV)
  ---------------------------------------------------
  alpha Z        PSCENC =       740.54537806
  Ewald energy   TEWEN  =     97941.01222766
  -Hartree energ DENC   =   -135416.80150719
  -exchange      EXHF   =         0.00000000
  -V(xc)+E(xc)   XCENC  =      -396.49689796
  PAW double counting   =     38801.84176459   -37250.83477051
  entropy T*S    EENTRO =         0.00000000
  eigenvalues    EBANDS =     -1267.59586384
  atomic energy  EATOM  =     36745.90539482
  Solvation  Ediel_sol  =         0.00000000
  ---------------------------------------------------
  free energy    TOTEN  =      -102.42427436 eV

  energy without entropy =     -102.42427436  energy(sigma->0) =     -102.42427436


--------------------------------------------------------------------------------------------------------




--------------------------------------- Iteration      1(   8)  ---------------------------------------


    EDDIAG:  cpu time    2.9533: real time    2.9534
  RMM-DIIS:  cpu time   11.3614: real time   11.3615
    ORTHCH:  cpu time    0.5478: real time    0.5478
 BZINTS: Fermi energy:    0.818288;  394.000000 electrons
         Band energy:-0.126760E+04;  BLOECHL correction:   -0.017616
       DOS:  cpu time    0.0304: real time    0.0304
    --------------------------------------------
      LOOP:  cpu time   14.8928: real time   14.8931

 eigenvalue-minimisations  : 14337
 total energy-change (2. order) :-0.8938799E-04  (-0.8906185E-04)
 number of electron     393.9999978 magnetization 
 augmentation part      393.9999978 magnetization 

 Free energy of the ion-electron system (eV)
  ---------------------------------------------------
  alpha Z        PSCENC =       740.54537806
  Ewald energy   TEWEN  =     97941.01222766
  -Hartree energ DENC   =   -135416.80150719
  -exchange      EXHF   =         0.00000000
  -V(xc)+E(xc)   XCENC  =      -396.49689796
  PAW double counting   =     38801.84176459   -37250.83477051
  entropy T*S    EENTRO =         0.00000000
  eigenvalues    EBANDS =     -1267.59595323
  atomic energy  EATOM  =     36745.90539482
  Solvation  Ediel_sol  =         0.00000000
  ---------------------------------------------------
  free energy    TOTEN  =      -102.42436375 eV

  energy without entropy =     -102.42436375  energy(sigma->0) =     -102.42436375


--------------------------------------------------------------------------------------------------------




--------------------------------------- Iteration      1(   9)  ---------------------------------------


    EDDIAG:  cpu time    2.9522: real time    2.9524
  RMM-DIIS:  cpu time    9.6459: real time    9.6460
    ORTHCH:  cpu time    0.5501: real time    0.5501
 BZINTS: Fermi energy:    0.818288;  394.000000 electrons
         Band energy:-0.126760E+04;  BLOECHL correction:   -0.017616
       DOS:  cpu time    0.0284: real time    0.0284
    --------------------------------------------
      LOOP:  cpu time   13.1766: real time   13.1769

 eigenvalue-minimisations  : 11053
 total energy-change (2. order) :-0.1292970E-04  (-0.1289917E-04)
 number of electron     393.9999978 magnetization 
 augmentation part      393.9999978 magnetization 

 Free energy of the ion-electron system (eV)
  ---------------------------------------------------
  alpha Z        PSCENC =       740.54537806
  Ewald energy   TEWEN  =     97941.01222766
  -Hartree energ DENC   =   -135416.80150719
  -exchange      EXHF   =         0.00000000
  -V(xc)+E(xc)   XCENC  =      -396.49689796
  PAW double counting   =     38801.84176459   -37250.83477051
  entropy T*S    EENTRO =         0.00000000
  eigenvalues    EBANDS =     -1267.59596615
  atomic energy  EATOM  =     36745.90539482
  Solvation  Ediel_sol  =         0.00000000
  ---------------------------------------------------
  free energy    TOTEN  =      -102.42437668 eV

  energy without entropy =     -102.42437668  energy(sigma->0) =     -102.42437668


--------------------------------------------------------------------------------------------------------




--------------------------------------- Iteration      1(  10)  ---------------------------------------


    EDDIAG:  cpu time    2.9542: real time    2.9543
  RMM-DIIS:  cpu time    6.6451: real time    6.6452
    ORTHCH:  cpu time    0.5484: real time    0.5484
 BZINTS: Fermi energy:    0.818288;  394.000000 electrons
         Band energy:-0.126760E+04;  BLOECHL correction:   -0.017616
       DOS:  cpu time    0.0285: real time    0.0285
    --------------------------------------------
      LOOP:  cpu time   10.1762: real time   10.1763

 eigenvalue-minimisations  :  6849
 total energy-change (2. order) :-0.1556735E-05  (-0.1522830E-05)
 number of electron     393.9999978 magnetization 
 augmentation part      393.9999978 magnetization 

 Free energy of the ion-electron system (eV)
  ---------------------------------------------------
  alpha Z        PSCENC =       740.54537806
  Ewald energy   TEWEN  =     97941.01222766
  -Hartree energ DENC   =   -135416.80150719
  -exchange      EXHF   =         0.00000000
  -V(xc)+E(xc)   XCENC  =      -396.49689796
  PAW double counting   =     38801.84176459   -37250.83477051
  entropy T*S    EENTRO =         0.00000000
  eigenvalues    EBANDS =     -1267.59596771
  atomic energy  EATOM  =     36745.90539482
  Solvation  Ediel_sol  =         0.00000000
  ---------------------------------------------------
  free energy    TOTEN  =      -102.42437824 eV

  energy without entropy =     -102.42437824  energy(sigma->0) =     -102.42437824


--------------------------------------------------------------------------------------------------------




 average (electrostatic) potential at core
  the test charge radii are     1.1249  1.0210  0.5201
  (the norm of the test charge is              1.0000)
       1 -78.0845       2 -78.0532       3 -78.0532       4 -78.0557       5 -78.0417
       6 -78.0554       7 -78.0522       8 -78.0520       9 -78.0777      10 -78.3025
      11 -78.2654      12 -78.3023      13 -78.2666      14 -78.2664      15 -78.2905
      16 -78.2977      17 -78.2851      18 -78.2851      19 -78.2719      20 -78.3376
      21 -78.3374      22 -78.2677      23 -78.3339      24 -78.2676      25 -78.2671
      26 -78.2671      27 -78.2626      28 -78.0404      29 -77.9758      30 -77.9758
      31 -77.9953      32 -77.9952      33 -77.9808      34 -77.9806      35 -78.0227
      36 -48.4253      37 -36.7881      38 -36.7879
 
 
 
 E-fermi :   0.8183     XC(G=0):  -5.9126     alpha+bet : -5.5630

 Fermi energy:         0.8182878049

 k-point     1 :       0.0000    0.0000    0.0000
  band No.  band energies     occupation 
      1      -6.8004      2.00000
      2      -6.2155      2.00000
      3      -5.3813      2.00000
      4      -5.1109      2.00000
      5      -5.0120      2.00000
      6      -5.0037      2.00000
      7      -5.0022      2.00000
      8      -5.0016      2.00000
      9      -4.9994      2.00000
     10      -4.9990      2.00000
     11      -4.9800      2.00000
     12      -4.9625      2.00000
     13      -4.9624      2.00000
     14      -4.9596      2.00000
     15      -4.9487      2.00000
     16      -4.9480      2.00000
     17      -4.8557      2.00000
     18      -4.7983      2.00000
     19      -4.7936      2.00000
     20      -4.7899      2.00000
     21      -4.7891      2.00000
     22      -4.7857      2.00000
     23      -4.7842      2.00000
     24      -4.6034      2.00000
     25      -4.6029      2.00000
     26      -4.6016      2.00000
     27      -4.5843      2.00000
     28      -4.5717      2.00000
     29      -4.5675      2.00000
     30      -4.5671      2.00000
     31      -4.5670      2.00000
     32      -4.5456      2.00000
     33      -4.5450      2.00000
     34      -4.5385      2.00000
     35      -4.5384      2.00000
     36      -4.4377      2.00000
     37      -4.4301      2.00000
     38      -4.4278      2.00000
     39      -4.3274      2.00000
     40      -4.2885      2.00000
     41      -4.2865      2.00000
     42      -4.2199      2.00000
     43      -4.2176      2.00000
     44      -4.2033      2.00000
     45      -4.2033      2.00000
     46      -4.1999      2.00000
     47      -4.1764      2.00000
     48      -4.1760      2.00000
     49      -4.1593      2.00000
     50      -4.1363      2.00000
     51      -4.1352      2.00000
     52      -4.0582      2.00000
     53      -4.0515      2.00000
     54      -4.0297      2.00000
     55      -4.0182      2.00000
     56      -3.8189      2.00000
     57      -3.8155      2.00000
     58      -3.8138      2.00000
     59      -3.8115      2.00000
     60      -3.8090      2.00000
     61      -3.8086      2.00000
     62      -3.7807      2.00000
     63      -3.7804      2.00000
     64      -3.7643      2.00000
     65      -3.7557      2.00000
     66      -3.7555      2.00000
     67      -3.6618      2.00000
     68      -3.6611      2.00000
     69      -3.6382      2.00000
     70      -3.6362      2.00000
     71      -3.6313      2.00000
     72      -3.6292      2.00000
     73      -3.6259      2.00000
     74      -3.6239      2.00000
     75      -3.6049      2.00000
     76      -3.6037      2.00000
     77      -3.5912      2.00000
     78      -3.5680      2.00000
     79      -3.5669      2.00000
     80      -3.5615      2.00000
     81      -3.5544      2.00000
     82      -3.5522      2.00000
     83      -3.5503      2.00000
     84      -3.5074      2.00000
     85      -3.5074      2.00000
     86      -3.4270      2.00000
     87      -3.4255      2.00000
     88      -3.4245      2.00000
     89      -3.3957      2.00000
     90      -3.3943      2.00000
     91      -3.3636      2.00000
     92      -3.3633      2.00000
     93      -3.3510      2.00000
     94      -3.3503      2.00000
     95      -3.3326      2.00000
     96      -3.3325      2.00000
     97      -3.3232      2.00000
     98      -3.2890      2.00000
     99      -3.2543      2.00000
    100      -3.1035      2.00000
    101      -3.1035      2.00000
    102      -3.1026      2.00000
    103      -3.0785      2.00000
    104      -3.0778      2.00000
    105      -3.0735      2.00000
    106      -3.0411      2.00000
    107      -3.0388      2.00000
    108      -3.0355      2.00000
    109      -3.0178      2.00000
    110      -3.0171      2.00000
    111      -2.9809      2.00000
    112      -2.9805      2.00000
    113      -2.9133      2.00000
    114      -2.9058      2.00000
    115      -2.8828      2.00000
    116      -2.8393      2.00000
    117      -2.8391      2.00000
    118      -2.8165      2.00000
    119      -2.8165      2.00000
    120      -2.7712      2.00000
    121      -2.7677      2.00000
    122      -2.7549      2.00000
    123      -2.7430      2.00000
    124      -2.7413      2.00000
    125      -2.7331      2.00000
    126      -2.7324      2.00000
    127      -2.7124      2.00000
    128      -2.7120      2.00000
    129      -2.7061      2.00000
    130      -2.6933      2.00000
    131      -2.6924      2.00000
    132      -2.6922      2.00000
    133      -2.6917      2.00000
    134      -2.5908      2.00000
    135      -2.5825      2.00000
    136      -2.5268      2.00000
    137      -2.5190      2.00000
    138      -2.5178      2.00000
    139      -2.5058      2.00000
    140      -2.5047      2.00000
    141      -2.5037      2.00000
    142      -2.4957      2.00000
    143      -2.4952      2.00000
    144      -2.4859      2.00000
    145      -2.4843      2.00000
    146      -2.4621      2.00000
    147      -2.4600      2.00000
    148      -2.4165      2.00000
    149      -2.4079      2.00000
    150      -2.4075      2.00000
    151      -2.4060      2.00000
    152      -2.3991      2.00000
    153      -2.3936      2.00000
    154      -2.3934      2.00000
    155      -2.3610      2.00000
    156      -2.3533      2.00000
    157      -2.3527      2.00000
    158      -2.3370      2.00000
    159      -2.3357      2.00000
    160      -2.3125      2.00000
    161      -2.3100      2.00000
    162      -2.3091      2.00000
    163      -2.3090      2.00000
    164      -2.3080      2.00000
    165      -2.2773      2.00000
    166      -2.2691      2.00000
    167      -2.2683      2.00000
    168      -2.2455      2.00000
    169      -2.2445      2.00000
    170      -2.2444      2.00000
    171      -2.2110      2.00000
    172      -2.2009      2.00000
    173      -2.1996      2.00000
    174      -2.1469      2.00000
    175      -2.1448      2.00000
    176      -2.1128      2.00000
    177      -2.1127      2.00000
    178      -2.0985      2.00000
    179      -2.0807      2.00000
    180      -2.0345      2.00000
    181      -2.0248      2.00000
    182      -2.0056      2.00000
    183      -2.0038      2.00000
    184      -2.0037      2.00000
    185      -1.9546      2.00000
    186      -1.3252      2.00000
    187      -1.2688      2.00000
    188      -1.2462      2.00000
    189      -1.2387      2.00000
    190      -1.2346      2.00000
    191      -1.0051      2.00000
    192      -0.1807      2.00000
    193       0.0248      2.00000
    194       0.2817      2.00000
    195       0.2990      2.00000
    196       0.4348      2.00000
    197       0.4348      2.00000
    198       0.5028      2.00000
    199       0.7022      2.00000
    200       0.7829      1.22086
    201       0.8723      0.00000
    202       0.8726      0.00000
    203       1.1934      0.00000
    204       1.9429      0.00000
    205       2.7038      0.00000
    206       2.7482      0.00000
    207       2.7521      0.00000
    208       2.8190      0.00000
    209       2.8548      0.00000
    210       4.0308      0.00000
    211       4.1009      0.00000
    212       4.1428      0.00000
    213       4.1563      0.00000
    214       4.2512      0.00000
    215       4.2787      0.00000
    216       4.2805      0.00000
    217       4.7898      0.00000
    218       4.8783      0.00000
    219       4.9984      0.00000
    220       5.0241      0.00000
    221       5.0299      0.00000
    222       5.0465      0.00000
    223       5.0601      0.00000
    224       5.0920      0.00000
    225       5.0932      0.00000
    226       5.1290      0.00000
    227       5.1347      0.00000
    228       5.3792      0.00000
    229       5.3849      0.00000
    230       5.9419      0.00000
    231       6.3375      0.00000
    232       6.3406      0.00000
    233       6.6433      0.00000
    234       6.6532      0.00000
    235       6.6675      0.00000
    236       6.6816      0.00000
    237       6.8392      0.00000
    238       6.8711      0.00000
    239       6.9435      0.00000
    240       6.9865      0.00000
    241       7.0197      0.00000
    242       7.0214      0.00000
    243       7.0321      0.00000
    244       7.2800      0.00000
    245       7.2984      0.00000
    246       7.2997      0.00000
    247       7.3229      0.00000
    248       7.3709      0.00000
    249       7.3744      0.00000
    250       7.3803      0.00000
    251       7.6620      0.00000
    252       7.6811      0.00000

 k-point     2 :       0.1250   -0.0000    0.0000
  band No.  band energies     occupation 
      1      -6.7919      2.00000
      2      -6.1751      2.00000
      3      -5.3438      2.00000
      4      -5.0784      2.00000
      5      -5.0639      2.00000
      6      -5.0294      2.00000
      7      -5.0054      2.00000
      8      -5.0006      2.00000
      9      -4.9987      2.00000
     10      -4.9796      2.00000
     11      -4.9734      2.00000
     12      -4.9669      2.00000
     13      -4.9602      2.00000
     14      -4.8990      2.00000
     15      -4.8950      2.00000
     16      -4.8859      2.00000
     17      -4.8720      2.00000
     18      -4.8415      2.00000
     19      -4.8352      2.00000
     20      -4.8258      2.00000
     21      -4.7300      2.00000
     22      -4.7236      2.00000
     23      -4.6787      2.00000
     24      -4.6679      2.00000
     25      -4.6601      2.00000
     26      -4.6559      2.00000
     27      -4.6043      2.00000
     28      -4.6026      2.00000
     29      -4.5622      2.00000
     30      -4.5597      2.00000
     31      -4.5249      2.00000
     32      -4.5210      2.00000
     33      -4.5126      2.00000
     34      -4.4627      2.00000
     35      -4.4548      2.00000
     36      -4.4438      2.00000
     37      -4.4145      2.00000
     38      -4.4081      2.00000
     39      -4.3032      2.00000
     40      -4.2846      2.00000
     41      -4.2830      2.00000
     42      -4.2741      2.00000
     43      -4.2687      2.00000
     44      -4.2523      2.00000
     45      -4.2209      2.00000
     46      -4.2192      2.00000
     47      -4.1985      2.00000
     48      -4.1950      2.00000
     49      -4.1463      2.00000
     50      -4.1271      2.00000
     51      -4.0997      2.00000
     52      -4.0407      2.00000
     53      -4.0312      2.00000
     54      -4.0102      2.00000
     55      -4.0048      2.00000
     56      -3.8461      2.00000
     57      -3.8355      2.00000
     58      -3.8331      2.00000
     59      -3.8190      2.00000
     60      -3.8122      2.00000
     61      -3.8006      2.00000
     62      -3.7974      2.00000
     63      -3.7838      2.00000
     64      -3.7708      2.00000
     65      -3.7691      2.00000
     66      -3.7382      2.00000
     67      -3.6939      2.00000
     68      -3.6720      2.00000
     69      -3.6698      2.00000
     70      -3.6615      2.00000
     71      -3.6594      2.00000
     72      -3.6338      2.00000
     73      -3.6280      2.00000
     74      -3.6195      2.00000
[...]
  0.000   0.000   0.000   0.000   0.000   0.000   0.000   0.000   0.000   0.000   0.000   0.000   0.000   0.000   0.000   0.000
  0.000   0.000   0.000   0.000   0.000   0.000   0.000   0.000   0.000   0.000   0.000   0.000   0.000   0.000   0.000   0.000
  0.000   0.000   0.000   0.000   0.000   0.000   0.000   0.000   0.000   0.000   1.000   0.000   0.000   0.000   0.000   0.000
  0.000   0.000   0.000   0.000   0.000   0.000   0.000   0.000   0.000   0.000   0.000   0.000   0.000   0.000   0.000   0.000
  0.000   0.000   0.000   0.000   0.000   0.000   0.000   0.000   0.000   0.000   0.000   0.000   0.000   0.000   0.000   0.000
  0.000   0.000   0.000   0.000   0.000   0.000   0.000   0.000   0.000   0.000   0.000   0.000   0.000   0.000   0.000   0.000
  0.000   0.000   0.000   0.000   0.000   0.000   0.000   0.000   0.000   0.000   0.000   0.000   0.000   0.000   0.000   0.000
  0.000   0.000   0.000   0.000   0.000   0.000   0.000   0.000   0.000   0.000   0.000   0.000   0.000   0.000   0.000   0.000
  0.000   0.000   0.000   0.000   0.000   0.000   0.000   0.000   0.000   0.000   0.000   0.000   0.000   0.000   0.000   0.000
  0.000   0.000   0.000   0.000   0.000   0.000   0.000   0.000   0.000   0.000   0.000   0.000   0.000   0.000   0.000   0.000


------------------------ aborting loop because EDIFF is reached ----------------------------------------





 total charge

# of ion       s       p       d       tot
------------------------------------------
    1        0.418   0.202   9.179   9.799
    2        0.417   0.203   9.177   9.798
    3        0.417   0.203   9.177   9.798
    4        0.418   0.203   9.177   9.798
    5        0.418   0.203   9.175   9.796
    6        0.418   0.203   9.177   9.798
    7        0.417   0.203   9.177   9.798
    8        0.417   0.203   9.177   9.798
    9        0.415   0.202   9.179   9.796
   10        0.407   0.269   9.163   9.839
   11        0.410   0.266   9.168   9.845
   12        0.407   0.269   9.163   9.839
   13        0.409   0.267   9.168   9.844
   14        0.409   0.267   9.168   9.844
   15        0.403   0.270   9.165   9.838
   16        0.408   0.269   9.163   9.840
   17        0.403   0.270   9.165   9.838
   18        0.403   0.270   9.165   9.838
   19        0.401   0.265   9.166   9.832
   20        0.429   0.293   9.145   9.867
   21        0.429   0.293   9.145   9.867
   22        0.396   0.275   9.165   9.836
   23        0.431   0.295   9.142   9.869
   24        0.396   0.275   9.165   9.836
   25        0.402   0.264   9.167   9.833
   26        0.402   0.264   9.167   9.833
   27        0.396   0.274   9.166   9.836
   28        0.413   0.195   9.180   9.787
   29        0.423   0.207   9.171   9.800
   30        0.423   0.207   9.171   9.800
   31        0.419   0.213   9.167   9.799
   32        0.419   0.213   9.167   9.799
   33        0.423   0.206   9.171   9.800
   34        0.423   0.206   9.171   9.800
   35        0.407   0.196   9.180   9.784
   36        0.290   0.280   5.159   5.728
   37        0.534   0.030   0.000   0.564
   38        0.534   0.030   0.000   0.564
--------------------------------------------------
tot         15.806   8.724 326.048 350.579
 
    CHARGE:  cpu time    0.6559: real time    0.6560
    FORLOC:  cpu time    0.0102: real time    0.0102
    FORNL :  cpu time    3.0432: real time    3.0433
    STRESS:  cpu time    9.1295: real time    9.1299
    FORCOR:  cpu time    0.0428: real time    0.0429
    FORHAR:  cpu time    0.0167: real time    0.0167
    OFIELD:  cpu time    0.0002: real time    0.0002

  FORCE on cell =-STRESS in cart. coord.  units (eV):
  Direction    XX          YY          ZZ          XY          YZ          ZX
  --------------------------------------------------------------------------------------
  Alpha Z   740.54538   740.54538   740.54538
  Ewald  120539.73475120518.16129************     0.00001    -0.18064    -0.00000
  Hartree130659.81464130654.28267************     0.00000    -0.06117     0.00000
  E(xc)   -2066.80768 -2067.04192 -2073.11559    -0.00002     0.02417     0.00000
  Local  ************************262561.70340     0.00031     0.43867    -0.00004
  n-local  -349.91635  -349.82115  -353.32872     2.21829     0.19231     0.16597
  augment  3248.11125  3248.23290  3259.49157    -0.00009    -0.14998     0.00007
  Kinetic  4849.68310  4853.77639  4880.34047     1.47170    -0.22006    -0.06035
  Fock        0.00000     0.00000     0.00000     0.00000     0.00000     0.00000
  -------------------------------------------------------------------------------------
  Total     -10.01236    -9.87578    -0.26037    -0.00000     0.04331     0.00000
  in kB     -10.80634   -10.65893    -0.28102    -0.00000     0.04674     0.00000
  external pressure =       -7.25 kB  Pullay stress =        0.00 kB


 VOLUME and BASIS-vectors are now :
 -----------------------------------------------------------------------------
  energy-cutoff  :      500.00
  volume of cell :     1484.46
      direct lattice vectors                 reciprocal lattice vectors
     8.791366577  0.000000000  0.000000000     0.113747958 -0.065672414  0.000000000
     4.395683289  7.613546790  0.000000000     0.000000000  0.131344829  0.000000000
     0.000000000  0.000000000 22.178121567     0.000000000  0.000000000  0.045089481

  length of vectors
     8.791366577  8.791366577 22.178121567     0.131344829  0.131344829  0.045089481


 FORCES acting on ions
    electron-ion (+dipol)            ewald-force                    non-local-force                 convergence-correction
 -----------------------------------------------------------------------------------------------
   0.459E-04 -.270E-01 0.249E+04   -.954E-04 -.318E-02 -.249E+04   0.190E-12 0.289E-01 -.209E+01   -.105E-03 -.164E-02 0.126E+00
   0.152E+00 0.311E+00 0.249E+04   -.350E+00 -.276E+00 -.249E+04   0.998E-01 0.669E-01 -.154E+01   0.966E-01 -.865E-01 0.150E+00
   -.152E+00 0.311E+00 0.249E+04   0.350E+00 -.276E+00 -.249E+04   -.998E-01 0.669E-01 -.154E+01   -.971E-01 -.846E-01 0.151E+00
   0.375E+00 -.315E-01 0.249E+04   -.411E+00 -.166E+00 -.249E+04   0.739E-01 0.421E-01 -.155E+01   -.179E-01 0.147E+00 0.189E+00
   -.772E-05 -.365E-01 0.249E+04   0.981E-04 0.949E-03 -.249E+04   0.126E-12 0.192E-01 -.123E+01   0.624E-02 0.152E-01 0.280E+00
   -.375E+00 -.315E-01 0.249E+04   0.411E+00 -.166E+00 -.249E+04   -.739E-01 0.421E-01 -.155E+01   0.165E-01 0.148E+00 0.190E+00
   0.174E+00 -.272E+00 0.249E+04   -.610E-01 0.442E+00 -.249E+04   0.326E-01 -.120E+00 -.152E+01   -.132E+00 -.556E-01 0.181E+00
   -.174E+00 -.272E+00 0.249E+04   0.610E-01 0.442E+00 -.249E+04   -.326E-01 -.120E+00 -.152E+01   0.134E+00 -.566E-01 0.182E+00
   0.361E-04 0.475E-01 0.249E+04   0.792E-04 0.225E-02 -.249E+04   -.157E-12 -.239E-01 -.192E+01   -.666E-02 -.243E-01 0.748E-01
   0.311E+01 0.176E+01 0.822E+03   -.281E+01 -.164E+01 -.821E+03   -.336E+00 -.173E+00 -.765E+00   0.445E-01 0.646E-01 0.459E+00
   -.288E-04 0.314E+01 0.827E+03   0.414E-04 -.344E+01 -.827E+03   0.119E-11 0.181E+00 -.351E+00   0.628E-02 0.723E-01 0.378E+00
   -.311E+01 0.176E+01 0.822E+03   0.281E+01 -.164E+01 -.821E+03   0.336E+00 -.173E+00 -.765E+00   -.461E-01 0.656E-01 0.458E+00
   0.278E+01 -.157E+01 0.827E+03   -.296E+01 0.173E+01 -.827E+03   0.136E+00 -.119E+00 -.388E+00   0.101E-01 -.132E-01 0.372E+00
   -.278E+01 -.157E+01 0.827E+03   0.296E+01 0.173E+01 -.827E+03   -.136E+00 -.119E+00 -.388E+00   0.569E-03 -.140E-01 0.371E+00
   0.161E-04 0.117E+01 0.823E+03   -.108E-03 -.133E+01 -.823E+03   0.507E-12 0.773E-01 -.764E+00   -.163E-02 0.545E-01 0.439E+00
   -.813E-05 -.362E+01 0.822E+03   0.207E-04 0.325E+01 -.821E+03   0.284E-11 0.433E+00 -.782E+00   0.123E-03 -.725E-01 0.411E+00
   0.105E+01 -.543E+00 0.823E+03   -.117E+01 0.675E+00 -.823E+03   0.655E-01 -.499E-01 -.762E+00   0.366E-01 -.716E-01 0.409E+00
   -.105E+01 -.543E+00 0.823E+03   0.117E+01 0.675E+00 -.823E+03   -.655E-01 -.499E-01 -.762E+00   -.366E-01 -.697E-01 0.410E+00
   0.408E-04 -.602E+00 -.872E+03   -.127E-03 0.359E+00 0.871E+03   0.712E-12 0.108E+00 0.729E+00   -.130E-03 0.130E+00 0.530E+00
   0.661E+01 0.389E+01 -.858E+03   -.543E+01 -.326E+01 0.858E+03   -.125E+01 -.696E+00 -.106E+01   0.665E-01 0.397E-01 0.674E+00
   -.661E+01 0.389E+01 -.858E+03   0.543E+01 -.326E+01 0.858E+03   0.125E+01 -.696E+00 -.106E+01   -.667E-01 0.402E-01 0.674E+00
   0.158E+00 -.186E+00 -.864E+03   -.417E+00 0.394E+00 0.863E+03   0.241E+00 -.168E+00 0.433E+00   0.342E-01 -.464E-01 0.500E+00
   -.572E-04 -.794E+01 -.858E+03   0.416E-04 0.648E+01 0.858E+03   0.102E-10 0.155E+01 -.121E+01   0.762E-03 -.759E-01 0.658E+00
   -.158E+00 -.186E+00 -.864E+03   0.417E+00 0.394E+00 0.863E+03   -.241E+00 -.168E+00 0.433E+00   -.342E-01 -.467E-01 0.499E+00
   0.554E+00 0.377E+00 -.873E+03   -.355E+00 -.304E+00 0.871E+03   -.844E-01 -.331E-01 0.754E+00   -.112E+00 -.377E-01 0.597E+00
   -.553E+00 0.377E+00 -.873E+03   0.355E+00 -.304E+00 0.871E+03   0.844E-01 -.331E-01 0.754E+00   0.112E+00 -.379E-01 0.598E+00
   0.204E-04 0.136E+00 -.864E+03   0.110E-03 -.522E+00 0.863E+03   0.225E-11 0.343E+00 0.434E+00   -.246E-03 0.637E-01 0.550E+00
   0.540E-04 0.593E+00 -.250E+04   -.113E-03 -.516E+00 0.250E+04   -.288E-12 -.438E-01 0.204E+01   0.131E-02 -.493E-01 0.622E-01
   0.476E+01 0.847E+01 -.251E+04   -.403E+01 -.741E+01 0.251E+04   -.840E+00 -.117E+01 0.174E+01   0.933E-01 0.842E-01 0.457E-01
   -.476E+01 0.847E+01 -.251E+04   0.403E+01 -.741E+01 0.251E+04   0.840E+00 -.117E+01 0.174E+01   -.104E+00 0.855E-01 0.456E-01
   0.110E+02 0.442E+00 -.251E+04   -.975E+01 -.422E+00 0.250E+04   -.145E+01 -.605E-01 0.183E+01   0.232E+00 0.392E-01 0.894E-02
   -.110E+02 0.442E+00 -.251E+04   0.975E+01 -.422E+00 0.250E+04   0.145E+01 -.605E-01 0.183E+01   -.243E+00 0.400E-01 0.876E-02
   0.339E+01 -.862E+01 -.251E+04   -.280E+01 0.762E+01 0.251E+04   -.696E+00 0.120E+01 0.174E+01   0.760E-01 -.175E+00 0.559E-01
   -.339E+01 -.862E+01 -.251E+04   0.280E+01 0.762E+01 0.251E+04   0.696E+00 0.120E+01 0.174E+01   -.849E-01 -.175E+00 0.558E-01
   0.247E-04 -.493E+00 -.250E+04   0.105E-03 0.396E+00 0.250E+04   0.450E-12 0.685E-01 0.213E+01   -.531E-02 0.396E-01 0.749E-01
   -.288E-04 -.747E+00 -.147E+04   0.674E-04 0.625E+00 0.147E+04   0.795E-12 0.121E+00 -.599E+00   0.342E-02 0.375E-01 0.110E+00
   0.148E+02 -.621E-02 -.282E+03   -.173E+02 -.260E-01 0.284E+03   0.258E+01 0.139E-01 -.144E+01   -.126E-01 0.785E-02 -.291E-01
   -.148E+02 -.621E-02 -.282E+03   0.173E+02 -.260E-01 0.284E+03   -.258E+01 0.139E-01 -.144E+01   0.128E-01 0.786E-02 -.293E-01
 -----------------------------------------------------------------------------------------------
   0.315E-03 -.327E+00 -.223E+01   -.462E-13 0.306E-12 -.111E-10   0.221E-11 0.336E+00 -.866E+01   -.179E-01 -.123E-01 0.109E+02
 
 
 POSITION                                       TOTAL-FORCE (eV/Angst)
 -----------------------------------------------------------------------------------
      0.00000      0.00000      5.28219        -0.000000     -0.002847     -0.024304
      2.93046      0.00000      5.28219        -0.002009      0.016655      0.024913
      5.86091      0.00000      5.28219         0.002009      0.016655      0.024913
      1.46523      2.53785      5.28219         0.020376     -0.008234      0.022387
      4.39568      2.53785      5.28219        -0.000000     -0.001064     -0.019787
      7.32614      2.53785      5.28219        -0.020376     -0.008234      0.022387
      2.93046      5.07570      5.28219         0.012300     -0.006447      0.021887
      5.86091      5.07570      5.28219        -0.012300     -0.006447      0.021887
      8.79137      5.07570      5.28219         0.000000      0.001577      0.011964
      1.46523      0.84595      7.67490         0.006806      0.005512     -0.001828
      4.39568      0.84595      7.67490        -0.000000     -0.043326     -0.055061
      7.32614      0.84595      7.67490        -0.006806      0.005512     -0.001828
      2.93046      3.38380      7.67490        -0.031833      0.022120     -0.044454
      5.86091      3.38380      7.67490         0.031833      0.022120     -0.044454
      8.79137      3.38380      7.67490        -0.000000     -0.021564      0.002253
      4.39568      5.92165      7.67490        -0.000000     -0.013590      0.002150
      7.32614      5.92165      7.67490        -0.017547      0.011355      0.008635
     10.25659      5.92165      7.67490         0.017547      0.011355      0.008635
      8.79137      1.69455     10.06139        -0.000000     -0.003976      0.030680
      2.94158      1.69832     10.04035        -0.003606     -0.022481     -0.081307
      5.84978      1.69832     10.04035         0.003606     -0.022481     -0.081307
     10.25392      4.23129     10.05365         0.016157     -0.006760      0.000447
      4.39568      4.21690     10.04035         0.000000      0.011997     -0.062143
      7.32881      4.23129     10.05365        -0.016157     -0.006760      0.000447
     11.71953      6.76627     10.06139         0.002242      0.002041      0.008861
      5.86321      6.76627     10.06139        -0.002242      0.002041      0.008861
      8.79137      6.76451     10.05365         0.000000      0.020720     -0.000617
      0.00000      0.00000     12.42536        -0.000000     -0.015924     -0.017712
      2.96459      0.05999     12.43855        -0.013023     -0.021797     -0.013361
      5.82677      0.05999     12.43855         0.013023     -0.021797     -0.013361
      1.53425      2.53742     12.43855         0.035668     -0.000585      0.019484
      7.25712      2.53742     12.43855        -0.035668     -0.000585      0.019484
      2.96534      5.01614     12.43855        -0.017057      0.029401     -0.016921
      5.82603      5.01614     12.43855         0.017057      0.029401     -0.016921
      8.79137      5.07570     12.42471         0.000000      0.010540     -0.018047
      4.39568      2.53785     12.16969         0.000000      0.036689      0.279316
      3.92351      2.52431     13.71635         0.063783     -0.010395     -0.013089
      4.86786      2.52431     13.71635        -0.063783     -0.010395     -0.013089
 -----------------------------------------------------------------------------------
    total drift:                               -0.017576     -0.003274      0.026809


--------------------------------------------------------------------------------------------------------



  FREE ENERGIE OF THE ION-ELECTRON SYSTEM (eV)
  ---------------------------------------------------
  free  energy   TOTEN  =      -102.42437824 eV

  energy  without entropy=     -102.42437824  energy(sigma->0) =     -102.42437824
 


--------------------------------------------------------------------------------------------------------


    POTLOK:  cpu time    0.0451: real time    0.0451


--------------------------------------------------------------------------------------------------------


 stress matrix after NEB project (eV)
    -10.01236     -0.00000      0.00000
     -0.00000     -9.87578      0.04331
      0.00000      0.04331     -0.26037
  FORCES: max atom, RMS     0.065936    0.015127
  FORCE total and by dimension    0.093248    0.063783
  Stress total and by dimension   14.065911   10.012358
     LOOP+:  cpu time  161.0160: real time  161.0316
 -----------------------------------------------------------------------------
|                                                                             |
|           W    W    AA    RRRRR   N    N  II  N    N   GGGG   !!!           |
|           W    W   A  A   R    R  NN   N  II  NN   N  G    G  !!!           |
|           W    W  A    A  R    R  N N  N  II  N N  N  G       !!!           |
|           W WW W  AAAAAA  RRRRR   N  N N  II  N  N N  G  GGG   !            |
|           WW  WW  A    A  R   R   N   NN  II  N   NN  G    G                |
|           W    W  A    A  R    R  N    N  II  N    N   GGGG   !!!           |
|                                                                             |
|     Tetrahedron method does not include variations of the Fermi             |
|     occupations, so forces and stress will be inaccurate. We suggest        |
|     using a different smearing scheme ISMEAR = 1 or 2 for metals in         |
|     relaxations.                                                            |
|                                                                             |
 -----------------------------------------------------------------------------

    4ORBIT:  cpu time    0.0000: real time    0.0000



 total charge

# of ion       s       p       d       tot
------------------------------------------
    1        0.418   0.202   9.179   9.799
    2        0.417   0.203   9.177   9.798
    3        0.417   0.203   9.177   9.798
    4        0.418   0.203   9.177   9.798
    5        0.418   0.203   9.175   9.796
    6        0.418   0.203   9.177   9.798
    7        0.417   0.203   9.177   9.798
    8        0.417   0.203   9.177   9.798
    9        0.415   0.202   9.179   9.796
   10        0.407   0.269   9.163   9.839
   11        0.410   0.266   9.168   9.845
   12        0.407   0.269   9.163   9.839
   13        0.409   0.267   9.168   9.844
   14        0.409   0.267   9.168   9.844
   15        0.403   0.270   9.165   9.838
   16        0.408   0.269   9.163   9.840
   17        0.403   0.270   9.165   9.838
   18        0.403   0.270   9.165   9.838
   19        0.401   0.265   9.166   9.832
   20        0.429   0.293   9.145   9.867
   21        0.429   0.293   9.145   9.867
   22        0.396   0.275   9.165   9.836
   23        0.431   0.295   9.142   9.869
   24        0.396   0.275   9.165   9.836
   25        0.402   0.264   9.167   9.833
   26        0.402   0.264   9.167   9.833
   27        0.396   0.274   9.166   9.836
   28        0.413   0.195   9.180   9.787
   29        0.423   0.207   9.171   9.800
   30        0.423   0.207   9.171   9.800
   31        0.419   0.213   9.167   9.799
   32        0.419   0.213   9.167   9.799
   33        0.423   0.206   9.171   9.800
   34        0.423   0.206   9.171   9.800
   35        0.407   0.196   9.180   9.784
   36        0.290   0.280   5.159   5.728
   37        0.534   0.030   0.000   0.564
   38        0.534   0.030   0.000   0.564
--------------------------------------------------
tot         15.806   8.724 326.048 350.579
 
 BZINTS: Fermi energy:    0.818288;  394.000000 electrons
         Band energy:-0.126760E+04;  BLOECHL correction:   -0.017616

 total amount of memory used by VASP MPI-rank0   183861. kBytes
=======================================================================

   base      :      30000. kBytes
   nonlr-proj:      14893. kBytes
   fftplans  :       4330. kBytes
   grid      :      17879. kBytes
   one-center:        590. kBytes
   wavefun   :     116169. kBytes
 
  
  
 General timing and accounting informations for this job:
 ========================================================
  
                  Total CPU time used (sec):      174.678
                            User time (sec):      168.732
                          System time (sec):        5.946
                         Elapsed time (sec):      175.019
  
                   Maximum memory used (kb):      456208.
                   Average memory used (kb):          N/A
  
                          Minor page faults:       111246
                          Major page faults:            0
                 Voluntary context switches:         5438
