PROCAR new format
# of k-points:   10         # of bands:  252         # of ions:   39

 k-point     1 :    0.00000000 0.00000000 0.00000000     weight = 0.01562500

band     1 # energy  -23.48401433 # occ.  2.00000000
 
ion      s      p      d    tot
    1  0.000  0.000  0.000  0.000
    2  0.000  0.000  0.000  0.000
    3  0.000  0.000  0.000  0.000
    4  0.000  0.000  0.000  0.000
    5  0.000  0.000  0.000  0.000
    6  0.000  0.000  0.000  0.000
    7  0.000  0.000  0.000  0.000
    8  0.000  0.000  0.000  0.000
    9  0.000  0.000  0.000  0.000
   10  0.000  0.000  0.000  0.000
   11  0.000  0.000  0.000  0.000
   12  0.000  0.000  0.000  0.000
   13  0.000  0.000  0.000  0.000
   14  0.000  0.000  0.000  0.000
   15  0.000  0.000  0.000  0.000
   16  0.000  0.000  0.000  0.000
   17  0.000  0.000  0.000  0.000
   18  0.000  0.000  0.000  0.000
   19  0.000  0.000  0.000  0.000
   20  0.000  0.000  0.000  0.000
   21  0.000  0.000  0.000  0.000
   22  0.000  0.000  0.000  0.000
   23  0.000  0.000  0.000  0.000
   24  0.000  0.000  0.000  0.000
   25  0.000  0.000  0.000  0.000
   26  0.000  0.000  0.000  0.000
   27  0.000  0.000  0.000  0.000
   28  0.000  0.000  0.000  0.000
   29  0.000  0.000  0.000  0.000
   30  0.000  0.000  0.000  0.000
   31  0.000  0.000  0.000  0.000
   32  0.000  0.000  0.000  0.000
   33  0.000  0.000  0.000  0.000
   34  0.000  0.000  0.000  0.000
   35  0.000  0.000  0.000  0.000
   36  0.000  0.000  0.000  0.000
   37  0.073  0.054  0.000  0.126
   38  0.726  0.005  0.000  0.731
   39  0.065  0.014  0.000  0.079
tot    0.864  0.073  0.000  0.937
 
band     2 # energy  -14.24191673 # occ.  2.00000000
 
ion      s      p      d    tot
    1  0.000  0.000  0.000  0.000
    2  0.000  0.000  0.000  0.000
    3  0.000  0.000  0.000  0.000
    4  0.000  0.000  0.000  0.000
    5  0.000  0.000  0.000  0.000
    6  0.000  0.000  0.000  0.000
    7  0.000  0.000  0.000  0.000
    8  0.000  0.000  0.000  0.000
    9  0.000  0.000  0.000  0.000
   10  0.000  0.000  0.000  0.000
   11  0.000  0.000  0.000  0.000
   12  0.000  0.000  0.000  0.000
   13  0.000  0.000  0.000  0.000
   14  0.000  0.000  0.000  0.000
   15  0.000  0.000  0.000  0.000
   16  0.000  0.000  0.000  0.000
   17  0.000  0.000  0.000  0.000
   18  0.000  0.000  0.000  0.000
   19  0.000  0.000  0.000  0.000
   20  0.000  0.000  0.000  0.000
   21  0.000  0.000  0.000  0.000
   22  0.000  0.000  0.000  0.000
   23  0.000  0.000  0.000  0.000
   24  0.000  0.000  0.000  0.000
   25  0.000  0.000  0.000  0.000
   26  0.000  0.000  0.000  0.000
   27  0.000  0.000  0.000  0.000
   28  0.000  0.000  0.000  0.000
   29  0.000  0.000  0.000  0.000
   30  0.000  0.000  0.000  0.000
   31  0.000  0.000  0.000  0.000
   32  0.000  0.000  0.000  0.000
   33  0.000  0.000  0.000  0.000
   34  0.000  0.000  0.000  0.000
   35  0.000  0.000  0.000  0.000
   36  0.002  0.002  0.003  0.007
   37  0.158  0.051  0.000  0.209
   38  0.015  0.521  0.000  0.536
   39  0.201  0.032  0.000  0.233
tot    0.375  0.607  0.003  0.986
 
band     3 # energy   -6.94909349 # occ.  2.00000000
 
ion      s      p      d    tot
    1  0.001  0.000  0.000  0.001
    2  0.001  0.000  0.000  0.001
    3  0.001  0.000  0.000  0.001
    4  0.001  0.000  0.000  0.001
    5  0.001  0.000  0.000  0.001
    6  0.001  0.000  0.000  0.001
    7  0.001  0.000  0.000  0.001
    8  0.001  0.000  0.000  0.001
    9  0.001  0.000  0.000  0.001
   10  0.006  0.000  0.000  0.006
   11  0.005  0.000  0.000  0.006
   12  0.006  0.000  0.000  0.006
   13  0.005  0.000  0.000  0.006
   14  0.005  0.000  0.000  0.006
   15  0.005  0.000  0.000  0.005
   16  0.006  0.000  0.000  0.006
   17  0.005  0.000  0.000  0.005
   18  0.005  0.000  0.000  0.005
   19  0.008  0.000  0.000  0.009
   20  0.018  0.001  0.008  0.026
   21  0.018  0.001  0.008  0.026
   22  0.007  0.000  0.000  0.008
   23  0.018  0.001  0.008  0.026
   24  0.007  0.000  0.000  0.008
   25  0.008  0.000  0.000  0.009
   26  0.008  0.000  0.000  0.009
   27  0.007  0.000  0.000  0.008
   28  0.003  0.000  0.000  0.003
   29  0.005  0.000  0.001  0.006
   30  0.005  0.000  0.001  0.006
   31  0.005  0.000  0.001  0.006
   32  0.005  0.000  0.001  0.006
   33  0.005  0.000  0.001  0.006
   34  0.005  0.000  0.001  0.006
   35  0.003  0.000  0.000  0.003
   36  0.101  0.022  0.142  0.265
   37  0.119  0.104  0.000  0.223
   38  0.009  0.032  0.000  0.041
   39  0.009  0.001  0.000  0.010
tot    0.432  0.165  0.173  0.770
 
band     4 # energy   -6.56195037 # occ.  2.00000000
 
ion      s      p      d    tot
    1  0.006  0.000  0.000  0.006
    2  0.006  0.001  0.000  0.007
    3  0.006  0.001  0.000  0.007
    4  0.006  0.001  0.000  0.007
    5  0.006  0.001  0.000  0.007
    6  0.006  0.001  0.000  0.007
    7  0.006  0.001  0.000  0.007
    8  0.006  0.001  0.000  0.007
    9  0.006  0.001  0.000  0.007
   10  0.019  0.000  0.001  0.020
   11  0.021  0.000  0.000  0.021
   12  0.019  0.000  0.001  0.020
   13  0.021  0.000  0.000  0.021
   14  0.021  0.000  0.000  0.021
   15  0.021  0.000  0.000  0.021
   16  0.019  0.000  0.001  0.020
   17  0.021  0.000  0.000  0.021
   18  0.021  0.000  0.000  0.021
   19  0.013  0.000  0.000  0.014
   20  0.008  0.001  0.006  0.015
   21  0.008  0.001  0.006  0.015
   22  0.015  0.000  0.000  0.015
   23  0.008  0.001  0.006  0.015
   24  0.015  0.000  0.000  0.015
   25  0.013  0.000  0.000  0.014
   26  0.013  0.000  0.000  0.014
   27  0.015  0.000  0.000  0.015
   28  0.002  0.000  0.000  0.003
   29  0.001  0.001  0.001  0.003
   30  0.001  0.001  0.001  0.003
   31  0.001  0.001  0.001  0.003
   32  0.001  0.001  0.001  0.003
   33  0.001  0.001  0.001  0.003
   34  0.001  0.001  0.001  0.003
   35  0.003  0.000  0.000  0.003
   36  0.022  0.021  0.080  0.123
   37  0.064  0.052  0.000  0.116
   38  0.005  0.015  0.000  0.020
   39  0.005  0.000  0.000  0.005
tot    0.448  0.103  0.111  0.661
 
band     5 # energy   -6.31043311 # occ.  2.00000000
 
ion      s      p      d    tot
    1  0.000  0.000  0.000  0.000
    2  0.000  0.000  0.000  0.000
    3  0.000  0.000  0.000  0.000
    4  0.000  0.000  0.000  0.000
    5  0.000  0.000  0.000  0.000
    6  0.000  0.000  0.000  0.000
    7  0.000  0.000  0.000  0.000
    8  0.000  0.000  0.000  0.000
    9  0.000  0.000  0.000  0.000
   10  0.000  0.000  0.000  0.000
   11  0.000  0.000  0.000  0.000
   12  0.000  0.000  0.000  0.000
   13  0.000  0.000  0.000  0.000
   14  0.000  0.000  0.000  0.000
   15  0.000  0.000  0.000  0.000
   16  0.000  0.000  0.000  0.000
   17  0.000  0.000  0.000  0.000
   18  0.000  0.000  0.000  0.000
   19  0.000  0.000  0.000  0.000
   20  0.000  0.000  0.001  0.001
   21  0.000  0.000  0.000  0.000
   22  0.000  0.000  0.000  0.000
   23  0.000  0.000  0.000  0.000
   24  0.000  0.000  0.000  0.000
   25  0.000  0.000  0.000  0.000
   26  0.000  0.000  0.000  0.000
   27  0.000  0.000  0.000  0.000
   28  0.000  0.000  0.000  0.000
   29  0.000  0.000  0.001  0.002
   30  0.000  0.000  0.000  0.000
   31  0.000  0.000  0.001  0.002
   32  0.000  0.000  0.001  0.002
   33  0.000  0.000  0.000  0.000
   34  0.000  0.000  0.001  0.002
   35  0.000  0.000  0.000  0.000
   36  0.000  0.002  0.018  0.020
   37  0.000  0.110  0.000  0.110
   38  0.000  0.528  0.000  0.528
   39  0.000  0.008  0.000  0.008
tot    0.002  0.648  0.027  0.676
 
band     6 # energy   -6.31027616 # occ.  2.00000000
 
ion      s      p      d    tot
    1  0.000  0.000  0.000  0.000
    2  0.000  0.000  0.000  0.000
    3  0.000  0.000  0.000  0.000
    4  0.000  0.000  0.000  0.000
    5  0.000  0.000  0.000  0.000
    6  0.000  0.000  0.000  0.000
    7  0.000  0.000  0.000  0.000
    8  0.000  0.000  0.000  0.000
    9  0.000  0.000  0.000  0.000
   10  0.000  0.000  0.000  0.000
   11  0.000  0.000  0.000  0.000
   12  0.000  0.000  0.000  0.000
   13  0.000  0.000  0.000  0.000
   14  0.000  0.000  0.000  0.000
   15  0.000  0.000  0.000  0.000
   16  0.000  0.000  0.000  0.000
   17  0.000  0.000  0.000  0.000
   18  0.000  0.000  0.000  0.000
   19  0.000  0.000  0.000  0.000
   20  0.000  0.000  0.000  0.000
   21  0.000  0.000  0.001  0.001
   22  0.000  0.000  0.000  0.000
   23  0.000  0.000  0.001  0.001
   24  0.000  0.000  0.000  0.000
   25  0.000  0.000  0.000  0.000
   26  0.000  0.000  0.000  0.000
   27  0.000  0.000  0.000  0.000
   28  0.000  0.000  0.000  0.000
   29  0.000  0.000  0.001  0.001
   30  0.000  0.000  0.002  0.003
   31  0.000  0.000  0.001  0.001
   32  0.000  0.000  0.001  0.001
   33  0.000  0.000  0.002  0.003
   34  0.000  0.000  0.001  0.001
   35  0.000  0.000  0.000  0.000
   36  0.000  0.002  0.018  0.020
   37  0.000  0.110  0.000  0.110
   38  0.000  0.528  0.000  0.528
   39  0.000  0.008  0.000  0.008
tot    0.002  0.648  0.027  0.676
 
band     7 # energy   -5.79666581 # occ.  2.00000000
 
ion      s      p      d    tot
    1  0.008  0.000  0.000  0.008
    2  0.006  0.000  0.000  0.007
    3  0.006  0.000  0.000  0.007
    4  0.006  0.000  0.000  0.007
    5  0.006  0.000  0.000  0.006
    6  0.006  0.000  0.000  0.007
    7  0.006  0.000  0.000  0.007
    8  0.006  0.000  0.000  0.007
    9  0.006  0.000  0.000  0.006
   10  0.011  0.001  0.015  0.026
   11  0.008  0.001  0.018  0.027
   12  0.011  0.001  0.015  0.026
   13  0.008  0.001  0.018  0.027
   14  0.008  0.001  0.018  0.027
   15  0.007  0.001  0.015  0.024
   16  0.011  0.001  0.015  0.026
   17  0.007  0.001  0.015  0.024
   18  0.007  0.001  0.015  0.024
   19  0.014  0.001  0.020  0.034
   20  0.010  0.001  0.028  0.039
   21  0.010  0.001  0.028  0.039
   22  0.016  0.001  0.019  0.035
   23  0.010  0.001  0.028  0.039
   24  0.016  0.001  0.019  0.035
   25  0.014  0.001  0.020  0.034
   26  0.014  0.001  0.020  0.034
   27  0.016  0.001  0.019  0.035
   28  0.006  0.001  0.000  0.007
   29  0.004  0.001  0.001  0.005
   30  0.004  0.001  0.001  0.005
   31  0.004  0.001  0.001  0.005
   32  0.004  0.001  0.001  0.005
   33  0.004  0.001  0.001  0.005
   34  0.004  0.001  0.001  0.005
   35  0.006  0.001  0.000  0.007
   36  0.000  0.003  0.008  0.012
   37  0.006  0.004  0.000  0.010
   38  0.000  0.001  0.000  0.001
   39  0.000  0.000  0.000  0.000
tot    0.301  0.030  0.356  0.687
 
band     8 # energy   -5.54708617 # occ.  2.00000000
 
ion      s      p      d    tot
    1  0.017  0.000  0.023  0.040
    2  0.014  0.000  0.021  0.035
    3  0.014  0.000  0.021  0.035
    4  0.014  0.000  0.021  0.035
    5  0.012  0.000  0.020  0.031
    6  0.014  0.000  0.021  0.035
    7  0.014  0.000  0.021  0.035
    8  0.014  0.000  0.021  0.035
    9  0.014  0.000  0.021  0.035
   10  0.000  0.000  0.025  0.026
   11  0.000  0.000  0.014  0.015
   12  0.000  0.000  0.025  0.026
   13  0.000  0.000  0.014  0.015
   14  0.000  0.000  0.014  0.015
   15  0.000  0.001  0.013  0.014
   16  0.000  0.000  0.025  0.026
   17  0.000  0.001  0.013  0.014
   18  0.000  0.001  0.013  0.014
   19  0.000  0.000  0.011  0.011
   20  0.000  0.000  0.022  0.023
   21  0.000  0.000  0.022  0.023
   22  0.001  0.000  0.007  0.008
   23  0.000  0.000  0.022  0.023
   24  0.001  0.000  0.007  0.008
   25  0.000  0.000  0.011  0.011
   26  0.000  0.000  0.011  0.011
   27  0.001  0.000  0.007  0.008
   28  0.008  0.000  0.007  0.015
   29  0.008  0.000  0.009  0.017
   30  0.008  0.000  0.009  0.017
   31  0.008  0.000  0.009  0.017
   32  0.008  0.000  0.009  0.017
   33  0.008  0.000  0.009  0.017
   34  0.008  0.000  0.009  0.017
   35  0.011  0.000  0.008  0.018
   36  0.003  0.000  0.010  0.013
   37  0.000  0.000  0.000  0.001
   38  0.000  0.000  0.000  0.000
   39  0.000  0.000  0.000  0.000
tot    0.204  0.008  0.545  0.756
 
band     9 # energy   -5.43599630 # occ.  2.00000000
 
ion      s      p      d    tot
    1  0.000  0.000  0.009  0.009
    2  0.001  0.000  0.002  0.003
    3  0.001  0.000  0.003  0.004
    4  0.000  0.000  0.002  0.003
    5  0.000  0.000  0.003  0.003
    6  0.000  0.000  0.003  0.003
    7  0.001  0.000  0.003  0.004
    8  0.000  0.000  0.003  0.003
    9  0.000  0.000  0.002  0.002
   10  0.001  0.001  0.021  0.022
   11  0.001  0.000  0.024  0.026
   12  0.006  0.001  0.019  0.026
   13  0.001  0.000  0.023  0.024
   14  0.000  0.001  0.022  0.023
   15  0.005  0.001  0.009  0.015
   16  0.011  0.001  0.018  0.029
   17  0.003  0.000  0.015  0.018
   18  0.000  0.000  0.021  0.022
   19  0.022  0.001  0.036  0.059
   20  0.002  0.000  0.145  0.147
   21  0.012  0.000  0.083  0.095
   22  0.000  0.001  0.036  0.037
   23  0.022  0.001  0.016  0.038
   24  0.000  0.001  0.039  0.040
   25  0.002  0.001  0.030  0.033
   26  0.012  0.001  0.033  0.045
   27  0.000  0.000  0.034  0.034
   28  0.000  0.000  0.005  0.006
   29  0.000  0.000  0.005  0.006
   30  0.000  0.000  0.003  0.003
   31  0.001  0.000  0.007  0.008
   32  0.001  0.001  0.006  0.007
   33  0.000  0.000  0.002  0.003
   34  0.001  0.000  0.004  0.005
   35  0.000  0.000  0.000  0.000
   36  0.000  0.001  0.004  0.004
   37  0.000  0.000  0.000  0.000
   38  0.000  0.001  0.000  0.001
   39  0.000  0.000  0.000  0.000
tot    0.105  0.016  0.692  0.813
 
band    10 # energy   -5.43599527 # occ.  2.00000000
 
ion      s      p      d    tot
    1  0.000  0.000  0.009  0.009
    2  0.000  0.000  0.003  0.003
    3  0.000  0.000  0.003  0.003
    4  0.001  0.000  0.003  0.004
    5  0.000  0.000  0.003  0.003
    6  0.001  0.000  0.003  0.004
    7  0.000  0.000  0.002  0.003
    8  0.001  0.000  0.002  0.003
    9  0.000  0.000  0.002  0.002
   10  0.011  0.001  0.018  0.029
   11  0.000  0.001  0.022  0.023
   12  0.006  0.001  0.019  0.026
   13  0.001  0.000  0.023  0.024
   14  0.001  0.000  0.024  0.026
   15  0.000  0.000  0.022  0.022
   16  0.001  0.001  0.021  0.022
   17  0.003  0.000  0.015  0.018
   18  0.005  0.001  0.009  0.015
   19  0.001  0.001  0.030  0.033
   20  0.022  0.001  0.018  0.040
   21  0.012  0.000  0.079  0.092
   22  0.000  0.001  0.036  0.037
   23  0.001  0.000  0.147  0.149
   24  0.000  0.000  0.034  0.034
   25  0.022  0.001  0.036  0.058
   26  0.012  0.001  0.033  0.046
   27  0.000  0.001  0.039  0.040
   28  0.000  0.000  0.005  0.006
   29  0.001  0.000  0.004  0.005
   30  0.001  0.001  0.006  0.007
   31  0.000  0.000  0.002  0.003
   32  0.000  0.000  0.003  0.003
   33  0.001  0.000  0.007  0.008
   34  0.000  0.000  0.005  0.006
   35  0.000  0.000  0.000  0.000
   36  0.000  0.001  0.004  0.004
   37  0.000  0.000  0.000  0.000
   38  0.000  0.001  0.000  0.001
   39  0.000  0.000  0.000  0.000
tot    0.105  0.016  0.692  0.813
 
band    11 # energy   -5.42975686 # occ.  2.00000000
 
ion      s      p      d    tot
    1  0.000  0.000  0.006  0.006
    2  0.002  0.000  0.008  0.010
    3  0.002  0.000  0.008  0.010
    4  0.002  0.000  0.008  0.010
    5  0.004  0.000  0.008  0.012
    6  0.002  0.000  0.008  0.010
    7  0.002  0.000  0.008  0.010
    8  0.002  0.000  0.008  0.010
    9  0.003  0.000  0.001  0.005
   10  0.001  0.000  0.011  0.012
   11  0.004  0.001  0.027  0.031
   12  0.001  0.000  0.011  0.012
   13  0.004  0.001  0.027  0.031
   14  0.004  0.001  0.027  0.031
   15  0.002  0.000  0.026  0.028
   16  0.001  0.000  0.011  0.012
   17  0.002  0.000  0.026  0.028
   18  0.002  0.000  0.026  0.028
   19  0.002  0.001  0.035  0.037
   20  0.008  0.001  0.088  0.096
   21  0.008  0.001  0.088  0.096
   22  0.007  0.001  0.012  0.020
   23  0.008  0.001  0.088  0.096
   24  0.007  0.001  0.012  0.020
   25  0.002  0.001  0.035  0.037
   26  0.002  0.001  0.035  0.037
   27  0.007  0.001  0.012  0.020
   28  0.000  0.000  0.000  0.000
   29  0.001  0.000  0.006  0.007
   30  0.001  0.000  0.006  0.007
   31  0.001  0.000  0.006  0.007
   32  0.001  0.000  0.006  0.007
   33  0.001  0.000  0.006  0.007
   34  0.001  0.000  0.006  0.007
   35  0.003  0.001  0.000  0.004
   36  0.002  0.003  0.000  0.005
   37  0.003  0.002  0.000  0.004
   38  0.000  0.001  0.000  0.001
   39  0.000  0.000  0.000  0.000
tot    0.103  0.017  0.694  0.815
 
band    12 # energy   -5.42175968 # occ.  2.00000000
 
ion      s      p      d    tot
    1  0.000  0.000  0.004  0.004
    2  0.000  0.000  0.002  0.002
    3  0.001  0.000  0.006  0.007
    4  0.000  0.000  0.002  0.002
    5  0.000  0.000  0.008  0.009
    6  0.001  0.001  0.005  0.007
    7  0.001  0.000  0.006  0.007
    8  0.001  0.001  0.005  0.006
    9  0.000  0.000  0.002  0.002
   10  0.006  0.001  0.016  0.023
   11  0.008  0.001  0.059  0.068
   12  0.001  0.000  0.074  0.076
   13  0.007  0.001  0.063  0.070
   14  0.030  0.001  0.015  0.045
   15  0.002  0.001  0.016  0.020
   16  0.002  0.000  0.070  0.072
   17  0.002  0.001  0.015  0.018
   18  0.008  0.000  0.037  0.045
   19  0.000  0.000  0.034  0.035
   20  0.010  0.001  0.037  0.048
   21  0.002  0.001  0.027  0.030
   22  0.003  0.000  0.032  0.036
   23  0.003  0.001  0.028  0.032
   24  0.016  0.001  0.010  0.026
   25  0.001  0.000  0.015  0.017
   26  0.000  0.000  0.036  0.036
   27  0.004  0.000  0.030  0.035
   28  0.000  0.000  0.001  0.001
   29  0.001  0.000  0.004  0.005
   30  0.000  0.000  0.002  0.003
   31  0.001  0.000  0.004  0.005
   32  0.000  0.000  0.002  0.003
   33  0.000  0.000  0.003  0.003
   34  0.000  0.000  0.002  0.003
   35  0.000  0.000  0.006  0.006
   36  0.000  0.000  0.002  0.002
   37  0.000  0.000  0.000  0.000
   38  0.000  0.000  0.000  0.000
   39  0.000  0.000  0.000  0.000
tot    0.114  0.016  0.679  0.809
 
band    13 # energy   -5.42175639 # occ.  2.00000000
 
ion      s      p      d    tot
    1  0.000  0.000  0.004  0.004
    2  0.001  0.001  0.006  0.008
    3  0.000  0.000  0.003  0.003
    4  0.001  0.001  0.006  0.008
    5  0.000  0.000  0.008  0.009
    6  0.000  0.000  0.003  0.004
    7  0.000  0.000  0.003  0.004
    8  0.000  0.000  0.004  0.004
    9  0.000  0.000  0.002  0.002
   10  0.000  0.000  0.091  0.091
   11  0.021  0.001  0.032  0.054
   12  0.005  0.001  0.033  0.038
   13  0.023  0.001  0.028  0.052
   14  0.000  0.001  0.077  0.077
   15  0.006  0.001  0.029  0.035
   16  0.004  0.000  0.037  0.042
   17  0.006  0.001  0.030  0.037
   18  0.000  0.002  0.008  0.010
   19  0.001  0.000  0.023  0.024
   20  0.000  0.001  0.024  0.026
   21  0.008  0.001  0.034  0.043
   22  0.012  0.001  0.016  0.029
   23  0.007  0.001  0.033  0.041
   24  0.000  0.000  0.038  0.038
   25  0.000  0.000  0.042  0.042
   26  0.001  0.000  0.021  0.022
   27  0.011  0.001  0.017  0.030
   28  0.000  0.000  0.001  0.001
   29  0.000  0.000  0.002  0.002
   30  0.001  0.000  0.003  0.004
   31  0.000  0.000  0.002  0.002
   32  0.001  0.000  0.003  0.005
   33  0.001  0.000  0.003  0.004
   34  0.001  0.000  0.003  0.004
   35  0.000  0.000  0.006  0.006
   36  0.000  0.000  0.002  0.002
   37  0.000  0.000  0.000  0.000
   38  0.000  0.000  0.000  0.000
   39  0.000  0.000  0.000  0.000
tot    0.114  0.016  0.679  0.809
 
band    14 # energy   -5.41455461 # occ.  2.00000000
 
ion      s      p      d    tot
    1  0.000  0.000  0.001  0.001
    2  0.000  0.000  0.006  0.007
    3  0.000  0.000  0.006  0.007
    4  0.000  0.000  0.006  0.007
    5  0.006  0.001  0.001  0.009
    6  0.000  0.000  0.006  0.007
    7  0.000  0.000  0.006  0.007
    8  0.000  0.000  0.006  0.007
    9  0.001  0.000  0.004  0.005
   10  0.007  0.001  0.005  0.014
   11  0.011  0.000  0.030  0.041
   12  0.007  0.001  0.005  0.014
   13  0.011  0.000  0.030  0.041
   14  0.011  0.000  0.030  0.041
   15  0.001  0.000  0.039  0.039
   16  0.007  0.001  0.005  0.014
   17  0.001  0.000  0.038  0.039
   18  0.001  0.000  0.038  0.039
   19  0.017  0.001  0.024  0.041
   20  0.004  0.001  0.019  0.025
   21  0.004  0.001  0.019  0.025
   22  0.002  0.000  0.068  0.070
   23  0.004  0.001  0.019  0.025
   24  0.002  0.000  0.068  0.070
   25  0.017  0.001  0.024  0.041
   26  0.017  0.001  0.024  0.041
   27  0.002  0.000  0.068  0.070
   28  0.005  0.001  0.006  0.011
   29  0.000  0.000  0.004  0.005
   30  0.000  0.000  0.004  0.005
   31  0.000  0.000  0.004  0.005
   32  0.000  0.000  0.004  0.005
   33  0.000  0.000  0.004  0.005
   34  0.000  0.000  0.004  0.005
   35  0.002  0.001  0.007  0.010
   36  0.001  0.000  0.000  0.001
   37  0.000  0.000  0.000  0.001
   38  0.000  0.000  0.000  0.000
   39  0.000  0.000  0.000  0.000
tot    0.141  0.018  0.636  0.795
 
band    15 # energy   -5.40101833 # occ.  2.00000000
 
ion      s      p      d    tot
    1  0.001  0.001  0.018  0.019
    2  0.000  0.000  0.006  0.007
    3  0.000  0.000  0.006  0.007
    4  0.000  0.000  0.006  0.007
    5  0.001  0.000  0.003  0.004
    6  0.000  0.000  0.006  0.007
    7  0.000  0.000  0.006  0.007
    8  0.000  0.000  0.006  0.007
    9  0.005  0.001  0.003  0.009
   10  0.005  0.000  0.094  0.099
   11  0.001  0.000  0.052  0.054
   12  0.005  0.000  0.094  0.099
   13  0.001  0.000  0.052  0.054
   14  0.001  0.000  0.052  0.054
   15  0.012  0.001  0.010  0.022
   16  0.005  0.000  0.094  0.099
   17  0.012  0.001  0.010  0.022
   18  0.012  0.001  0.010  0.022
   19  0.000  0.000  0.019  0.020
   20  0.001  0.000  0.024  0.026
   21  0.001  0.000  0.024  0.026
   22  0.000  0.000  0.014  0.014
   23  0.001  0.000  0.024  0.026
   24  0.000  0.000  0.013  0.014
   25  0.000  0.000  0.019  0.020
   26  0.000  0.000  0.019  0.020
   27  0.000  0.000  0.014  0.014
   28  0.005  0.000  0.002  0.006
   29  0.000  0.000  0.008  0.008
   30  0.000  0.000  0.008  0.008
   31  0.000  0.000  0.008  0.008
   32  0.000  0.000  0.008  0.008
   33  0.000  0.000  0.008  0.008
   34  0.000  0.000  0.008  0.008
   35  0.000  0.000  0.002  0.002
   36  0.001  0.001  0.001  0.003
   37  0.000  0.000  0.000  0.000
   38  0.000  0.000  0.000  0.000
   39  0.000  0.000  0.000  0.000
tot    0.072  0.010  0.757  0.839
 
band    16 # energy   -5.38133352 # occ.  2.00000000
 
ion      s      p      d    tot
    1  0.000  0.001  0.012  0.013
    2  0.003  0.000  0.006  0.008
    3  0.001  0.001  0.010  0.012
    4  0.001  0.000  0.007  0.008
    5  0.000  0.000  0.010  0.010
    6  0.004  0.001  0.007  0.012
    7  0.000  0.000  0.010  0.011
    8  0.004  0.001  0.006  0.011
    9  0.000  0.001  0.009  0.010
   10  0.001  0.001  0.055  0.056
   11  0.000  0.000  0.031  0.031
   12  0.017  0.000  0.025  0.042
   13  0.000  0.000  0.037  0.037
   14  0.000  0.000  0.019  0.020
   15  0.010  0.000  0.046  0.056
   16  0.011  0.000  0.036  0.047
   17  0.015  0.000  0.017  0.032
   18  0.001  0.000  0.099  0.100
   19  0.001  0.000  0.026  0.027
   20  0.000  0.000  0.026  0.026
   21  0.003  0.000  0.019  0.022
   22  0.008  0.000  0.016  0.024
   23  0.002  0.000  0.021  0.023
   24  0.000  0.000  0.036  0.036
   25  0.000  0.000  0.031  0.031
   26  0.001  0.000  0.023  0.025
   27  0.005  0.000  0.023  0.028
   28  0.000  0.000  0.013  0.013
   29  0.001  0.000  0.004  0.006
   30  0.003  0.001  0.005  0.009
   31  0.003  0.000  0.004  0.007
   32  0.001  0.000  0.005  0.006
   33  0.004  0.001  0.005  0.009
   34  0.000  0.000  0.005  0.005
   35  0.000  0.000  0.005  0.006
   36  0.000  0.000  0.002  0.002
   37  0.000  0.000  0.000  0.000
   38  0.000  0.000  0.000  0.000
   39  0.000  0.000  0.000  0.000
tot    0.098  0.012  0.712  0.821
 
band    17 # energy   -5.38133198 # occ.  2.00000000
 
ion      s      p      d    tot
    1  0.000  0.001  0.012  0.013
    2  0.002  0.001  0.010  0.013
    3  0.003  0.001  0.005  0.009
    4  0.003  0.001  0.009  0.013
    5  0.000  0.000  0.010  0.010
    6  0.000  0.000  0.008  0.009
    7  0.004  0.001  0.005  0.010
    8  0.000  0.000  0.010  0.010
    9  0.000  0.001  0.009  0.010
   10  0.019  0.000  0.023  0.042
   11  0.000  0.000  0.028  0.028
   12  0.002  0.001  0.052  0.054
   13  0.000  0.000  0.021  0.021
   14  0.000  0.000  0.038  0.039
   15  0.007  0.000  0.062  0.070
   16  0.008  0.000  0.041  0.049
   17  0.002  0.000  0.091  0.093
   18  0.016  0.000  0.009  0.025
   19  0.000  0.000  0.027  0.028
   20  0.003  0.000  0.018  0.021
   21  0.000  0.000  0.025  0.026
   22  0.001  0.000  0.034  0.035
   23  0.001  0.000  0.023  0.024
   24  0.009  0.000  0.014  0.023
   25  0.001  0.000  0.023  0.024
   26  0.000  0.000  0.030  0.030
   27  0.004  0.000  0.027  0.030
   28  0.000  0.000  0.013  0.013
   29  0.003  0.001  0.005  0.008
   30  0.001  0.000  0.004  0.005
   31  0.001  0.000  0.005  0.007
   32  0.003  0.000  0.004  0.008
   33  0.000  0.000  0.005  0.005
   34  0.003  0.001  0.005  0.009
   35  0.000  0.000  0.005  0.006
   36  0.000  0.000  0.002  0.002
   37  0.000  0.000  0.000  0.000
   38  0.000  0.000  0.000  0.000
   39  0.000  0.000  0.000  0.000
tot    0.098  0.012  0.712  0.821
 
band    18 # energy   -5.38057534 # occ.  2.00000000
 
ion      s      p      d    tot
    1  0.000  0.000  0.006  0.006
    2  0.003  0.000  0.012  0.015
    3  0.002  0.000  0.012  0.015
    4  0.003  0.000  0.012  0.015
    5  0.004  0.000  0.002  0.006
    6  0.003  0.000  0.012  0.015
    7  0.002  0.000  0.012  0.015
    8  0.003  0.000  0.012  0.015
    9  0.006  0.000  0.024  0.030
   10  0.004  0.000  0.016  0.019
   11  0.000  0.000  0.007  0.008
   12  0.004  0.000  0.016  0.021
   13  0.000  0.000  0.007  0.008
   14  0.000  0.000  0.008  0.008
   15  0.002  0.000  0.049  0.051
   16  0.004  0.000  0.016  0.021
   17  0.002  0.000  0.049  0.051
   18  0.002  0.000  0.049  0.052
   19  0.000  0.001  0.012  0.013
   20  0.002  0.000  0.025  0.028
   21  0.002  0.000  0.025  0.028
   22  0.001  0.000  0.040  0.041
   23  0.002  0.000  0.025  0.028
   24  0.001  0.000  0.040  0.041
   25  0.000  0.001  0.011  0.012
   26  0.000  0.001  0.012  0.013
   27  0.001  0.000  0.040  0.041
   28  0.008  0.000  0.003  0.011
   29  0.006  0.000  0.017  0.023
   30  0.006  0.000  0.017  0.023
   31  0.006  0.000  0.017  0.023
   32  0.007  0.000  0.017  0.023
   33  0.006  0.000  0.017  0.023
   34  0.007  0.000  0.017  0.023
   35  0.012  0.000  0.029  0.041
   36  0.001  0.001  0.004  0.006
   37  0.000  0.000  0.000  0.000
   38  0.000  0.000  0.000  0.000
   39  0.000  0.000  0.000  0.000
tot    0.114  0.008  0.688  0.810
 
band    19 # energy   -5.36981485 # occ.  2.00000000
 
ion      s      p      d    tot
    1  0.000  0.000  0.007  0.007
    2  0.002  0.000  0.008  0.009
    3  0.000  0.000  0.009  0.009
    4  0.002  0.000  0.007  0.009
    5  0.000  0.000  0.006  0.006
    6  0.002  0.000  0.005  0.008
    7  0.000  0.000  0.008  0.009
    8  0.002  0.000  0.005  0.008
    9  0.000  0.000  0.018  0.019
   10  0.000  0.000  0.037  0.037
   11  0.001  0.000  0.055  0.056
   12  0.000  0.000  0.018  0.018
   13  0.002  0.000  0.051  0.052
   14  0.005  0.000  0.007  0.013
   15  0.001  0.000  0.043  0.044
   16  0.000  0.000  0.017  0.017
   17  0.001  0.000  0.042  0.043
   18  0.003  0.000  0.033  0.037
   19  0.001  0.000  0.068  0.070
   20  0.000  0.000  0.049  0.049
   21  0.000  0.000  0.022  0.023
   22  0.002  0.000  0.052  0.054
   23  0.000  0.000  0.020  0.020
   24  0.008  0.000  0.029  0.037
   25  0.006  0.000  0.007  0.013
   26  0.002  0.000  0.063  0.065
   27  0.002  0.000  0.054  0.056
   28  0.000  0.000  0.005  0.005
   29  0.001  0.000  0.007  0.008
   30  0.002  0.000  0.003  0.005
   31  0.001  0.000  0.008  0.008
   32  0.000  0.000  0.008  0.008
   33  0.002  0.000  0.003  0.005
   34  0.000  0.000  0.008  0.008
   35  0.000  0.000  0.013  0.013
   36  0.000  0.000  0.002  0.002
   37  0.000  0.000  0.000  0.000
   38  0.000  0.000  0.000  0.000
   39  0.000  0.000  0.000  0.000
tot    0.048  0.006  0.794  0.848
 
band    20 # energy   -5.36979849 # occ.  2.00000000
 
ion      s      p      d    tot
    1  0.000  0.000  0.007  0.007
    2  0.001  0.000  0.007  0.008
    3  0.003  0.000  0.006  0.008
    4  0.001  0.000  0.007  0.008
    5  0.000  0.000  0.006  0.006
    6  0.000  0.000  0.009  0.009
    7  0.002  0.000  0.006  0.009
    8  0.001  0.000  0.009  0.010
    9  0.000  0.000  0.019  0.019
   10  0.000  0.000  0.011  0.011
   11  0.004  0.000  0.020  0.025
   12  0.000  0.000  0.029  0.030
   13  0.004  0.000  0.024  0.028
   14  0.000  0.000  0.068  0.068
   15  0.003  0.000  0.036  0.039
   16  0.000  0.000  0.031  0.031
   17  0.002  0.000  0.037  0.039
   18  0.000  0.000  0.045  0.045
   19  0.005  0.000  0.024  0.029
   20  0.000  0.000  0.012  0.012
   21  0.000  0.000  0.039  0.039
   22  0.006  0.000  0.038  0.044
   23  0.000  0.000  0.041  0.041
   24  0.000  0.000  0.061  0.061
   25  0.000  0.000  0.085  0.085
   26  0.005  0.000  0.029  0.034
   27  0.007  0.000  0.036  0.043
   28  0.000  0.000  0.005  0.005
   29  0.001  0.000  0.005  0.006
   30  0.000  0.000  0.009  0.009
   31  0.001  0.000  0.004  0.006
   32  0.001  0.000  0.004  0.006
   33  0.000  0.000  0.009  0.009
   34  0.001  0.000  0.004  0.006
   35  0.000  0.000  0.013  0.013
   36  0.000  0.000  0.002  0.002
   37  0.000  0.000  0.000  0.000
   38  0.000  0.000  0.000  0.000
   39  0.000  0.000  0.000  0.000