 vasp.6.2.0 18Jan21 (build Jun 12 2021 23:27:24) complex                        
  
 executed on             LinuxIFC date 2022.05.27  05:12:58
 running on   16 total cores
 distrk:  each k-point on   16 cores,    1 groups
 distr:  one band on NCORE=   1 cores,   16 groups


--------------------------------------------------------------------------------------------------------


 INCAR:
   ISMEAR = -5
   SIGMA = 0.1
   ISPIN = 1
   EDIFF = 1.d-5
   EDIFFG = -0.01
   NSW = 0
   NELM = 150
   ENCUT = 500
   ISIF = 2
   IBRION = 2
   LREAL = Auto
   ALGO = Fast
   ICHARG = 11
   LORBIT = 10
   LCHARG = .F.
   LWAVE = .F.

 POTCAR:    PAW_PBE Au 04Oct2007                  
 POTCAR:    PAW_PBE Zr_sv 04Jan2005               
 POTCAR:    PAW_PBE H 15Jun2001                   
 -----------------------------------------------------------------------------
|                                                                             |
|           W    W    AA    RRRRR   N    N  II  N    N   GGGG   !!!           |
|           W    W   A  A   R    R  NN   N  II  NN   N  G    G  !!!           |
|           W    W  A    A  R    R  N N  N  II  N N  N  G       !!!           |
|           W WW W  AAAAAA  RRRRR   N  N N  II  N  N N  G  GGG   !            |
|           WW  WW  A    A  R   R   N   NN  II  N   NN  G    G                |
|           W    W  A    A  R    R  N    N  II  N    N   GGGG   !!!           |
|                                                                             |
|     For optimal performance we recommend to set                             |
|       NCORE = 2 up to number-of-cores-per-socket                            |
|     NCORE specifies how many cores store one orbital (NPAR=cpu/NCORE).      |
|     This setting can greatly improve the performance of VASP for DFT.       |
|     The default, NCORE=1 might be grossly inefficient on modern             |
|     multi-core architectures or massively parallel machines. Do your        |
|     own testing! More info at https://www.vasp.at/wiki/index.php/NCORE      |
|     Unfortunately you need to use the default for GW and RPA                |
|     calculations (for HF NCORE is supported but not extensively tested      |
|     yet).                                                                   |
|                                                                             |
 -----------------------------------------------------------------------------

 POTCAR:    PAW_PBE Au 04Oct2007                  
   VRHFIN =Au: s1d10                                                                                
   LEXCH  = PE                                                                                      
   EATOM  =   926.0867 eV,   68.0654 Ry                                                             
                                                                                                    
   TITEL  = PAW_PBE Au 04Oct2007                                                                    
   LULTRA =        F    use ultrasoft PP ?                                                          
   IUNSCR =        1    unscreen: 0-lin 1-nonlin 2-no                                               
   RPACOR =    2.330    partial core radius                                                         
   POMASS =  196.966; ZVAL   =   11.000    mass and valenz                                          
   RCORE  =    2.500    outmost cutoff radius                                                       
   RWIGS  =    2.840; RWIGS  =    1.503    wigner-seitz radius (au A)                               
   ENMAX  =  229.943; ENMIN  =  172.457 eV                                                          
   ICORE  =        3    local potential                                                             
   LCOR   =        T    correct aug charges                                                         
   LPAW   =        T    paw PP                                                                      
   EAUG   =  356.670                                                                                
   DEXC   =    0.000                                                                                
   RMAX   =    2.562    core radius for proj-oper                                                   
   RAUG   =    1.300    factor for augmentation sphere                                              
   RDEP   =    2.598    radius for radial grids                                                     
   RDEPT  =    2.193    core radius for aug-charge                                                  
                                                                                                    
   Atomic configuration                                                                             
   16 entries                                                                                       
     n  l   j            E        occ.                                                              
     1  0  0.50    -80748.5001   2.0000                                                             
     2  0  0.50    -14244.7466   2.0000                                                             
     2  1  1.50    -12310.9591   6.0000                                                             
     3  0  0.50     -3362.1768   2.0000                                                             
     3  1  1.50     -2801.5463   6.0000                                                             
     3  2  2.50     -2203.8206  10.0000                                                             
     4  0  0.50      -729.8168   2.0000                                                             
     4  1  1.50      -546.0527   6.0000                                                             
     4  2  2.50      -325.7302  10.0000                                                             
     4  3  3.50       -81.1472  14.0000                                                             
     5  0  0.50      -108.3201   2.0000                                                             
     5  1  1.50       -59.7479   6.0000                                                             
     5  2  2.50        -6.8783  10.0000                                                             
     6  0  0.50        -5.7602   1.0000                                                             
     6  1  1.50        -6.8029   0.0000                                                             
     5  3  2.50        -1.3606   0.0000                                                             
   Description                                                                                      
     l       E           TYP  RCUT    TYP  RCUT                                                     
     2     -6.8782861     23  2.500                                                                 
     2     -8.2388687     23  2.500                                                                 
     0     -5.7601759     23  2.500                                                                 
     0     -0.8493231     23  2.500                                                                 
     1     -2.7211652     23  2.500                                                                 
     1     27.2116520     23  2.500                                                                 
     3     -1.3605826     23  2.500                                                                 
  local pseudopotential read in
  partial core-charges read in
  partial kinetic energy density read in
  atomic valenz-charges read in
  non local Contribution for L=           2  read in
    real space projection operators read in
  non local Contribution for L=           2  read in
    real space projection operators read in
  non local Contribution for L=           0  read in
    real space projection operators read in
  non local Contribution for L=           0  read in
    real space projection operators read in
  non local Contribution for L=           1  read in
    real space projection operators read in
  non local Contribution for L=           1  read in
    real space projection operators read in
    PAW grid and wavefunctions read in
 
   number of l-projection  operators is LMAX  =           6
   number of lm-projection operators is LMMAX =          18
 
 POTCAR:    PAW_PBE Zr_sv 04Jan2005               
   VRHFIN =Zr: 4s4p5s4d                                                                             
   LEXCH  = PE                                                                                      
   EATOM  =  1284.2219 eV,   94.3876 Ry                                                             
                                                                                                    
   TITEL  = PAW_PBE Zr_sv 04Jan2005                                                                 
   LULTRA =        F    use ultrasoft PP ?                                                          
   IUNSCR =        1    unscreen: 0-lin 1-nonlin 2-no                                               
   RPACOR =    2.200    partial core radius                                                         
   POMASS =   91.224; ZVAL   =   12.000    mass and valenz                                          
   RCORE  =    2.500    outmost cutoff radius                                                       
   RWIGS  =    3.070; RWIGS  =    1.625    wigner-seitz radius (au A)                               
   ENMAX  =  229.898; ENMIN  =  172.424 eV                                                          
   ICORE  =        3    local potential                                                             
   LCOR   =        T    correct aug charges                                                         
   LPAW   =        T    paw PP                                                                      
   EAUG   =  461.257                                                                                
   DEXC   =    0.000                                                                                
   RMAX   =    2.561    core radius for proj-oper                                                   
   RAUG   =    1.300    factor for augmentation sphere                                              
   RDEP   =    2.597    radius for radial grids                                                     
   RDEPT  =    2.007    core radius for aug-charge                                                  
                                                                                                    
   Atomic configuration                                                                             
   11 entries                                                                                       
     n  l   j            E        occ.                                                              
     1  0  0.50    -17820.0161   2.0000                                                             
     2  0  0.50     -2467.0882   2.0000                                                             
     2  1  1.50     -2199.6095   6.0000                                                             
     3  0  0.50      -402.4863   2.0000                                                             
     3  1  1.50      -315.3675   6.0000                                                             
     3  2  2.50      -172.4472  10.0000                                                             
     4  0  0.50       -52.4146   2.0000                                                             
     5  0  0.50        -3.8421   1.0000                                                             
     4  1  1.50       -30.5054   6.0000                                                             
     4  2  2.50        -2.3341   3.0000                                                             
     4  3  2.50        -1.3606   0.0000                                                             
   Description                                                                                      
     l       E           TYP  RCUT    TYP  RCUT                                                     
     0    -52.4145962     23  2.200                                                                 
     0     -3.8421270     23  2.500                                                                 
     1    -30.5053914     23  2.200                                                                 
     1     20.4087390     23  2.200                                                                 
     2     -2.3340816     23  2.500                                                                 
     2     -0.6120942     23  2.500                                                                 
     3     -4.0817478     23  2.500                                                                 
  local pseudopotential read in
  partial core-charges read in
  partial kinetic energy density read in
  atomic valenz-charges read in
  non local Contribution for L=           0  read in
    real space projection operators read in
  non local Contribution for L=           0  read in
    real space projection operators read in
  non local Contribution for L=           1  read in
    real space projection operators read in
  non local Contribution for L=           1  read in
    real space projection operators read in
  non local Contribution for L=           2  read in
    real space projection operators read in
  non local Contribution for L=           2  read in
    real space projection operators read in
    PAW grid and wavefunctions read in
 
   number of l-projection  operators is LMAX  =           6
   number of lm-projection operators is LMMAX =          18
 
 POTCAR:    PAW_PBE H 15Jun2001                   
   VRHFIN =H: ultrasoft test                                                                        
   LEXCH  = PE                                                                                      
   EATOM  =    12.4884 eV,    0.9179 Ry                                                             
                                                                                                    
   TITEL  = PAW_PBE H 15Jun2001                                                                     
   LULTRA =        F    use ultrasoft PP ?                                                          
   IUNSCR =        0    unscreen: 0-lin 1-nonlin 2-no                                               
   RPACOR =    0.000    partial core radius                                                         
   POMASS =    1.000; ZVAL   =    1.000    mass and valenz                                          
   RCORE  =    1.100    outmost cutoff radius                                                       
   RWIGS  =    0.700; RWIGS  =    0.370    wigner-seitz radius (au A)                               
   ENMAX  =  250.000; ENMIN  =  200.000 eV                                                          
   RCLOC  =    0.701    cutoff for local pot                                                        
   LCOR   =        T    correct aug charges                                                         
   LPAW   =        T    paw PP                                                                      
   EAUG   =  400.000                                                                                
   RMAX   =    1.123    core radius for proj-oper                                                   
   RAUG   =    1.200    factor for augmentation sphere                                              
   RDEP   =    1.112    radius for radial grids                                                     
   RDEPT  =    0.926    core radius for aug-charge                                                  
                                                                                                    
   Atomic configuration                                                                             
    2 entries                                                                                       
     n  l   j            E        occ.                                                              
     1  0  0.50        -6.4927   1.0000                                                             
     2  1  0.50        -3.4015   0.0000                                                             
   Description                                                                                      
     l       E           TYP  RCUT    TYP  RCUT                                                     
     0     -6.4927494     23  1.100                                                                 
     0      6.8029130     23  1.100                                                                 
     1     -4.0817478     23  1.100                                                                 
  local pseudopotential read in
  atomic valenz-charges read in
  non local Contribution for L=           0  read in
    real space projection operators read in
  non local Contribution for L=           0  read in
    real space projection operators read in
  non local Contribution for L=           1  read in
    real space projection operators read in
    PAW grid and wavefunctions read in
 
   number of l-projection  operators is LMAX  =           3
   number of lm-projection operators is LMMAX =           5
 
 Optimization of the real space projectors (new method)

 maximal supplied QI-value         = 15.12
 optimisation between [QCUT,QGAM] = [ 11.34, 22.83] = [ 36.00,145.93] Ry 
 Optimized for a Real-space Cutoff    1.39 Angstroem

   l    n(q)    QCUT    max X(q) W(low)/X(q) W(high)/X(q)  e(spline) 
   2      9    11.338    60.898    0.39E-03    0.42E-03    0.21E-06
   2      9    11.338    58.894    0.40E-03    0.42E-03    0.22E-06
   0      9    11.338   109.617    0.13E-03    0.20E-04    0.13E-06
   0      9    11.338    75.026    0.13E-03    0.20E-04    0.13E-06
   1      9    11.338    16.344    0.33E-04    0.24E-03    0.18E-06
   1      9    11.338    10.160    0.26E-04    0.19E-03    0.15E-06
 Optimization of the real space projectors (new method)

 maximal supplied QI-value         = 15.12
 optimisation between [QCUT,QGAM] = [ 11.34, 22.83] = [ 36.00,145.93] Ry 
 Optimized for a Real-space Cutoff    1.47 Angstroem

   l    n(q)    QCUT    max X(q) W(low)/X(q) W(high)/X(q)  e(spline) 
   0     10    11.338    12.107    0.38E-04    0.13E-04    0.27E-07
   0     10    11.338     9.948    0.69E-04    0.30E-04    0.38E-07
   1     10    11.338     3.563    0.26E-04    0.18E-04    0.40E-07
   1     10    11.338     4.524    0.25E-03    0.39E-04    0.44E-06
   2      9    11.338    87.261    0.26E-03    0.91E-05    0.26E-06
   2      9    11.338    70.950    0.25E-03    0.91E-05    0.25E-06
 Optimization of the real space projectors (new method)

 maximal supplied QI-value         = 34.20
 optimisation between [QCUT,QGAM] = [ 11.29, 22.57] = [ 35.68,142.71] Ry 
 Optimized for a Real-space Cutoff    1.16 Angstroem

   l    n(q)    QCUT    max X(q) W(low)/X(q) W(high)/X(q)  e(spline) 
   0      8    11.287    19.460    0.40E-03    0.73E-03    0.16E-06
   0      8    11.287    12.209    0.38E-03    0.70E-03    0.15E-06
   1      7    11.287     4.655    0.22E-03    0.25E-04    0.22E-06
  PAW_PBE Au 04Oct2007                  :
 energy of atom  1       EATOM= -926.0867
 kinetic energy error for atom=    0.0042 (will be added to EATOM!!)
  PAW_PBE Zr_sv 04Jan2005               :
 energy of atom  2       EATOM=-1284.2219
 kinetic energy error for atom=    0.0049 (will be added to EATOM!!)
  PAW_PBE H 15Jun2001                   :
 energy of atom  3       EATOM=  -12.4884
 kinetic energy error for atom=    0.0020 (will be added to EATOM!!)
 
 
 POSCAR: Au-Zr-H2
  positions in direct lattice
  velocities in cartesian coordinates
 exchange correlation table for  LEXCH =        8
   RHO(1)=    0.500       N(1)  =     2000
   RHO(2)=  100.500       N(2)  =     4000

 VTST: version 3.2, (02/03/18)

 CHAIN: initializing optimizer
 
 OPT: Using VASP Conjugate-Gradient optimizer
 CHAIN: Read ICHAIN            0
 
 POSCAR: Au-Zr-H2
  positions in direct lattice
  velocities in cartesian coordinates
 


--------------------------------------------------------------------------------------------------------


 ion  position               nearest neighbor table
   1  0.000  0.000  0.217-  16 2.94  12 2.94   6 2.94   8 2.94   7 2.94   3 2.94  10 2.94   4 2.94
                             2 2.94
   2  0.333  0.000  0.217-   9 2.94  11 2.94  17 2.94  10 2.94   8 2.94   4 2.94   5 2.94   1 2.94
                             3 2.94
   3  0.667  0.000  0.217-   7 2.94  18 2.94  12 2.94   1 2.94  11 2.94   5 2.94   6 2.94   9 2.94
                             2 2.94
   4  0.000  0.333  0.217-  10 2.94   6 2.94   5 2.94  13 2.94   2 2.94  15 2.94   9 2.94   1 2.94
                             7 2.94
   5  0.333  0.333  0.217-  13 2.94   7 2.94  11 2.94   4 2.94   2 2.94  14 2.94   3 2.94   8 2.94
                             6 2.94
   6  0.667  0.333  0.217-  15 2.94  14 2.94   1 2.94  12 2.94   4 2.94   9 2.94   8 2.94   3 2.94
                             5 2.94
   7  0.000  0.667  0.217-  18 2.94   3 2.94  16 2.94   5 2.94   1 2.94  13 2.94   8 2.94   4 2.94
                             9 2.94
   8  0.333  0.667  0.217-   9 2.94  17 2.94   1 2.94   2 2.94  14 2.94  16 2.94   6 2.94   7 2.94
                             5 2.94
   9  0.667  0.667  0.217-   2 2.94   8 2.94  17 2.94   6 2.94  15 2.94   4 2.94   3 2.94  18 2.94
                             7 2.94
  10  0.111  0.111  0.316-  20 2.93  26 2.93  19 2.93  11 2.94  17 2.94   2 2.94   4 2.94   1 2.94
                            12 2.94  16 2.94  13 2.94  15 2.94
  11  0.444  0.111  0.316-  20 2.92  21 2.92  27 2.94  13 2.94   2 2.94  10 2.94  17 2.94   5 2.94
                             3 2.94  18 2.94  14 2.94  12 2.94
  12  0.778  0.111  0.316-  21 2.93  25 2.93  19 2.93  16 2.94  18 2.94   1 2.94  14 2.94  15 2.94
                             3 2.94   6 2.94  10 2.94  11 2.94
  13  0.111  0.444  0.316-  23 2.92  20 2.92  22 2.94   5 2.94  18 2.94  11 2.94   7 2.94   4 2.94
                            16 2.94  10 2.94  14 2.94  15 2.94
  14  0.444  0.444  0.316-  21 2.92  23 2.92  24 2.94  15 2.94   6 2.94  12 2.94   8 2.94  17 2.94
                             5 2.94  16 2.94  13 2.94  11 2.94
  15  0.778  0.444  0.316-  24 2.93  22 2.93  19 2.93  14 2.94   6 2.94  17 2.94  12 2.94   9 2.94
                             4 2.94  10 2.94  13 2.94  18 2.94
  16  0.111  0.778  0.316-  23 2.93  25 2.93  26 2.93  18 2.94  12 2.94   7 2.94   1 2.94   8 2.94
                            13 2.94  10 2.94  14 2.94  17 2.94
  17  0.444  0.778  0.316-  27 2.93  24 2.93  26 2.93   9 2.94  15 2.94   2 2.94  10 2.94  11 2.94
                             8 2.94  14 2.94  16 2.94  18 2.94
  18  0.778  0.778  0.316-  22 2.93  27 2.93  25 2.93  16 2.94   7 2.94  13 2.94  12 2.94   3 2.94
                            11 2.94   9 2.94  15 2.94  17 2.94
  19  0.889  0.222  0.414-  10 2.93  12 2.93  15 2.93  26 2.94  25 2.94  24 2.94  22 2.94  21 2.95
                            20 2.95  28 2.96  32 3.04  31 3.04
  20  0.223  0.223  0.414-  36 2.86  23 2.92  21 2.92  11 2.92  13 2.92  10 2.93  27 2.94  22 2.94
                            26 2.95  19 2.95  29 3.00  31 3.00
  21  0.554  0.223  0.414-  36 2.86  20 2.92  23 2.92  14 2.92  11 2.92  12 2.93  27 2.94  24 2.94
                            25 2.95  19 2.95  30 3.00  32 3.00
  22  0.888  0.556  0.414-  24 2.92  27 2.92  18 2.93  15 2.93  13 2.94  25 2.94  19 2.94  23 2.94
                            20 2.94  35 2.96  33 3.01  31 3.01
  23  0.223  0.554  0.414-  36 2.86  20 2.92  21 2.92  13 2.92  14 2.92  16 2.93  22 2.94  24 2.94
                            25 2.95  26 2.95  33 3.00  34 3.00
  24  0.556  0.556  0.414-  27 2.92  22 2.92  15 2.93  17 2.93  14 2.94  26 2.94  19 2.94  21 2.94
                            23 2.94  35 2.96  32 3.01  34 3.01
  25  0.889  0.889  0.414-  16 2.93  12 2.93  18 2.93  19 2.94  26 2.94  22 2.94  27 2.94  23 2.95
                            21 2.95  28 2.96  33 3.04  30 3.04
  26  0.222  0.889  0.414-  10 2.93  16 2.93  17 2.93  19 2.94  25 2.94  27 2.94  24 2.94  20 2.95
                            23 2.95  28 2.96  29 3.04  34 3.04
  27  0.556  0.888  0.414-  24 2.92  22 2.92  17 2.93  18 2.93  11 2.94  26 2.94  25 2.94  20 2.94
                            21 2.94  35 2.96  29 3.01  30 3.01
  28  0.000  0.000  0.514-  25 2.96  19 2.96  26 2.96  34 2.97  32 2.97  33 2.97  30 2.97  31 2.97
                            29 2.97
  29  0.334  0.006  0.517-  30 2.88  31 2.89  36 2.89  35 2.96  28 2.97  20 3.00  27 3.01  26 3.04
                            34 3.04
  30  0.661  0.006  0.517-  29 2.88  32 2.89  36 2.89  35 2.96  28 2.97  21 3.00  27 3.01  25 3.04
                            33 3.04
  31  0.006  0.334  0.517-  33 2.88  29 2.89  36 2.89  35 2.96  28 2.97  20 3.00  22 3.01  19 3.04
                            32 3.04
  32  0.661  0.334  0.517-  34 2.88  30 2.89  36 2.89  35 2.96  28 2.97  21 3.00  24 3.01  19 3.04
                            31 3.04
  33  0.006  0.661  0.517-  31 2.88  34 2.89  36 2.89  35 2.96  28 2.97  23 3.00  22 3.01  25 3.04
                            30 3.04
  34  0.334  0.661  0.517-  32 2.88  33 2.89  36 2.89  35 2.96  28 2.97  23 3.00  24 3.01  26 3.04
                            29 3.04
  35  0.667  0.667  0.515-  24 2.96  27 2.96  22 2.96  29 2.96  34 2.96  32 2.96  31 2.96  30 2.96
                            33 2.96
  36  0.333  0.333  0.509-  37 2.25  38 2.25  20 2.86  23 2.86  21 2.86  33 2.89  31 2.89  29 2.89
                            30 2.89  34 2.89  32 2.89
  37  0.289  0.334  0.600-  38 0.78  36 2.25
  38  0.377  0.334  0.600-  37 0.78  36 2.25
 
  LATTYP: Found a hexagonal cell.
 ALAT       =     8.8135128021
 C/A-ratio  =     2.7579977726
  
  Lattice vectors:
  
 A1 = (  -4.4067569092,  -7.6327256898,   0.0000000000)
 A2 = (   8.8135128021,   0.0000000000,   0.0000000000)
 A3 = (   0.0000000000,   0.0000000000,  24.3076486773)


Analysis of symmetry for initial positions (statically):
=====================================================================
 Subroutine PRICEL returns:
 Original cell was already a primitive cell.
 

 Routine SETGRP: Setting up the symmetry group for a 
 hexagonal supercell.


 Subroutine GETGRP returns: Found  2 space group operations
 (whereof  2 operations were pure point group operations)
 out of a pool of 24 trial point group operations.


The static configuration has the point symmetry C_1h.


Analysis of symmetry for dynamics (positions and initial velocities):
=====================================================================
 Subroutine PRICEL returns:
 Original cell was already a primitive cell.
 

 Routine SETGRP: Setting up the symmetry group for a 
 hexagonal supercell.


 Subroutine GETGRP returns: Found  2 space group operations
 (whereof  2 operations were pure point group operations)
 out of a pool of 24 trial point group operations.


The dynamic configuration has the point symmetry C_1h.


Analysis of constrained symmetry for selective dynamics:
=====================================================================
 Subroutine PRICEL returns:
 Original cell was already a primitive cell.
 

 Routine SETGRP: Setting up the symmetry group for a 
 hexagonal supercell.


 Subroutine GETGRP returns: Found  2 space group operations
 (whereof  2 operations were pure point group operations)
 out of a pool of 24 trial point group operations.


The constrained configuration has the point symmetry C_1h.


 Subroutine INISYM returns: Found  2 space group operations
 (whereof  2 operations are pure point group operations),
 and found     1 'primitive' translations


----------------------------------------------------------------------------------------

                                     Primitive cell                                     

  volume of cell :    1635.2029

  direct lattice vectors                    reciprocal lattice vectors
     8.813512802  0.000000000  0.000000000     0.113462137 -0.065507406  0.000000000
     4.406756909  7.632725690  0.000000000     0.000000000  0.131014796  0.000000000
     0.000000000  0.000000000 24.307648677     0.000000000  0.000000000  0.041139314

  length of vectors
     8.813512802  8.813512802 24.307648677     0.131014796  0.131014796  0.041139314

  position of ions in fractional coordinates (direct lattice)
     0.000000000  0.000000000  0.217231210
     0.333333343  0.000000000  0.217231210
     0.666666687  0.000000000  0.217231210
     1.000000000  0.333333343  0.217231210
     0.333333313  0.333333343  0.217231210
     0.666666687  0.333333343  0.217231210
     1.000000000  0.666666687  0.217231210
     0.333333343  0.666666687  0.217231210
     0.666666627  0.666666687  0.217231210
     0.111111119  0.111111112  0.315913487
     0.444444418  0.111111112  0.315913487
     0.777777791  0.111111112  0.315913487
     0.111111127  0.444444448  0.315913487
     0.444444478  0.444444448  0.315913487
     0.777777731  0.444444448  0.315913487
     0.111111090  0.777777791  0.315913487
     0.444444448  0.777777791  0.315913487
     0.777777851  0.777777791  0.315913487
     0.888918409  0.222163199  0.414374834
     0.222784835  0.222784820  0.414001411
     0.554430391  0.222784820  0.414001411
     0.887870934  0.556064563  0.414339439
     0.222784790  0.554430391  0.414001411
     0.556064563  0.556064563  0.414339439
     0.888918409  0.888918409  0.414374834
     0.222163229  0.888918409  0.414374834
     0.556064503  0.887870934  0.414339439
     0.000000000  0.000000000  0.514182895
     0.333504088  0.005941424  0.516707274
     0.660554518  0.005941424  0.516707274
     0.005941424  0.333504088  0.516707274
     0.660554518  0.333504088  0.516707274
     0.005941424  0.660554518  0.516707274
     0.333504088  0.660554518  0.516707274
     0.666666627  0.666666687  0.514514290
     0.333333313  0.333333343  0.509064806
     0.288676988  0.334026474  0.600141495
     0.377296507  0.334026474  0.600141495

  ion indices of the primitive-cell ions
   primitive index   ion index
                 1           1
                 2           2
                 3           3
                 4           4
                 5           5
                 6           6
                 7           7
                 8           8
                 9           9
                10          10
                11          11
                12          12
                13          13
                14          14
                15          15
                16          16
                17          17
                18          18
                19          19
                20          20
                21          21
                22          22
                23          23
                24          24
                25          25
                26          26
                27          27
                28          28
                29          29
                30          30
                31          31
                32          32
                33          33
                34          34
                35          35
                36          36
                37          37
                38          38

----------------------------------------------------------------------------------------

 
 
 KPOINTS: Automatic mesh                          

Automatic generation of k-mesh.
 Grid dimensions read from file:
 generate k-points for:    8    8    1

 Generating k-lattice:

  Cartesian coordinates                     Fractional coordinates (reciprocal lattice)
     0.014182767 -0.008188426  0.000000000     0.125000000 -0.000000000  0.000000000
     0.000000000  0.016376850  0.000000000     0.000000000  0.125000000  0.000000000
     0.000000000  0.000000000  0.041139314     0.000000000  0.000000000  1.000000000

  Length of vectors
     0.016376850  0.016376850  0.041139314

  Shift w.r.t. Gamma in fractional coordinates (k-lattice)
     0.000000000  0.000000000  0.000000000

 TETIRR: Found    100 inequivalent tetrahedra from      384
 
 Subroutine IBZKPT returns following result:
 ===========================================
 
 Found     21 irreducible k-points:
 
 Following reciprocal coordinates:
            Coordinates               Weight
  0.000000  0.000000  0.000000      1.000000
  0.125000 -0.000000  0.000000      4.000000
  0.000000  0.125000  0.000000      2.000000
  0.250000 -0.000000  0.000000      4.000000
  0.000000  0.250000  0.000000      2.000000
  0.375000 -0.000000  0.000000      4.000000
  0.000000  0.375000  0.000000      2.000000
  0.500000 -0.000000  0.000000      2.000000
  0.000000  0.500000  0.000000      1.000000
  0.250000  0.125000  0.000000      2.000000
  0.125000  0.250000  0.000000      4.000000
  0.375000  0.125000  0.000000      4.000000
  0.250000  0.375000  0.000000      4.000000
 -0.125000  0.250000  0.000000      4.000000
  0.500000  0.125000  0.000000      4.000000
  0.375000  0.500000  0.000000      4.000000
 -0.125000  0.375000  0.000000      4.000000
  0.500000  0.250000  0.000000      2.000000
  0.250000  0.500000  0.000000      4.000000
 -0.375000  0.250000  0.000000      4.000000
 -0.250000  0.375000  0.000000      2.000000
 
 Following cartesian coordinates:
            Coordinates               Weight
  0.000000  0.000000  0.000000      1.000000
  0.014183 -0.008188  0.000000      4.000000
  0.000000  0.016377  0.000000      2.000000
  0.028366 -0.016377  0.000000      4.000000
  0.000000  0.032754  0.000000      2.000000
  0.042548 -0.024565  0.000000      4.000000
  0.000000  0.049131  0.000000      2.000000
  0.056731 -0.032754  0.000000      2.000000
  0.000000  0.065507  0.000000      1.000000
  0.028366 -0.000000  0.000000      2.000000
  0.014183  0.024565  0.000000      4.000000
  0.042548 -0.008188  0.000000      4.000000
  0.028366  0.032754  0.000000      4.000000
 -0.014183  0.040942  0.000000      4.000000
  0.056731 -0.016377  0.000000      4.000000
  0.042548  0.040942  0.000000      4.000000
 -0.014183  0.057319  0.000000      4.000000
  0.056731 -0.000000  0.000000      2.000000
  0.028366  0.049131  0.000000      4.000000
 -0.042548  0.057319  0.000000      4.000000
 -0.028366  0.065507  0.000000      2.000000
 


--------------------------------------------------------------------------------------------------------




 Dimension of arrays:
   k-points           NKPTS =     21   k-points in BZ     NKDIM =     21   number of bands    NBANDS=    240
   number of dos      NEDOS =    301   number of ions     NIONS =     38
   non local maximal  LDIM  =      6   non local SUM 2l+1 LMDIM =     18
   total plane-waves  NPLWV = 322560
   max r-space proj   IRMAX =   2698   max aug-charges    IRDMAX=  12261
   dimension x,y,z NGX =    48 NGY =   48 NGZ =  140
   dimension x,y,z NGXF=    96 NGYF=   96 NGZF=  280
   support grid    NGXF=    96 NGYF=   96 NGZF=  280
   ions per type =              35   1   2
   NGX,Y,Z   is equivalent  to a cutoff of   9.05,  9.05,  9.57 a.u.
   NGXF,Y,Z  is equivalent  to a cutoff of  18.11, 18.11, 19.15 a.u.

 SYSTEM =  unknown system                          
 POSCAR =  Au-Zr-H2                                

 Startparameter for this run:
   NWRITE =      2    write-flag & timer
   PREC   = normal    normal or accurate (medium, high low for compatibility)
   ISTART =      0    job   : 0-new  1-cont  2-samecut
   ICHARG =     11    charge: 1-file 2-atom 10-const
   ISPIN  =      1    spin polarized calculation?
   LNONCOLLINEAR =      F non collinear calculations
   LSORBIT =      F    spin-orbit coupling
   INIWAV =      1    electr: 0-lowe 1-rand  2-diag
   LASPH  =      F    aspherical Exc in radial PAW
   METAGGA=      F    non-selfconsistent MetaGGA calc.

 Electronic Relaxation 1
   ENCUT  =  500.0 eV  36.75 Ry    6.06 a.u.  16.07 16.07 44.32*2*pi/ulx,y,z
   ENINI  =  500.0     initial cutoff
   ENAUG  =  461.3 eV  augmentation charge cutoff
   NELM   =    150;   NELMIN=  2; NELMDL= -5     # of ELM steps 
   EDIFF  = 0.1E-04   stopping-criterion for ELM
   LREAL  =      T    real-space projection
   NLSPLINE    = F    spline interpolate recip. space projectors
   LCOMPAT=      F    compatible to vasp.4.4
   GGA_COMPAT  = T    GGA compatible to vasp.4.4-vasp.4.6
   LMAXPAW     = -100 max onsite density
   LMAXMIX     =    2 max onsite mixed and CHGCAR
   VOSKOWN=      0    Vosko Wilk Nusair interpolation
   ROPT   =   -0.00050  -0.00050  -0.00050
 Ionic relaxation
   EDIFFG = -.1E-01   stopping-criterion for IOM
   NSW    =      0    number of steps for IOM
   NBLOCK =      1;   KBLOCK =      1    inner block; outer block 
   IBRION =     -1    ionic relax: 0-MD 1-quasi-New 2-CG
   NFREE  =      1    steps in history (QN), initial steepest desc. (CG)
   ISIF   =      2    stress and relaxation
   IWAVPR =     10    prediction:  0-non 1-charg 2-wave 3-comb
   ISYM   =      2    0-nonsym 1-usesym 2-fastsym
   LCORR  =      T    Harris-Foulkes like correction to forces

   POTIM  = 0.5000    time-step for ionic-motion
   TEIN   =    0.0    initial temperature
   TEBEG  =    0.0;   TEEND  =   0.0 temperature during run
   SMASS  =  -3.00    Nose mass-parameter (am)
   estimated Nose-frequenzy (Omega)   =  0.10E-29 period in steps = 0.13E+47 mass=  -0.178E-26a.u.
   SCALEE = 1.0000    scale energy and forces
   NPACO  =    256;   APACO  = 16.0  distance and # of slots for P.C.
   PSTRESS=    0.0 pullay stress

  Mass of Ions in am
   POMASS = 196.97 91.22  1.00
  Ionic Valenz
   ZVAL   =  11.00 12.00  1.00
  Atomic Wigner-Seitz radii
   RWIGS  =  -1.00 -1.00 -1.00
  virtual crystal weights 
   VCA    =   1.00  1.00  1.00
   NELECT =     399.0000    total number of electrons
   NUPDOWN=      -1.0000    fix difference up-down

 DOS related values:
   EMIN   =  10.00;   EMAX   =-10.00  energy-range for DOS
   EFERMI =   0.00
   ISMEAR =    -5;   SIGMA  =   0.10  broadening in eV -4-tet -1-fermi 0-gaus

 Electronic relaxation 2 (details)
   IALGO  =     68    algorithm
   LDIAG  =      T    sub-space diagonalisation (order eigenvalues)
   LSUBROT=      F    optimize rotation matrix (better conditioning)
   TURBO    =      0    0=normal 1=particle mesh
   IRESTART =      0    0=no restart 2=restart with 2 vectors
   NREBOOT  =      0    no. of reboots
   NMIN     =      0    reboot dimension
   EREF     =   0.00    reference energy to select bands
   IMIX   =      4    mixing-type and parameters
     AMIX     =   0.40;   BMIX     =  1.00
     AMIX_MAG =   1.60;   BMIX_MAG =  1.00
     AMIN     =   0.10
     WC   =   100.;   INIMIX=   1;  MIXPRE=   1;  MAXMIX= -45

 Intra band minimization:
   WEIMIN = 0.0000     energy-eigenvalue tresh-hold
   EBREAK =  0.10E-07  absolut break condition
   DEPER  =   0.30     relativ break condition  

   TIME   =   0.40     timestep for ELM

  volume/ion in A,a.u.               =      43.03       290.39
  Fermi-wavevector in a.u.,A,eV,Ry     =   1.022999  1.933188 14.238866  1.046527
  Thomas-Fermi vector in A             =   2.156709
 
 Write flags
   LWAVE        =      F    write WAVECAR
   LDOWNSAMPLE  =      F    k-point downsampling of WAVECAR
   LCHARG       =      F    write CHGCAR
   LVTOT        =      F    write LOCPOT, total local potential
   LVHAR        =      F    write LOCPOT, Hartree potential only
   LELF         =      F    write electronic localiz. function (ELF)
   LORBIT       =     10    0 simple, 1 ext, 2 COOP (PROOUT), +10 PAW based schemes


 Dipole corrections
   LMONO  =      F    monopole corrections only (constant potential shift)
   LDIPOL =      F    correct potential (dipole corrections)
   IDIPOL =      0    1-x, 2-y, 3-z, 4-all directions 
   EPSILON=  1.0000000 bulk dielectric constant

 Exchange correlation treatment:
   GGA     =    --    GGA type
   LEXCH   =     8    internal setting for exchange type
   VOSKOWN=      0    Vosko Wilk Nusair interpolation
   LHFCALC =     F    Hartree Fock is set to
   LHFONE  =     F    Hartree Fock one center treatment
   AEXX    =    0.0000 exact exchange contribution

 Linear response parameters
   LEPSILON=     F    determine dielectric tensor
   LRPA    =     F    only Hartree local field effects (RPA)
   LNABLA  =     F    use nabla operator in PAW spheres
   LVEL    =     F    velocity operator in full k-point grid
   LINTERFAST=   F  fast interpolation
   KINTER  =     0    interpolate to denser k-point grid
   CSHIFT  =0.1000    complex shift for real part using Kramers Kronig
   OMEGAMAX=  -1.0    maximum frequency
   DEG_THRESHOLD= 0.2000000E-02 threshold for treating states as degnerate
   RTIME   =   -0.100 relaxation time in fs
  (WPLASMAI=    0.000 imaginary part of plasma frequency in eV, 0.658/RTIME)
   DFIELD  = 0.0000000 0.0000000 0.0000000 field for delta impulse in time
 
 Orbital magnetization related:
   ORBITALMAG=     F  switch on orbital magnetization
   LCHIMAG   =     F  perturbation theory with respect to B field
   DQ        =  0.001000  dq finite difference perturbation B field
   LLRAUG    =     F  two centre corrections for induced B field



--------------------------------------------------------------------------------------------------------


 Static calculation
 charge density and potential remain constant during run
 non-spin polarized calculation
 RMM-DIIS sequential band-by-band and
  variant of blocked Davidson during initial phase
 perform sub-space diagonalisation
    before iterative eigenvector-optimisation
 no mixing
 using additional bands           40
 real space projection scheme for non local part
 use partial core corrections
 calculate Harris-corrections to forces 
   (improved forces if not selfconsistent)
 use gradient corrections 
 WARNING: stress and forces are not correct
  (second derivative of E(xc) not defined)
 use of overlap-Matrix (Vanderbilt PP)
 Fermi weights with tetrahedron method with Bloechl corrections


--------------------------------------------------------------------------------------------------------


  energy-cutoff  :      500.00
  volume of cell :     1635.20
      direct lattice vectors                 reciprocal lattice vectors
     8.813512802  0.000000000  0.000000000     0.113462137 -0.065507406  0.000000000
     4.406756909  7.632725690  0.000000000     0.000000000  0.131014796  0.000000000
     0.000000000  0.000000000 24.307648677     0.000000000  0.000000000  0.041139314

  length of vectors
     8.813512802  8.813512802 24.307648677     0.131014796  0.131014796  0.041139314


 
 k-points in units of 2pi/SCALE and weight: Automatic mesh                          
   0.00000000  0.00000000  0.00000000       0.016
   0.01418277 -0.00818843  0.00000000       0.062
   0.00000000  0.01637685  0.00000000       0.031
   0.02836553 -0.01637685  0.00000000       0.062
   0.00000000  0.03275370  0.00000000       0.031
   0.04254830 -0.02456528  0.00000000       0.062
   0.00000000  0.04913055  0.00000000       0.031
   0.05673107 -0.03275370  0.00000000       0.031
   0.00000000  0.06550740  0.00000000       0.016
   0.02836553 -0.00000000  0.00000000       0.031
   0.01418277  0.02456527  0.00000000       0.062
   0.04254830 -0.00818843  0.00000000       0.062
   0.02836553  0.03275370  0.00000000       0.062
  -0.01418277  0.04094212  0.00000000       0.062
   0.05673107 -0.01637685  0.00000000       0.062
   0.04254830  0.04094212  0.00000000       0.062
  -0.01418277  0.05731897  0.00000000       0.062
   0.05673107 -0.00000000  0.00000000       0.031
   0.02836553  0.04913055  0.00000000       0.062
  -0.04254830  0.05731898  0.00000000       0.062
  -0.02836553  0.06550740  0.00000000       0.031
 
 k-points in reciprocal lattice and weights: Automatic mesh                          
   0.00000000  0.00000000  0.00000000       0.016
   0.12500000 -0.00000000  0.00000000       0.062
   0.00000000  0.12500000  0.00000000       0.031
   0.25000000 -0.00000000  0.00000000       0.062
   0.00000000  0.25000000  0.00000000       0.031
   0.37500000 -0.00000000  0.00000000       0.062
   0.00000000  0.37500000  0.00000000       0.031
   0.50000000 -0.00000000  0.00000000       0.031
   0.00000000  0.50000000  0.00000000       0.016
   0.25000000  0.12500000  0.00000000       0.031
   0.12500000  0.25000000  0.00000000       0.062
   0.37500000  0.12500000  0.00000000       0.062
   0.25000000  0.37500000  0.00000000       0.062
  -0.12500000  0.25000000  0.00000000       0.062
   0.50000000  0.12500000  0.00000000       0.062
   0.37500000  0.50000000  0.00000000       0.062
  -0.12500000  0.37500000  0.00000000       0.062
   0.50000000  0.25000000  0.00000000       0.031
   0.25000000  0.50000000  0.00000000       0.062
  -0.37500000  0.25000000  0.00000000       0.062
  -0.25000000  0.37500000  0.00000000       0.031
 
 position of ions in fractional coordinates (direct lattice) 
   0.00000000  0.00000000  0.21723121
   0.33333334  0.00000000  0.21723121
   0.66666669  0.00000000  0.21723121
   0.00000000  0.33333334  0.21723121
   0.33333331  0.33333334  0.21723121
   0.66666669  0.33333334  0.21723121
   0.00000000  0.66666669  0.21723121
   0.33333334  0.66666669  0.21723121
   0.66666663  0.66666669  0.21723121
   0.11111112  0.11111111  0.31591349
   0.44444442  0.11111111  0.31591349
   0.77777779  0.11111111  0.31591349
   0.11111113  0.44444445  0.31591349
   0.44444448  0.44444445  0.31591349
   0.77777773  0.44444445  0.31591349
   0.11111109  0.77777779  0.31591349
   0.44444445  0.77777779  0.31591349
   0.77777785  0.77777779  0.31591349
   0.88891841  0.22216320  0.41437483
   0.22278483  0.22278482  0.41400141
   0.55443039  0.22278482  0.41400141
   0.88787093  0.55606456  0.41433944
   0.22278479  0.55443039  0.41400141
   0.55606456  0.55606456  0.41433944
   0.88891841  0.88891841  0.41437483
   0.22216323  0.88891841  0.41437483
   0.55606450  0.88787093  0.41433944
   0.00000000  0.00000000  0.51418290
   0.33350409  0.00594142  0.51670727
   0.66055452  0.00594142  0.51670727
   0.00594142  0.33350409  0.51670727
   0.66055452  0.33350409  0.51670727
   0.00594142  0.66055452  0.51670727
   0.33350409  0.66055452  0.51670727
   0.66666663  0.66666669  0.51451429
   0.33333331  0.33333334  0.50906481
   0.28867699  0.33402647  0.60014149
   0.37729651  0.33402647  0.60014149
 
 position of ions in cartesian coordinates  (Angst):
   0.00000000  0.00000000  5.28037993
   2.93783769  0.00000000  5.28037993
   5.87567538  0.00000000  5.28037993
   1.46891901  2.54424197  5.28037993
   4.40675643  2.54424197  5.28037993
   7.34459439  2.54424197  5.28037993
   2.93783803  5.08848395  5.28037993
   5.87567571  5.08848395  5.28037993
   8.81351288  5.08848395  5.28037993
   1.46891893  0.84808064  7.67911405
   4.40675623  0.84808064  7.67911405
   7.34459418  0.84808064  7.67911405
   2.93783798  3.39232256  7.67911405
   5.87567574  3.39232256  7.67911405
   8.81351263  3.39232256  7.67911405
   4.40675667  5.93656453  7.67911405
   7.34459449  5.93656453  7.67911405
  10.28243270  5.93656453  7.67911405
   8.81351299  1.69571075 10.07247789
   2.94527554  1.70045542 10.06340086
   5.86823789  1.70045542 10.06340086
  10.27570320  4.24428828 10.07161751
   4.40675655  4.23181509 10.06340086
   7.35132350  4.24428828 10.07161751
  11.75174111  6.78487037 10.07247789
   5.87528580  6.78487037 10.07247789
   8.81351299  6.77687529 10.07161751
   0.00000000  0.00000000 12.49857717
   2.96552496  0.04534926 12.55993889
   5.84798811  0.04534926 12.55993889
   1.52203626  2.54554522 12.55993889
   7.29147715  2.54554522 12.55993889
   2.96326800  5.04183144 12.55993889
   5.85024574  5.04183144 12.55993889
   8.81351288  5.08848395 12.50663260
   4.40675643  2.54424197 12.37416845
   4.01623180  2.54953245 14.58802861
   4.79728107  2.54953245 14.58802861
 


--------------------------------------------------------------------------------------------------------


 k-point   1 :   0.0000 0.0000 0.0000  plane waves:   41363
 k-point   2 :   0.1250-0.0000 0.0000  plane waves:   41482
 k-point   3 :   0.0000 0.1250 0.0000  plane waves:   41482
 k-point   4 :   0.2500-0.0000 0.0000  plane waves:   41480
 k-point   5 :   0.0000 0.2500 0.0000  plane waves:   41480
 k-point   6 :   0.3750-0.0000 0.0000  plane waves:   41558
 k-point   7 :   0.0000 0.3750 0.0000  plane waves:   41558
 k-point   8 :   0.5000-0.0000 0.0000  plane waves:   41484
 k-point   9 :   0.0000 0.5000 0.0000  plane waves:   41484
 k-point  10 :   0.2500 0.1250 0.0000  plane waves:   41436
 k-point  11 :   0.1250 0.2500 0.0000  plane waves:   41436
 k-point  12 :   0.3750 0.1250 0.0000  plane waves:   41524
 k-point  13 :   0.2500 0.3750 0.0000  plane waves:   41524
 k-point  14 :  -0.1250 0.2500 0.0000  plane waves:   41524
 k-point  15 :   0.5000 0.1250 0.0000  plane waves:   41524
 k-point  16 :   0.3750 0.5000 0.0000  plane waves:   41524
 k-point  17 :  -0.1250 0.3750 0.0000  plane waves:   41524
 k-point  18 :   0.5000 0.2500 0.0000  plane waves:   41580
 k-point  19 :   0.2500 0.5000 0.0000  plane waves:   41580
 k-point  20 :  -0.3750 0.2500 0.0000  plane waves:   41534
 k-point  21 :  -0.2500 0.3750 0.0000  plane waves:   41534

 maximum and minimum number of plane-waves per node :     41580    41363

 maximum number of plane-waves:     41580
 maximum index in each direction: 
   IXMAX=   16   IYMAX=   16   IZMAX=   44
   IXMIN=  -16   IYMIN=  -16   IZMIN=  -44


 serial   3D FFT for wavefunctions
 parallel 3D FFT for charge:
    minimum data exchange during FFTs selected (reduces bandwidth)


 total amount of memory used by VASP MPI-rank0   287771. kBytes
=======================================================================

   base      :      30000. kBytes
   nonlr-proj:      14140. kBytes
   fftplans  :       6755. kBytes
   grid      :      23316. kBytes
   one-center:        590. kBytes
   wavefun   :     212970. kBytes
 
     INWAV:  cpu time    0.0000: real time    0.0000
 initial charge density was supplied:
 number of electron     398.9999995 magnetization 
 keeping initial charge density in first step


--------------------------------------------------------------------------------------------------------


 Maximum index for non-local projection operator         2567
 Maximum index for augmentation-charges          806 (set IRDMAX)


--------------------------------------------------------------------------------------------------------


 First call to EWALD:  gamma=   0.150
 Maximum number of real-space cells 4x 4x 2
 Maximum number of reciprocal cells 2x 2x 5

    FEWALD:  cpu time    0.0014: real time    0.0014


--------------------------------------- Iteration      1(   1)  ---------------------------------------


    POTLOK:  cpu time    0.0654: real time    0.0657
    SETDIJ:  cpu time    0.0062: real time    0.0063
     EDDAV:  cpu time   20.5244: real time   20.5250
 BZINTS: Fermi energy:   11.454714;  399.000000 electrons
         Band energy: 0.129724E+04;  BLOECHL correction:   -0.024512
       DOS:  cpu time    0.0275: real time    0.0275
    --------------------------------------------
      LOOP:  cpu time   20.6236: real time   20.6246

 eigenvalue-minimisations  : 10224
 total energy-change (2. order) : 0.2756401E+04  (-0.1786408E+05)
 number of electron     398.9999995 magnetization 
 augmentation part      398.9999995 magnetization 

 Free energy of the ion-electron system (eV)
  ---------------------------------------------------
  alpha Z        PSCENC =       932.53485711
  Ewald energy   TEWEN  =    127704.11563458
  -Hartree energ DENC   =   -162216.45073945
  -exchange      EXHF   =         0.00000000
  -V(xc)+E(xc)   XCENC  =       571.79413026
  PAW double counting   =     36536.91454871   -35791.82246363
  entropy T*S    EENTRO =         0.00000000
  eigenvalues    EBANDS =      1297.23891226
  atomic energy  EATOM  =     33722.07610693
  Solvation  Ediel_sol  =         0.00000000
  ---------------------------------------------------
  free energy    TOTEN  =      2756.40098677 eV

  energy without entropy =     2756.40098677  energy(sigma->0) =     2756.40098677


--------------------------------------------------------------------------------------------------------




--------------------------------------- Iteration      1(   2)  ---------------------------------------


     EDDAV:  cpu time   22.4388: real time   22.4390
 BZINTS: Fermi energy:    1.324112;  399.000000 electrons
         Band energy:-0.141665E+04;  BLOECHL correction:   -0.050592
       DOS:  cpu time    0.0272: real time    0.0272
    --------------------------------------------
      LOOP:  cpu time   22.4659: real time   22.4661

 eigenvalue-minimisations  : 11424
 total energy-change (2. order) :-0.2713889E+04  (-0.2556379E+04)
 number of electron     398.9999995 magnetization 
 augmentation part      398.9999995 magnetization 

 Free energy of the ion-electron system (eV)
  ---------------------------------------------------
  alpha Z        PSCENC =       932.53485711
  Ewald energy   TEWEN  =    127704.11563458
  -Hartree energ DENC   =   -162216.45073945
  -exchange      EXHF   =         0.00000000
  -V(xc)+E(xc)   XCENC  =       571.79413026
  PAW double counting   =     36536.91454871   -35791.82246363
  entropy T*S    EENTRO =         0.00000000
  eigenvalues    EBANDS =     -1416.65017800
  atomic energy  EATOM  =     33722.07610693
  Solvation  Ediel_sol  =         0.00000000
  ---------------------------------------------------
  free energy    TOTEN  =        42.51189651 eV

  energy without entropy =       42.51189651  energy(sigma->0) =       42.51189651


--------------------------------------------------------------------------------------------------------




--------------------------------------- Iteration      1(   3)  ---------------------------------------


     EDDAV:  cpu time   23.3927: real time   23.3927
 BZINTS: Fermi energy:    0.462348;  399.000000 electrons
         Band energy:-0.157689E+04;  BLOECHL correction:   -0.033410
       DOS:  cpu time    0.0286: real time    0.0286
    --------------------------------------------
      LOOP:  cpu time   23.4213: real time   23.4213

 eigenvalue-minimisations  : 12064
 total energy-change (2. order) :-0.1602368E+03  (-0.1546416E+03)
 number of electron     398.9999995 magnetization 
 augmentation part      398.9999995 magnetization 

 Free energy of the ion-electron system (eV)
  ---------------------------------------------------
  alpha Z        PSCENC =       932.53485711
  Ewald energy   TEWEN  =    127704.11563458
  -Hartree energ DENC   =   -162216.45073945
  -exchange      EXHF   =         0.00000000
  -V(xc)+E(xc)   XCENC  =       571.79413026
  PAW double counting   =     36536.91454871   -35791.82246363
  entropy T*S    EENTRO =         0.00000000
  eigenvalues    EBANDS =     -1576.88692839
  atomic energy  EATOM  =     33722.07610693
  Solvation  Ediel_sol  =         0.00000000
  ---------------------------------------------------
  free energy    TOTEN  =      -117.72485388 eV

  energy without entropy =     -117.72485388  energy(sigma->0) =     -117.72485388


--------------------------------------------------------------------------------------------------------




--------------------------------------- Iteration      1(   4)  ---------------------------------------


     EDDAV:  cpu time   27.2581: real time   27.2581
 BZINTS: Fermi energy:    0.428402;  399.000000 electrons
         Band energy:-0.158248E+04;  BLOECHL correction:   -0.035819
       DOS:  cpu time    0.0288: real time    0.0288
    --------------------------------------------
      LOOP:  cpu time   27.2869: real time   27.2868

 eigenvalue-minimisations  : 14560
 total energy-change (2. order) :-0.5589038E+01  (-0.5537156E+01)
 number of electron     398.9999995 magnetization 
 augmentation part      398.9999995 magnetization 

 Free energy of the ion-electron system (eV)
  ---------------------------------------------------
  alpha Z        PSCENC =       932.53485711
  Ewald energy   TEWEN  =    127704.11563458
  -Hartree energ DENC   =   -162216.45073945
  -exchange      EXHF   =         0.00000000
  -V(xc)+E(xc)   XCENC  =       571.79413026
  PAW double counting   =     36536.91454871   -35791.82246363
  entropy T*S    EENTRO =         0.00000000
  eigenvalues    EBANDS =     -1582.47596624
  atomic energy  EATOM  =     33722.07610693
  Solvation  Ediel_sol  =         0.00000000
  ---------------------------------------------------
  free energy    TOTEN  =      -123.31389173 eV

  energy without entropy =     -123.31389173  energy(sigma->0) =     -123.31389173


--------------------------------------------------------------------------------------------------------




--------------------------------------- Iteration      1(   5)  ---------------------------------------


     EDDAV:  cpu time   25.6100: real time   25.6100
 BZINTS: Fermi energy:    0.427081;  399.000000 electrons
         Band energy:-0.158270E+04;  BLOECHL correction:   -0.036198
       DOS:  cpu time    0.0276: real time    0.0276
    --------------------------------------------
      LOOP:  cpu time   25.6376: real time   25.6376

 eigenvalue-minimisations  : 13536
 total energy-change (2. order) :-0.2239036E+00  (-0.2235654E+00)
 number of electron     398.9999995 magnetization 
 augmentation part      398.9999995 magnetization 

 Free energy of the ion-electron system (eV)
  ---------------------------------------------------
  alpha Z        PSCENC =       932.53485711
  Ewald energy   TEWEN  =    127704.11563458
  -Hartree energ DENC   =   -162216.45073945
  -exchange      EXHF   =         0.00000000
  -V(xc)+E(xc)   XCENC  =       571.79413026
  PAW double counting   =     36536.91454871   -35791.82246363
  entropy T*S    EENTRO =         0.00000000
  eigenvalues    EBANDS =     -1582.69986980
  atomic energy  EATOM  =     33722.07610693
  Solvation  Ediel_sol  =         0.00000000
  ---------------------------------------------------
  free energy    TOTEN  =      -123.53779529 eV

  energy without entropy =     -123.53779529  energy(sigma->0) =     -123.53779529


--------------------------------------------------------------------------------------------------------




--------------------------------------- Iteration      1(   6)  ---------------------------------------


    EDDIAG:  cpu time    3.7902: real time    3.7903
  RMM-DIIS:  cpu time   13.7476: real time   13.7475
    ORTHCH:  cpu time    0.8103: real time    0.8103
 BZINTS: Fermi energy:    0.427053;  399.000000 electrons
         Band energy:-0.158270E+04;  BLOECHL correction:   -0.036202
       DOS:  cpu time    0.0281: real time    0.0281
    --------------------------------------------
      LOOP:  cpu time   18.3763: real time   18.3763

 eigenvalue-minimisations  : 13280
 total energy-change (2. order) :-0.3336214E-02  (-0.3336170E-02)
 number of electron     398.9999995 magnetization 
 augmentation part      398.9999995 magnetization 

 Free energy of the ion-electron system (eV)
  ---------------------------------------------------
  alpha Z        PSCENC =       932.53485711
  Ewald energy   TEWEN  =    127704.11563458
  -Hartree energ DENC   =   -162216.45073945
  -exchange      EXHF   =         0.00000000
  -V(xc)+E(xc)   XCENC  =       571.79413026
  PAW double counting   =     36536.91454871   -35791.82246363
  entropy T*S    EENTRO =         0.00000000
  eigenvalues    EBANDS =     -1582.70320601
  atomic energy  EATOM  =     33722.07610693
  Solvation  Ediel_sol  =         0.00000000
  ---------------------------------------------------
  free energy    TOTEN  =      -123.54113150 eV

  energy without entropy =     -123.54113150  energy(sigma->0) =     -123.54113150


--------------------------------------------------------------------------------------------------------




--------------------------------------- Iteration      1(   7)  ---------------------------------------


    EDDIAG:  cpu time    3.7945: real time    3.7946
  RMM-DIIS:  cpu time   19.9304: real time   19.9304
    ORTHCH:  cpu time    0.8100: real time    0.8100
 BZINTS: Fermi energy:    0.427039;  399.000000 electrons
         Band energy:-0.158271E+04;  BLOECHL correction:   -0.036200
       DOS:  cpu time    0.0288: real time    0.0288
    --------------------------------------------
      LOOP:  cpu time   24.5638: real time   24.5637

 eigenvalue-minimisations  : 19243
 total energy-change (2. order) :-0.1873531E-02  (-0.1847512E-02)
 number of electron     398.9999995 magnetization 
 augmentation part      398.9999995 magnetization 

 Free energy of the ion-electron system (eV)
  ---------------------------------------------------
  alpha Z        PSCENC =       932.53485711
  Ewald energy   TEWEN  =    127704.11563458
  -Hartree energ DENC   =   -162216.45073945
  -exchange      EXHF   =         0.00000000
  -V(xc)+E(xc)   XCENC  =       571.79413026
  PAW double counting   =     36536.91454871   -35791.82246363
  entropy T*S    EENTRO =         0.00000000
  eigenvalues    EBANDS =     -1582.70507954
  atomic energy  EATOM  =     33722.07610693
  Solvation  Ediel_sol  =         0.00000000
  ---------------------------------------------------
  free energy    TOTEN  =      -123.54300503 eV

  energy without entropy =     -123.54300503  energy(sigma->0) =     -123.54300503


--------------------------------------------------------------------------------------------------------




--------------------------------------- Iteration      1(   8)  ---------------------------------------


    EDDIAG:  cpu time    3.7962: real time    3.7962
WARNING in EDDRMM: call to ZHEGV failed, returncode =   6  3      3
  RMM-DIIS:  cpu time   17.6826: real time   17.6826
    ORTHCH:  cpu time    0.8099: real time    0.8099
 BZINTS: Fermi energy:    0.427035;  399.000000 electrons
         Band energy:-0.158271E+04;  BLOECHL correction:   -0.036199
       DOS:  cpu time    0.0294: real time    0.0294
    --------------------------------------------
      LOOP:  cpu time   22.3181: real time   22.3181

 eigenvalue-minimisations  : 16516
 total energy-change (2. order) :-0.3170567E-03  (-0.3035843E-03)
 number of electron     398.9999995 magnetization 
 augmentation part      398.9999995 magnetization 

 Free energy of the ion-electron system (eV)
  ---------------------------------------------------
  alpha Z        PSCENC =       932.53485711
  Ewald energy   TEWEN  =    127704.11563458
  -Hartree energ DENC   =   -162216.45073945
  -exchange      EXHF   =         0.00000000
  -V(xc)+E(xc)   XCENC  =       571.79413026
  PAW double counting   =     36536.91454871   -35791.82246363
  entropy T*S    EENTRO =         0.00000000
  eigenvalues    EBANDS =     -1582.70539660
  atomic energy  EATOM  =     33722.07610693
  Solvation  Ediel_sol  =         0.00000000
  ---------------------------------------------------
  free energy    TOTEN  =      -123.54332209 eV

  energy without entropy =     -123.54332209  energy(sigma->0) =     -123.54332209


--------------------------------------------------------------------------------------------------------




--------------------------------------- Iteration      1(   9)  ---------------------------------------


    EDDIAG:  cpu time    3.7957: real time    3.7957
  RMM-DIIS:  cpu time   14.7429: real time   14.7428
    ORTHCH:  cpu time    0.8088: real time    0.8088
 BZINTS: Fermi energy:    0.427033;  399.000000 electrons
         Band energy:-0.158271E+04;  BLOECHL correction:   -0.036199
       DOS:  cpu time    0.0293: real time    0.0293
    --------------------------------------------
      LOOP:  cpu time   19.3767: real time   19.3767

 eigenvalue-minimisations  : 13502
 total energy-change (2. order) :-0.8135638E-04  (-0.7647556E-04)
 number of electron     398.9999995 magnetization 
 augmentation part      398.9999995 magnetization 

 Free energy of the ion-electron system (eV)
  ---------------------------------------------------
  alpha Z        PSCENC =       932.53485711
  Ewald energy   TEWEN  =    127704.11563458
  -Hartree energ DENC   =   -162216.45073945
  -exchange      EXHF   =         0.00000000
  -V(xc)+E(xc)   XCENC  =       571.79413026
  PAW double counting   =     36536.91454871   -35791.82246363
  entropy T*S    EENTRO =         0.00000000
  eigenvalues    EBANDS =     -1582.70547796
  atomic energy  EATOM  =     33722.07610693
  Solvation  Ediel_sol  =         0.00000000
  ---------------------------------------------------
  free energy    TOTEN  =      -123.54340344 eV

  energy without entropy =     -123.54340344  energy(sigma->0) =     -123.54340344


--------------------------------------------------------------------------------------------------------




--------------------------------------- Iteration      1(  10)  ---------------------------------------


    EDDIAG:  cpu time    3.7951: real time    3.7952
  RMM-DIIS:  cpu time   13.5499: real time   13.5499
    ORTHCH:  cpu time    0.8114: real time    0.8114
 BZINTS: Fermi energy:    0.427032;  399.000000 electrons
         Band energy:-0.158271E+04;  BLOECHL correction:   -0.036199
       DOS:  cpu time    0.0252: real time    0.0289
    --------------------------------------------
      LOOP:  cpu time   18.1816: real time   18.1854

 eigenvalue-minimisations  : 12401
 total energy-change (2. order) :-0.3114715E-04  (-0.2925443E-04)
 number of electron     398.9999995 magnetization 
 augmentation part      398.9999995 magnetization 

 Free energy of the ion-electron system (eV)
  ---------------------------------------------------
  alpha Z        PSCENC =       932.53485711
  Ewald energy   TEWEN  =    127704.11563458
  -Hartree energ DENC   =   -162216.45073945
  -exchange      EXHF   =         0.00000000
  -V(xc)+E(xc)   XCENC  =       571.79413026
  PAW double counting   =     36536.91454871   -35791.82246363
  entropy T*S    EENTRO =         0.00000000
  eigenvalues    EBANDS =     -1582.70550910
  atomic energy  EATOM  =     33722.07610693
  Solvation  Ediel_sol  =         0.00000000
  ---------------------------------------------------
  free energy    TOTEN  =      -123.54343459 eV

  energy without entropy =     -123.54343459  energy(sigma->0) =     -123.54343459


--------------------------------------------------------------------------------------------------------




--------------------------------------- Iteration      1(  11)  ---------------------------------------


    EDDIAG:  cpu time    3.7922: real time    3.7922
  RMM-DIIS:  cpu time   12.0063: real time   12.0063
    ORTHCH:  cpu time    0.8092: real time    0.8092
 BZINTS: Fermi energy:    0.427032;  399.000000 electrons
         Band energy:-0.158271E+04;  BLOECHL correction:   -0.036199
       DOS:  cpu time    0.0275: real time    0.0275
    --------------------------------------------
      LOOP:  cpu time   16.6353: real time   16.6352

 eigenvalue-minimisations  : 10631
 total energy-change (2. order) :-0.1237582E-04  (-0.1226918E-04)
 number of electron     398.9999995 magnetization 
 augmentation part      398.9999995 magnetization 

 Free energy of the ion-electron system (eV)
  ---------------------------------------------------
  alpha Z        PSCENC =       932.53485711
  Ewald energy   TEWEN  =    127704.11563458
  -Hartree energ DENC   =   -162216.45073945
  -exchange      EXHF   =         0.00000000
  -V(xc)+E(xc)   XCENC  =       571.79413026
  PAW double counting   =     36536.91454871   -35791.82246363
  entropy T*S    EENTRO =         0.00000000
  eigenvalues    EBANDS =     -1582.70552148
  atomic energy  EATOM  =     33722.07610693
  Solvation  Ediel_sol  =         0.00000000
  ---------------------------------------------------
  free energy    TOTEN  =      -123.54344697 eV

  energy without entropy =     -123.54344697  energy(sigma->0) =     -123.54344697


--------------------------------------------------------------------------------------------------------




--------------------------------------- Iteration      1(  12)  ---------------------------------------


    EDDIAG:  cpu time    3.7962: real time    3.7963
WARNING in EDDRMM: call to ZHEGV failed, returncode =   6  3     11
  RMM-DIIS:  cpu time   11.2062: real time   11.2062
    ORTHCH:  cpu time    0.8091: real time    0.8091
 BZINTS: Fermi energy:    0.427032;  399.000000 electrons
         Band energy:-0.158271E+04;  BLOECHL correction:   -0.036199
       DOS:  cpu time    0.0293: real time    0.0293
    --------------------------------------------
      LOOP:  cpu time   15.8408: real time   15.8408

 eigenvalue-minimisations  :  9526
 total energy-change (2. order) :-0.5185982E-05  (-0.5840273E-05)
 number of electron     398.9999995 magnetization 
 augmentation part      398.9999995 magnetization 

 Free energy of the ion-electron system (eV)
  ---------------------------------------------------
  alpha Z        PSCENC =       932.53485711
  Ewald energy   TEWEN  =    127704.11563458
  -Hartree energ DENC   =   -162216.45073945
  -exchange      EXHF   =         0.00000000
  -V(xc)+E(xc)   XCENC  =       571.79413026
  PAW double counting   =     36536.91454871   -35791.82246363
  entropy T*S    EENTRO =         0.00000000
  eigenvalues    EBANDS =     -1582.70552667
  atomic energy  EATOM  =     33722.07610693
  Solvation  Ediel_sol  =         0.00000000
  ---------------------------------------------------
  free energy    TOTEN  =      -123.54345215 eV

  energy without entropy =     -123.54345215  energy(sigma->0) =     -123.54345215


--------------------------------------------------------------------------------------------------------




 average (electrostatic) potential at core
  the test charge radii are     1.2098  1.0638  0.5201
  (the norm of the test charge is              1.0000)
       1 -72.6108       2 -72.6162       3 -72.6161       4 -72.6137       5 -72.6095
       6 -72.6134       7 -72.6144       8 -72.6142       9 -72.6041      10 -72.9683
      11 -72.9272      12 -72.9682      13 -72.9255      14 -72.9252      15 -72.9330
      16 -72.9697      17 -72.9370      18 -72.9372      19 -72.9269      20 -73.2390
      21 -73.2390      22 -72.9003      23 -73.2457      24 -72.9000      25 -72.9216
      26 -72.9213      27 -72.8997      28 -72.6565      29 -72.8448      30 -72.8450
      31 -72.8484      32 -72.8482      33 -72.8473      34 -72.8470      35 -72.6428
      36 -84.4763      37 -38.3504      38 -38.3504
 
 
 
 E-fermi :   0.4270     XC(G=0):  -5.6540     alpha+bet : -5.3431

 Fermi energy:         0.4270315127

 k-point     1 :       0.0000    0.0000    0.0000
  band No.  band energies     occupation 
      1     -49.4828      2.00000
      2     -27.5361      2.00000
      3     -27.4919      2.00000
      4     -27.4548      2.00000
      5      -8.4096      2.00000
      6      -7.5389      2.00000
      7      -7.1587      2.00000
      8      -6.3269      2.00000
      9      -6.2728      2.00000
     10      -6.2717      2.00000
     11      -6.2615      2.00000
     12      -6.2386      2.00000
     13      -6.2093      2.00000
     14      -6.2089      2.00000
     15      -6.1993      2.00000
     16      -5.7921      2.00000
     17      -5.7920      2.00000
     18      -5.7887      2.00000
     19      -5.7331      2.00000
     20      -5.7329      2.00000
     21      -5.7126      2.00000
     22      -5.4230      2.00000
     23      -5.4179      2.00000
     24      -5.4169      2.00000
     25      -5.3862      2.00000
     26      -5.3779      2.00000
     27      -5.3779      2.00000
     28      -5.2321      2.00000
     29      -5.2315      2.00000
     30      -5.2294      2.00000
     31      -5.2264      2.00000
     32      -5.2259      2.00000
     33      -5.1831      2.00000
     34      -5.0930      2.00000
     35      -5.0717      2.00000
     36      -5.0714      2.00000
     37      -5.0477      2.00000
     38      -5.0476      2.00000
     39      -5.0444      2.00000
     40      -5.0444      2.00000
     41      -5.0186      2.00000
     42      -5.0181      2.00000
     43      -5.0070      2.00000
     44      -5.0001      2.00000
     45      -4.9919      2.00000
     46      -4.5537      2.00000
     47      -4.5534      2.00000
     48      -4.5429      2.00000
     49      -4.5233      2.00000
     50      -4.5231      2.00000
     51      -4.5161      2.00000
     52      -4.4978      2.00000
     53      -4.4977      2.00000
     54      -4.4645      2.00000
     55      -4.4639      2.00000
     56      -4.3660      2.00000
     57      -4.3653      2.00000
     58      -4.3179      2.00000
     59      -4.2872      2.00000
     60      -4.0799      2.00000
     61      -4.0236      2.00000
     62      -4.0235      2.00000
     63      -3.9928      2.00000
     64      -3.9806      2.00000
     65      -3.9804      2.00000
     66      -3.9730      2.00000
     67      -3.8989      2.00000
     68      -3.8986      2.00000
     69      -3.8355      2.00000
     70      -3.8349      2.00000
     71      -3.8311      2.00000
     72      -3.7957      2.00000
     73      -3.7951      2.00000
     74      -3.7800      2.00000
     75      -3.7788      2.00000
     76      -3.7781      2.00000
     77      -3.7383      2.00000
     78      -3.7260      2.00000
     79      -3.7259      2.00000
     80      -3.6944      2.00000
     81      -3.6939      2.00000
     82      -3.6894      2.00000
     83      -3.6881      2.00000
     84      -3.6879      2.00000
     85      -3.6536      2.00000
     86      -3.6510      2.00000
     87      -3.6126      2.00000
     88      -3.5934      2.00000
     89      -3.5925      2.00000
     90      -3.5847      2.00000
     91      -3.5728      2.00000
     92      -3.5723      2.00000
     93      -3.5303      2.00000
     94      -3.5298      2.00000
     95      -3.5064      2.00000
     96      -3.4433      2.00000
     97      -3.4401      2.00000
     98      -3.4398      2.00000
     99      -3.4350      2.00000
    100      -3.2566      2.00000
    101      -3.2565      2.00000
    102      -3.2531      2.00000
    103      -3.2530      2.00000
    104      -3.1489      2.00000
    105      -3.1425      2.00000
    106      -3.1400      2.00000
    107      -3.1171      2.00000
    108      -3.1155      2.00000
    109      -3.0922      2.00000
    110      -3.0425      2.00000
    111      -3.0411      2.00000
    112      -2.9441      2.00000
    113      -2.9347      2.00000
    114      -2.8721      2.00000
    115      -2.8719      2.00000
    116      -2.8431      2.00000
    117      -2.8424      2.00000
    118      -2.8259      2.00000
    119      -2.7910      2.00000
    120      -2.7690      2.00000
    121      -2.6850      2.00000
    122      -2.6809      2.00000
    123      -2.6568      2.00000
    124      -2.6195      2.00000
    125      -2.6192      2.00000
    126      -2.6114      2.00000
    127      -2.6089      2.00000
    128      -2.5711      2.00000
    129      -2.5447      2.00000
    130      -2.5446      2.00000
    131      -2.4926      2.00000
    132      -2.4925      2.00000
    133      -2.4086      2.00000
    134      -2.4080      2.00000
    135      -2.3919      2.00000
    136      -2.3676      2.00000
    137      -2.3603      2.00000
    138      -2.3593      2.00000
    139      -2.3422      2.00000
    140      -2.3411      2.00000
    141      -2.3405      2.00000
    142      -2.3252      2.00000
    143      -2.3249      2.00000
    144      -2.2178      2.00000
    145      -2.2177      2.00000
    146      -2.1698      2.00000
    147      -2.1643      2.00000
    148      -2.1546      2.00000
    149      -2.1523      2.00000
    150      -2.1231      2.00000
    151      -2.1075      2.00000
    152      -2.1067      2.00000
    153      -2.0642      2.00000
    154      -2.0640      2.00000
    155      -2.0594      2.00000
    156      -2.0388      2.00000
    157      -2.0202      2.00000
    158      -1.9995      2.00000
    159      -1.9993      2.00000
    160      -1.9712      2.00000
    161      -1.9536      2.00000
    162      -1.9535      2.00000
    163      -1.9528      2.00000
    164      -1.9126      2.00000
    165      -1.9119      2.00000
    166      -1.9093      2.00000
    167      -1.8859      2.00000
    168      -1.8857      2.00000
    169      -1.8589      2.00000
    170      -1.8545      2.00000
    171      -1.8534      2.00000
    172      -1.8515      2.00000
    173      -1.8403      2.00000
    174      -1.8387      2.00000
    175      -1.7608      2.00000
    176      -1.7608      2.00000
    177      -1.7420      2.00000
    178      -1.7366      2.00000
    179      -1.7348      2.00000
    180      -1.7323      2.00000
    181      -1.7321      2.00000
    182      -1.7217      2.00000
    183      -1.7210      2.00000
    184      -1.7000      2.00000
    185      -1.6623      2.00000
    186      -1.6480      2.00000
    187      -1.6478      2.00000
    188      -1.5947      2.00000
    189      -1.5938      2.00000
    190      -1.4993      2.00000
    191      -1.4929      2.00000
    192      -1.4924      2.00000
    193      -1.4618      2.00000
    194      -1.4609      2.00000
    195      -1.4604      2.00000
    196      -0.6923      2.00000
    197      -0.4247      2.00000
    198      -0.3833      2.00000
    199      -0.3024      2.00000
    200      -0.2657      2.00000
    201      -0.2654      2.00000
    202      -0.1681      2.00000
    203       0.7332      0.00000
    204       0.7887      0.00000
    205       0.8699      0.00000
    206       1.4160      0.00000
    207       1.4240      0.00000
    208       1.4461      0.00000
    209       1.9066      0.00000
[...]
  0.000   0.000   0.000   0.000   0.000   0.000   0.000   0.000   0.000   0.000   0.000   0.000   0.000   0.000   0.000   0.000
  0.000   0.000   0.000   0.000   0.000   0.000   0.000   0.000   0.000   0.000   0.000   0.000   0.000   0.000   0.000   0.000
  0.000   0.000   0.000   0.000   0.000   0.000   0.000   0.000   0.000   0.000   1.000   0.000   0.000   0.000   0.000   0.000
  0.000   0.000   0.000   0.000   0.000   0.000   0.000   0.000   0.000   0.000   0.000   0.000   0.000   0.000   0.000   0.000
  0.000   0.000   0.000   0.000   0.000   0.000   0.000   0.000   0.000   0.000   0.000   0.000   0.000   0.000   0.000   0.000
  0.000   0.000   0.000   0.000   0.000   0.000   0.000   0.000   0.000   0.000   0.000   0.000   0.000   0.000   0.000   0.000
  0.000   0.000   0.000   0.000   0.000   0.000   0.000   0.000   0.000   0.000   0.000   0.000   0.000   0.000   0.000   0.000
  0.000   0.000   0.000   0.000   0.000   0.000   0.000   0.000   0.000   0.000   0.000   0.000   0.000   0.000   0.000   0.000
  0.000   0.000   0.000   0.000   0.000   0.000   0.000   0.000   0.000   0.000   0.000   0.000   0.000   0.000   0.000   0.000
  0.000   0.000   0.000   0.000   0.000   0.000   0.000   0.000   0.000   0.000   0.000   0.000   0.000   0.000   0.000   0.000


------------------------ aborting loop because EDIFF is reached ----------------------------------------





 total charge

# of ion       s       p       d       tot
------------------------------------------
    1        0.551   0.237   8.767   9.554
    2        0.541   0.241   8.765   9.548
    3        0.541   0.241   8.765   9.548
    4        0.541   0.241   8.766   9.548
    5        0.547   0.242   8.760   9.549
    6        0.541   0.241   8.766   9.548
    7        0.541   0.241   8.765   9.548
    8        0.541   0.241   8.765   9.548
    9        0.545   0.239   8.767   9.551
   10        0.524   0.306   8.769   9.600
   11        0.522   0.306   8.779   9.606
   12        0.524   0.306   8.769   9.600
   13        0.521   0.306   8.779   9.606
   14        0.521   0.306   8.779   9.606
   15        0.517   0.307   8.773   9.597
   16        0.523   0.306   8.769   9.599
   17        0.516   0.308   8.772   9.596
   18        0.516   0.308   8.772   9.596
   19        0.522   0.298   8.766   9.587
   20        0.570   0.330   8.733   9.633
   21        0.570   0.330   8.733   9.633
   22        0.510   0.304   8.775   9.588
   23        0.569   0.330   8.733   9.632
   24        0.510   0.304   8.775   9.588
   25        0.523   0.297   8.768   9.588
   26        0.523   0.297   8.768   9.588
   27        0.510   0.304   8.775   9.589
   28        0.542   0.236   8.752   9.530
   29        0.601   0.249   8.726   9.577
   30        0.601   0.249   8.726   9.577
   31        0.600   0.251   8.725   9.576
   32        0.600   0.251   8.725   9.576
   33        0.601   0.249   8.727   9.576
   34        0.601   0.249   8.727   9.576
   35        0.539   0.236   8.755   9.530
   36        2.183   5.982   1.463   9.628
   37        0.583   0.029   0.000   0.612
   38        0.583   0.029   0.000   0.612
--------------------------------------------------
tot         22.416  15.726 308.002 346.143
 
    CHARGE:  cpu time    0.9099: real time    0.9100
    FORLOC:  cpu time    0.0198: real time    0.0198
    FORNL :  cpu time    4.0388: real time    4.0389
    STRESS:  cpu time   12.1297: real time   12.1298
    FORCOR:  cpu time    0.0702: real time    0.0702
    FORHAR:  cpu time    0.0302: real time    0.0302
    OFIELD:  cpu time    0.0004: real time    0.0004

  FORCE on cell =-STRESS in cart. coord.  units (eV):
  Direction    XX          YY          ZZ          XY          YZ          ZX
  --------------------------------------------------------------------------------------
  Alpha Z   932.53486   932.53486   932.53486
  Ewald  150717.74010150697.11449************    -0.00033     0.10412    -0.00014
  Hartree159199.26179159195.12014************     0.00000     0.06602    -0.00004
  E(xc)   -1784.22153 -1784.47639 -1791.95239     0.00000     0.00368    -0.00000
  Local  ************************322751.52117     0.00184    -0.14387     0.00010
  n-local   -58.62751   -57.92438   -24.37929     4.56294    -0.16258     0.02163
  augment  2364.99844  2364.85373  2384.25566    -0.00137     0.02827     0.00003
  Kinetic  5580.28590  5585.74260  5642.10193     0.92909     0.00366    -0.07403
  Fock        0.00000     0.00000     0.00000     0.00000     0.00000     0.00000
  -------------------------------------------------------------------------------------
  Total     -21.37688   -21.24120     2.12433    -0.00000    -0.10071    -0.00000
  in kB     -20.94514   -20.81220     2.08143    -0.00000    -0.09867    -0.00000
  external pressure =      -13.23 kB  Pullay stress =        0.00 kB


 VOLUME and BASIS-vectors are now :
 -----------------------------------------------------------------------------
  energy-cutoff  :      500.00
  volume of cell :     1635.20
      direct lattice vectors                 reciprocal lattice vectors
     8.813512802  0.000000000  0.000000000     0.113462137 -0.065507406  0.000000000
     4.406756909  7.632725690  0.000000000     0.000000000  0.131014796  0.000000000
     0.000000000  0.000000000 24.307648677     0.000000000  0.000000000  0.041139314

  length of vectors
     8.813512802  8.813512802 24.307648677     0.131014796  0.131014796  0.041139314


 FORCES acting on ions
    electron-ion (+dipol)            ewald-force                    non-local-force                 convergence-correction
 -----------------------------------------------------------------------------------------------
   -.200E-04 0.404E-01 0.266E+04   0.519E-04 -.802E-03 -.266E+04   -.131E-08 -.197E-01 -.527E+00   -.146E-03 -.195E-01 0.715E-01
   0.378E+00 0.474E+00 0.266E+04   -.379E+00 -.494E+00 -.266E+04   0.194E-01 0.771E-01 -.344E+00   -.175E-01 -.632E-01 0.542E-01
   -.378E+00 0.474E+00 0.266E+04   0.379E+00 -.494E+00 -.266E+04   -.194E-01 0.771E-01 -.344E+00   0.177E-01 -.613E-01 0.547E-01
   0.569E+00 0.968E-01 0.266E+04   -.617E+00 -.822E-01 -.266E+04   0.942E-01 -.264E-01 -.365E+00   -.516E-01 0.121E-01 0.444E-01
   0.735E-05 0.467E-02 0.266E+04   0.951E-04 -.181E-03 -.266E+04   -.564E-09 -.846E-02 0.106E+00   0.427E-02 0.431E-02 0.797E-01
   -.569E+00 0.968E-01 0.266E+04   0.617E+00 -.823E-01 -.266E+04   -.942E-01 -.264E-01 -.365E+00   0.501E-01 0.131E-01 0.453E-01
   0.212E+00 -.578E+00 0.266E+04   -.237E+00 0.576E+00 -.266E+04   0.556E-01 -.492E-01 -.348E+00   -.317E-01 0.533E-01 0.543E-01
   -.212E+00 -.578E+00 0.266E+04   0.237E+00 0.576E+00 -.266E+04   -.556E-01 -.492E-01 -.348E+00   0.336E-01 0.523E-01 0.546E-01
   0.196E-04 -.278E-01 0.266E+04   0.166E-03 0.100E-02 -.266E+04   0.120E-08 0.180E-01 -.298E+00   -.466E-02 0.103E-01 0.861E-01
   0.344E+01 0.204E+01 0.901E+03   -.324E+01 -.188E+01 -.901E+03   -.223E+00 -.144E+00 -.623E+00   -.440E-02 -.272E-01 0.750E-01
   0.159E-04 0.596E+01 0.908E+03   0.147E-03 -.580E+01 -.908E+03   -.316E-08 -.474E-01 -.166E+00   0.344E-02 -.149E+00 0.790E-01
   -.344E+01 0.204E+01 0.901E+03   0.324E+01 -.188E+01 -.901E+03   0.223E+00 -.144E+00 -.623E+00   0.343E-02 -.258E-01 0.738E-01
   0.512E+01 -.300E+01 0.908E+03   -.502E+01 0.290E+01 -.908E+03   -.270E-01 0.259E-01 -.155E+00   -.109E+00 0.944E-01 0.778E-01
   -.512E+01 -.300E+01 0.908E+03   0.502E+01 0.290E+01 -.908E+03   0.270E-01 0.259E-01 -.155E+00   0.117E+00 0.943E-01 0.775E-01
   0.309E-04 0.588E+00 0.901E+03   0.236E-03 -.620E+00 -.901E+03   0.286E-10 0.430E-03 -.525E+00   -.220E-02 0.973E-03 0.463E-01
   -.214E-04 -.399E+01 0.901E+03   0.163E-03 0.375E+01 -.901E+03   0.179E-07 0.269E+00 -.593E+00   0.402E-03 0.615E-02 0.721E-01
   0.533E+00 -.319E+00 0.901E+03   -.540E+00 0.316E+00 -.901E+03   0.129E-02 0.656E-02 -.472E+00   -.192E-01 0.612E-02 0.524E-01
   -.533E+00 -.319E+00 0.901E+03   0.540E+00 0.316E+00 -.901E+03   -.129E-02 0.656E-02 -.472E+00   0.189E-01 0.765E-02 0.514E-01
   -.423E-04 -.164E+01 -.882E+03   0.525E-04 0.171E+01 0.882E+03   -.321E-08 -.482E-01 0.529E+00   0.350E-02 -.993E-02 -.380E-01
   0.356E+02 0.207E+02 -.835E+03   -.345E+02 -.200E+02 0.836E+03   -.114E+01 -.673E+00 -.124E+01   -.238E-01 -.279E-01 0.543E-01
   -.356E+02 0.207E+02 -.835E+03   0.345E+02 -.200E+02 0.836E+03   0.114E+01 -.673E+00 -.124E+01   0.233E-01 -.252E-01 0.541E-01
   0.797E+01 -.466E+01 -.874E+03   -.821E+01 0.479E+01 0.873E+03   0.223E+00 -.134E+00 0.614E+00   -.120E-01 0.122E-01 0.886E-02
   -.661E-05 -.412E+02 -.835E+03   0.143E-03 0.399E+02 0.836E+03   0.874E-07 0.131E+01 -.116E+01   0.171E-02 0.341E-01 0.928E-01
   -.797E+01 -.466E+01 -.874E+03   0.821E+01 0.479E+01 0.873E+03   -.223E+00 -.134E+00 0.614E+00   0.483E-02 0.142E-01 0.889E-02
   0.144E+01 0.849E+00 -.882E+03   -.151E+01 -.887E+00 0.882E+03   0.584E-01 0.343E-01 0.558E+00   0.202E-01 0.262E-02 -.333E-01
   -.144E+01 0.849E+00 -.882E+03   0.151E+01 -.887E+00 0.882E+03   -.584E-01 0.343E-01 0.558E+00   -.115E-01 0.194E-02 -.330E-01
   0.120E-04 0.921E+01 -.874E+03   0.195E-03 -.948E+01 0.873E+03   0.177E-07 0.267E+00 0.641E+00   -.578E-02 -.193E-01 0.102E-01
   -.140E-04 0.209E+00 -.260E+04   0.288E-04 -.202E+00 0.260E+04   0.373E-09 0.560E-02 0.438E+00   0.431E-03 -.218E-01 -.212E-01
   0.350E+02 0.577E+02 -.263E+04   -.339E+02 -.558E+02 0.263E+04   -.123E+01 -.195E+01 -.718E+00   0.442E-01 -.107E-01 -.503E-01
   -.350E+02 0.577E+02 -.263E+04   0.339E+02 -.558E+02 0.263E+04   0.123E+01 -.195E+01 -.718E+00   -.446E-01 -.862E-02 -.490E-01
   0.679E+02 0.183E+01 -.262E+04   -.656E+02 -.178E+01 0.263E+04   -.229E+01 -.675E-01 -.757E+00   0.118E-01 0.348E-01 -.613E-01
   -.679E+02 0.183E+01 -.262E+04   0.656E+02 -.178E+01 0.263E+04   0.229E+01 -.675E-01 -.757E+00   -.131E-01 0.363E-01 -.611E-01
   0.319E+02 -.595E+02 -.263E+04   -.309E+02 0.576E+02 0.263E+04   -.111E+01 0.201E+01 -.699E+00   0.643E-02 -.261E-01 -.570E-01
   -.319E+02 -.595E+02 -.263E+04   0.309E+02 0.576E+02 0.263E+04   0.111E+01 0.201E+01 -.699E+00   -.418E-02 -.267E-01 -.581E-01
   0.296E-04 -.234E+00 -.261E+04   0.144E-03 0.237E+00 0.260E+04   -.929E-11 -.140E-03 0.580E+00   -.491E-02 0.789E-02 0.273E-02
   0.208E-03 0.845E-01 -.273E+04   0.120E-03 -.148E+00 0.273E+04   0.194E-09 0.291E-02 0.251E+01   0.526E-02 0.271E-01 -.965E-01
   0.203E+02 -.146E-01 -.286E+03   -.249E+02 0.181E-01 0.287E+03   0.465E+01 -.222E-02 -.661E+00   0.525E-04 0.270E-03 -.387E-02
   -.203E+02 -.146E-01 -.286E+03   0.249E+02 0.181E-01 0.287E+03   -.465E+01 -.222E-02 -.661E+00   0.504E-04 0.279E-03 -.391E-02
 -----------------------------------------------------------------------------------------------
   -.545E-03 0.290E-01 0.829E+01   0.249E-13 -.176E-12 0.121E-10   -.223E-08 -.335E-01 -.889E+01   0.100E-01 0.461E-02 0.815E+00
 
 
 POSITION                                       TOTAL-FORCE (eV/Angst)
 -----------------------------------------------------------------------------------
      0.00000      0.00000      5.28038         0.000000      0.000310     -0.134665
      2.93784      0.00000      5.28038         0.000410     -0.004688     -0.046374
      5.87568      0.00000      5.28038        -0.000410     -0.004688     -0.046374
      1.46892      2.54424      5.28038        -0.004216      0.000725     -0.052105
      4.40676      2.54424      5.28038         0.000000      0.000334     -0.040764
      7.34459      2.54424      5.28038         0.004216      0.000725     -0.052105
      2.93784      5.08848      5.28038        -0.002522      0.001946     -0.050096
      5.87568      5.08848      5.28038         0.002522      0.001946     -0.050096
      8.81351      5.08848      5.28038         0.000000      0.001529     -0.058708
      1.46892      0.84808      7.67911        -0.028353     -0.011195      0.019643
      4.40676      0.84808      7.67911        -0.000000     -0.044719     -0.022078
      7.34459      0.84808      7.67911         0.028353     -0.011195      0.019643
      2.93784      3.39232      7.67911        -0.040484      0.027189     -0.025126
      5.87568      3.39232      7.67911         0.040484      0.027189     -0.025126
      8.81351      3.39232      7.67911        -0.000000     -0.030104      0.091934
      4.40676      5.93656      7.67911         0.000000      0.031139      0.020099
      7.34459      5.93656      7.67911        -0.024568      0.010475      0.100826
     10.28243      5.93656      7.67911         0.024568      0.010475      0.100826
      8.81351      1.69571     10.07248         0.000000      0.013574      0.039195
      2.94528      1.70046     10.06340        -0.035533     -0.012494     -0.062570
      5.86824      1.70046     10.06340         0.035533     -0.012494     -0.062570
     10.27570      4.24429     10.07162        -0.022568      0.008641      0.037516
      4.40676      4.23182     10.06340         0.000000      0.045049     -0.057234
      7.35132      4.24429     10.07162         0.022568      0.008641      0.037516
     11.75174      6.78487     10.07248        -0.003854     -0.001971      0.014967
      5.87529      6.78487     10.07248         0.003854     -0.001971      0.014967
      8.81351      6.77688     10.07162        -0.000000     -0.015541      0.040769
      0.00000      0.00000     12.49858        -0.000000     -0.009237     -0.014500
      2.96552      0.04535     12.55994        -0.018154     -0.057761     -0.001285
      5.84799      0.04535     12.55994         0.018154     -0.057761     -0.001285
      1.52204      2.54555     12.55994        -0.008863      0.018042      0.044093
      7.29148      2.54555     12.55994         0.008863      0.018042      0.044093
      2.96327      5.04183     12.55994        -0.052526      0.035029     -0.008307
      5.85025      5.04183     12.55994         0.052526      0.035029     -0.008307
      8.81351      5.08848     12.50663         0.000000      0.010669      0.019055
      4.40676      2.54424     12.37417        -0.000000     -0.034042      0.180956
      4.01623      2.54953     14.58803        -0.020773      0.001583     -0.003212
      4.79728      2.54953     14.58803         0.020773      0.001583     -0.003212
 -----------------------------------------------------------------------------------
    total drift:                                0.009469      0.000164      0.215329


--------------------------------------------------------------------------------------------------------



  FREE ENERGIE OF THE ION-ELECTRON SYSTEM (eV)
  ---------------------------------------------------
  free  energy   TOTEN  =      -123.54345215 eV

  energy  without entropy=     -123.54345215  energy(sigma->0) =     -123.54345215
 


--------------------------------------------------------------------------------------------------------


    POTLOK:  cpu time    0.0656: real time    0.0656


--------------------------------------------------------------------------------------------------------


 stress matrix after NEB project (eV)
    -21.37688     -0.00000     -0.00000
     -0.00000    -21.24120     -0.10071
     -0.00000     -0.10071      2.12433
  FORCES: max atom, RMS     0.021079    0.004836
  FORCE total and by dimension    0.029810    0.020773
  Stress total and by dimension   30.210805   21.376881
     LOOP+:  cpu time  272.0709: real time  272.0800
 -----------------------------------------------------------------------------
|                                                                             |
|           W    W    AA    RRRRR   N    N  II  N    N   GGGG   !!!           |
|           W    W   A  A   R    R  NN   N  II  NN   N  G    G  !!!           |
|           W    W  A    A  R    R  N N  N  II  N N  N  G       !!!           |
|           W WW W  AAAAAA  RRRRR   N  N N  II  N  N N  G  GGG   !            |
|           WW  WW  A    A  R   R   N   NN  II  N   NN  G    G                |
|           W    W  A    A  R    R  N    N  II  N    N   GGGG   !!!           |
|                                                                             |
|     Tetrahedron method does not include variations of the Fermi             |
|     occupations, so forces and stress will be inaccurate. We suggest        |
|     using a different smearing scheme ISMEAR = 1 or 2 for metals in         |
|     relaxations.                                                            |
|                                                                             |
 -----------------------------------------------------------------------------

    4ORBIT:  cpu time    0.0000: real time    0.0000



 total charge

# of ion       s       p       d       tot
------------------------------------------
    1        0.551   0.237   8.767   9.554
    2        0.541   0.241   8.765   9.548
    3        0.541   0.241   8.765   9.548
    4        0.541   0.241   8.766   9.548
    5        0.547   0.242   8.760   9.549
    6        0.541   0.241   8.766   9.548
    7        0.541   0.241   8.765   9.548
    8        0.541   0.241   8.765   9.548
    9        0.545   0.239   8.767   9.551
   10        0.524   0.306   8.769   9.600
   11        0.522   0.306   8.779   9.606
   12        0.524   0.306   8.769   9.600
   13        0.521   0.306   8.779   9.606
   14        0.521   0.306   8.779   9.606
   15        0.517   0.307   8.773   9.597
   16        0.523   0.306   8.769   9.599
   17        0.516   0.308   8.772   9.596
   18        0.516   0.308   8.772   9.596
   19        0.522   0.298   8.766   9.587
   20        0.570   0.330   8.733   9.633
   21        0.570   0.330   8.733   9.633
   22        0.510   0.304   8.775   9.588
   23        0.569   0.330   8.733   9.632
   24        0.510   0.304   8.775   9.588
   25        0.523   0.297   8.768   9.588
   26        0.523   0.297   8.768   9.588
   27        0.510   0.304   8.775   9.589
   28        0.542   0.236   8.752   9.530
   29        0.601   0.249   8.726   9.577
   30        0.601   0.249   8.726   9.577
   31        0.600   0.251   8.725   9.576
   32        0.600   0.251   8.725   9.576
   33        0.601   0.249   8.727   9.576
   34        0.601   0.249   8.727   9.576
   35        0.539   0.236   8.755   9.530
   36        2.183   5.982   1.463   9.628
   37        0.583   0.029   0.000   0.612
   38        0.583   0.029   0.000   0.612
--------------------------------------------------
tot         22.416  15.726 308.002 346.143
 
 BZINTS: Fermi energy:    0.427032;  399.000000 electrons
         Band energy:-0.158271E+04;  BLOECHL correction:   -0.036199

 total amount of memory used by VASP MPI-rank0   287771. kBytes
=======================================================================

   base      :      30000. kBytes
   nonlr-proj:      14140. kBytes
   fftplans  :       6755. kBytes
   grid      :      23316. kBytes
   one-center:        590. kBytes
   wavefun   :     212970. kBytes
 
  
  
 General timing and accounting informations for this job:
 ========================================================
  
                  Total CPU time used (sec):      286.743
                            User time (sec):      278.854
                          System time (sec):        7.889
                         Elapsed time (sec):      287.045
  
                   Maximum memory used (kb):      555028.
                   Average memory used (kb):          N/A
  
                          Minor page faults:       109134
                          Major page faults:            0
                 Voluntary context switches:         5633
