PROCAR new format
# of k-points:   10         # of bands:  252         # of ions:   37

 k-point     1 :    0.00000000 0.00000000 0.00000000     weight = 0.01562500

band     1 # energy   -8.76367309 # occ.  2.00000000
 
ion      s      p      d    tot
    1  0.006  0.000  0.000  0.006
    2  0.005  0.000  0.000  0.006
    3  0.005  0.000  0.000  0.006
    4  0.005  0.000  0.000  0.006
    5  0.005  0.000  0.000  0.006
    6  0.005  0.000  0.000  0.006
    7  0.005  0.000  0.000  0.006
    8  0.005  0.000  0.000  0.006
    9  0.005  0.000  0.000  0.006
   10  0.023  0.000  0.000  0.023
   11  0.024  0.000  0.000  0.024
   12  0.023  0.000  0.000  0.023
   13  0.024  0.000  0.000  0.024
   14  0.024  0.000  0.000  0.024
   15  0.023  0.000  0.000  0.023
   16  0.023  0.000  0.000  0.023
   17  0.023  0.000  0.000  0.023
   18  0.023  0.000  0.000  0.023
   19  0.022  0.000  0.000  0.022
   20  0.027  0.000  0.000  0.028
   21  0.027  0.000  0.000  0.028
   22  0.023  0.000  0.000  0.023
   23  0.027  0.000  0.000  0.028
   24  0.023  0.000  0.000  0.023
   25  0.022  0.000  0.000  0.022
   26  0.022  0.000  0.000  0.022
   27  0.023  0.000  0.000  0.023
   28  0.005  0.000  0.000  0.005
   29  0.006  0.000  0.000  0.007
   30  0.006  0.000  0.000  0.007
   31  0.006  0.000  0.000  0.007
   32  0.006  0.000  0.000  0.007
   33  0.006  0.000  0.000  0.007
   34  0.006  0.000  0.000  0.007
   35  0.005  0.000  0.000  0.005
   36  0.025  0.002  0.008  0.034
   37  0.030  0.001  0.000  0.031
tot    0.574  0.012  0.012  0.597
 
band     2 # energy   -8.16482589 # occ.  2.00000000
 
ion      s      p      d    tot
    1  0.003  0.000  0.000  0.004
    2  0.004  0.000  0.000  0.004
    3  0.004  0.000  0.000  0.004
    4  0.004  0.000  0.000  0.004
    5  0.004  0.000  0.000  0.004
    6  0.004  0.000  0.000  0.004
    7  0.004  0.000  0.000  0.004
    8  0.004  0.000  0.000  0.004
    9  0.004  0.000  0.000  0.004
   10  0.007  0.000  0.001  0.007
   11  0.007  0.000  0.000  0.007
   12  0.007  0.000  0.001  0.007
   13  0.007  0.000  0.000  0.007
   14  0.007  0.000  0.000  0.007
   15  0.008  0.000  0.000  0.008
   16  0.007  0.000  0.001  0.007
   17  0.008  0.000  0.000  0.008
   18  0.008  0.000  0.000  0.008
   19  0.000  0.000  0.000  0.001
   20  0.000  0.001  0.002  0.003
   21  0.000  0.001  0.002  0.003
   22  0.001  0.000  0.000  0.001
   23  0.000  0.001  0.002  0.003
   24  0.001  0.000  0.000  0.001
   25  0.000  0.000  0.000  0.001
   26  0.000  0.000  0.000  0.001
   27  0.001  0.000  0.000  0.001
   28  0.001  0.000  0.000  0.001
   29  0.004  0.001  0.003  0.007
   30  0.004  0.001  0.003  0.007
   31  0.004  0.001  0.003  0.007
   32  0.004  0.001  0.003  0.007
   33  0.004  0.001  0.003  0.007
   34  0.004  0.001  0.003  0.007
   35  0.001  0.000  0.000  0.001
   36  0.102  0.055  0.085  0.242
   37  0.332  0.009  0.000  0.341
tot    0.560  0.075  0.110  0.745
 
band     3 # energy   -7.42426046 # occ.  2.00000000
 
ion      s      p      d    tot
    1  0.016  0.000  0.001  0.018
    2  0.015  0.000  0.001  0.017
    3  0.015  0.000  0.001  0.017
    4  0.015  0.000  0.001  0.017
    5  0.015  0.000  0.001  0.017
    6  0.015  0.000  0.001  0.017
    7  0.015  0.000  0.001  0.017
    8  0.015  0.000  0.001  0.017
    9  0.015  0.000  0.001  0.016
   10  0.008  0.002  0.002  0.011
   11  0.006  0.002  0.002  0.011
   12  0.008  0.002  0.002  0.011
   13  0.006  0.002  0.002  0.011
   14  0.006  0.002  0.002  0.011
   15  0.006  0.002  0.002  0.010
   16  0.008  0.002  0.002  0.011
   17  0.006  0.002  0.002  0.010
   18  0.006  0.002  0.002  0.010
   19  0.017  0.001  0.005  0.023
   20  0.014  0.000  0.007  0.022
   21  0.014  0.000  0.007  0.022
   22  0.021  0.001  0.005  0.026
   23  0.014  0.000  0.007  0.022
   24  0.021  0.001  0.005  0.026
   25  0.017  0.001  0.005  0.023
   26  0.017  0.001  0.005  0.023
   27  0.021  0.001  0.005  0.026
   28  0.011  0.001  0.000  0.012
   29  0.007  0.001  0.001  0.009
   30  0.007  0.001  0.001  0.009
   31  0.007  0.001  0.001  0.009
   32  0.007  0.001  0.001  0.009
   33  0.007  0.001  0.001  0.009
   34  0.007  0.001  0.001  0.009
   35  0.012  0.001  0.000  0.012
   36  0.002  0.016  0.017  0.035
   37  0.056  0.001  0.000  0.056
tot    0.475  0.046  0.109  0.630
 
band     4 # energy   -6.59988874 # occ.  2.00000000
 
ion      s      p      d    tot
    1  0.008  0.000  0.021  0.030
    2  0.016  0.000  0.017  0.033
    3  0.016  0.000  0.017  0.033
    4  0.016  0.000  0.017  0.033
    5  0.010  0.000  0.015  0.026
    6  0.016  0.000  0.017  0.033
    7  0.016  0.000  0.017  0.033
    8  0.016  0.000  0.017  0.033
    9  0.034  0.000  0.011  0.046
   10  0.014  0.001  0.021  0.035
   11  0.016  0.002  0.018  0.035
   12  0.013  0.001  0.021  0.035
   13  0.016  0.002  0.018  0.035
   14  0.016  0.002  0.018  0.035
   15  0.000  0.001  0.025  0.026
   16  0.013  0.001  0.021  0.035
   17  0.000  0.001  0.025  0.026
   18  0.000  0.001  0.025  0.026
   19  0.000  0.001  0.007  0.007
   20  0.005  0.001  0.008  0.014
   21  0.005  0.001  0.008  0.014
   22  0.005  0.001  0.001  0.008
   23  0.005  0.001  0.008  0.014
   24  0.006  0.001  0.001  0.008
   25  0.000  0.001  0.006  0.007
   26  0.000  0.001  0.007  0.007
   27  0.005  0.001  0.001  0.008
   28  0.004  0.000  0.000  0.004
   29  0.002  0.000  0.002  0.004
   30  0.002  0.000  0.002  0.004
   31  0.002  0.000  0.002  0.004
   32  0.002  0.000  0.002  0.004
   33  0.002  0.000  0.002  0.004
   34  0.002  0.000  0.002  0.004
   35  0.006  0.000  0.000  0.007
   36  0.000  0.001  0.001  0.002
   37  0.000  0.000  0.000  0.000
tot    0.293  0.020  0.399  0.712
 
band     5 # energy   -6.58080247 # occ.  2.00000000
 
ion      s      p      d    tot
    1  0.000  0.000  0.007  0.007
    2  0.005  0.001  0.004  0.009
    3  0.006  0.001  0.003  0.010
    4  0.005  0.001  0.004  0.010
    5  0.000  0.001  0.008  0.009
    6  0.000  0.000  0.003  0.003
    7  0.006  0.001  0.003  0.010
    8  0.000  0.000  0.003  0.003
    9  0.000  0.000  0.001  0.001
   10  0.000  0.000  0.034  0.034
   11  0.041  0.002  0.015  0.058
   12  0.021  0.002  0.011  0.034
   13  0.044  0.001  0.014  0.060
   14  0.000  0.003  0.030  0.033
   15  0.004  0.001  0.011  0.016
   16  0.020  0.001  0.013  0.034
   17  0.004  0.001  0.011  0.016
   18  0.000  0.004  0.003  0.006
   19  0.003  0.001  0.010  0.015
   20  0.000  0.003  0.031  0.034
   21  0.045  0.002  0.015  0.061
   22  0.019  0.001  0.010  0.031
   23  0.042  0.002  0.016  0.060
   24  0.000  0.000  0.032  0.032
   25  0.000  0.004  0.003  0.007
   26  0.004  0.001  0.011  0.015
   27  0.018  0.001  0.012  0.031
   28  0.000  0.000  0.001  0.001
   29  0.000  0.000  0.002  0.003
   30  0.006  0.001  0.003  0.010
   31  0.000  0.000  0.002  0.003
   32  0.004  0.001  0.004  0.009
   33  0.006  0.001  0.003  0.009
   34  0.004  0.001  0.004  0.008
   35  0.000  0.000  0.005  0.005
   36  0.000  0.003  0.003  0.006
   37  0.000  0.000  0.000  0.000
tot    0.306  0.044  0.343  0.693
 
band     6 # energy   -6.58079679 # occ.  2.00000000
 
ion      s      p      d    tot
    1  0.000  0.000  0.007  0.007
    2  0.002  0.001  0.003  0.006
    3  0.002  0.001  0.003  0.006
    4  0.002  0.001  0.003  0.005
    5  0.000  0.001  0.008  0.009
    6  0.007  0.001  0.004  0.012
    7  0.001  0.000  0.003  0.005
    8  0.007  0.001  0.003  0.012
    9  0.000  0.000  0.001  0.001
   10  0.027  0.002  0.005  0.034
   11  0.016  0.002  0.024  0.042
   12  0.006  0.001  0.027  0.034
   13  0.013  0.002  0.025  0.041
   14  0.057  0.001  0.010  0.068
   15  0.001  0.003  0.006  0.010
   16  0.008  0.001  0.026  0.034
   17  0.001  0.003  0.005  0.009
   18  0.005  0.000  0.014  0.019
   19  0.001  0.003  0.006  0.010
   20  0.058  0.001  0.011  0.070
   21  0.013  0.002  0.027  0.042
   22  0.006  0.001  0.025  0.031
   23  0.016  0.002  0.026  0.044
   24  0.024  0.002  0.004  0.030
   25  0.005  0.000  0.013  0.018
   26  0.001  0.003  0.005  0.009
   27  0.007  0.001  0.024  0.031
   28  0.000  0.000  0.001  0.001
   29  0.007  0.001  0.003  0.011
   30  0.001  0.000  0.003  0.004
   31  0.006  0.001  0.004  0.011
   32  0.002  0.001  0.002  0.005
   33  0.001  0.000  0.003  0.005
   34  0.003  0.001  0.002  0.005
   35  0.000  0.000  0.005  0.005
   36  0.000  0.003  0.003  0.006
   37  0.000  0.000  0.000  0.000
tot    0.306  0.044  0.343  0.693
 
band     7 # energy   -6.57103748 # occ.  2.00000000
 
ion      s      p      d    tot
    1  0.013  0.000  0.002  0.014
    2  0.004  0.000  0.008  0.013
    3  0.004  0.000  0.008  0.013
    4  0.004  0.000  0.008  0.013
    5  0.013  0.000  0.005  0.017
    6  0.004  0.000  0.008  0.013
    7  0.004  0.000  0.008  0.013
    8  0.004  0.000  0.008  0.013
    9  0.001  0.002  0.010  0.013
   10  0.000  0.000  0.032  0.032
   11  0.001  0.002  0.017  0.021
   12  0.000  0.000  0.032  0.032
   13  0.001  0.002  0.017  0.021
   14  0.001  0.002  0.017  0.021
   15  0.036  0.001  0.009  0.047
   16  0.000  0.000  0.032  0.032
   17  0.036  0.001  0.009  0.047
   18  0.036  0.001  0.009  0.047
   19  0.000  0.000  0.024  0.024
   20  0.027  0.001  0.012  0.040
   21  0.027  0.001  0.012  0.040
   22  0.005  0.002  0.012  0.019
   23  0.027  0.001  0.012  0.040
   24  0.005  0.002  0.012  0.019
   25  0.000  0.000  0.024  0.024
   26  0.000  0.000  0.024  0.024
   27  0.005  0.002  0.012  0.019
   28  0.003  0.000  0.000  0.003
   29  0.001  0.000  0.004  0.005
   30  0.001  0.000  0.004  0.005
   31  0.001  0.000  0.004  0.005
   32  0.001  0.000  0.004  0.005
   33  0.001  0.000  0.004  0.005
   34  0.001  0.000  0.004  0.005
   35  0.006  0.000  0.001  0.007
   36  0.001  0.005  0.001  0.007
   37  0.001  0.000  0.000  0.001
tot    0.276  0.032  0.411  0.719
 
band     8 # energy   -6.55297681 # occ.  2.00000000
 
ion      s      p      d    tot
    1  0.012  0.001  0.000  0.013
    2  0.000  0.001  0.006  0.007
    3  0.000  0.001  0.006  0.007
    4  0.000  0.001  0.006  0.007
    5  0.013  0.002  0.002  0.016
    6  0.000  0.001  0.006  0.007
    7  0.000  0.001  0.006  0.007
    8  0.000  0.001  0.006  0.007
    9  0.000  0.000  0.000  0.001
   10  0.024  0.003  0.003  0.030
   11  0.022  0.000  0.022  0.044
   12  0.024  0.003  0.003  0.030
   13  0.022  0.000  0.022  0.044
   14  0.022  0.000  0.022  0.044
   15  0.000  0.001  0.022  0.024
   16  0.024  0.003  0.003  0.030
   17  0.000  0.001  0.022  0.024
   18  0.000  0.001  0.022  0.024
   19  0.028  0.003  0.003  0.034
   20  0.002  0.002  0.021  0.025
   21  0.002  0.002  0.021  0.025
   22  0.010  0.000  0.026  0.036
   23  0.002  0.002  0.021  0.025
   24  0.010  0.000  0.027  0.036
   25  0.028  0.003  0.003  0.034
   26  0.028  0.003  0.003  0.034
   27  0.010  0.000  0.026  0.036
   28  0.009  0.001  0.001  0.012
   29  0.000  0.000  0.004  0.004
   30  0.000  0.000  0.004  0.004
   31  0.000  0.000  0.004  0.004
   32  0.000  0.000  0.004  0.004
   33  0.000  0.000  0.004  0.004
   34  0.000  0.000  0.004  0.004
   35  0.007  0.001  0.001  0.009
   36  0.000  0.000  0.000  0.001
   37  0.000  0.000  0.000  0.000
tot    0.299  0.040  0.356  0.695
 
band     9 # energy   -6.52683505 # occ.  2.00000000
 
ion      s      p      d    tot
    1  0.000  0.001  0.005  0.006
    2  0.006  0.001  0.004  0.011
    3  0.007  0.001  0.004  0.012
    4  0.006  0.001  0.004  0.011
    5  0.000  0.000  0.003  0.003
    6  0.000  0.000  0.003  0.004
    7  0.007  0.001  0.004  0.012
    8  0.000  0.000  0.003  0.004
    9  0.000  0.001  0.011  0.012
   10  0.036  0.000  0.016  0.052
   11  0.001  0.002  0.016  0.019
   12  0.008  0.004  0.010  0.022
   13  0.001  0.002  0.017  0.019
   14  0.003  0.001  0.010  0.014
   15  0.016  0.001  0.035  0.052
   16  0.010  0.003  0.010  0.023
   17  0.014  0.001  0.037  0.052
   18  0.060  0.002  0.004  0.066
   19  0.012  0.001  0.027  0.040
   20  0.003  0.001  0.011  0.015
   21  0.001  0.001  0.015  0.017
   22  0.006  0.003  0.012  0.022
   23  0.001  0.001  0.014  0.016
   24  0.027  0.000  0.013  0.041
   25  0.045  0.002  0.004  0.050
   26  0.010  0.001  0.028  0.039
   27  0.007  0.003  0.012  0.022
   28  0.000  0.001  0.006  0.007
   29  0.000  0.000  0.002  0.002
   30  0.003  0.001  0.002  0.005
   31  0.000  0.000  0.002  0.002
   32  0.003  0.001  0.002  0.006
   33  0.003  0.001  0.002  0.005
   34  0.003  0.001  0.003  0.006
   35  0.000  0.001  0.003  0.003
   36  0.000  0.000  0.001  0.001
   37  0.000  0.000  0.000  0.000
tot    0.298  0.041  0.354  0.693
 
band    10 # energy   -6.52681999 # occ.  2.00000000
 
ion      s      p      d    tot
    1  0.000  0.001  0.005  0.006
    2  0.003  0.001  0.003  0.007
    3  0.002  0.001  0.004  0.006
    4  0.003  0.001  0.003  0.007
    5  0.000  0.000  0.003  0.003
    6  0.009  0.001  0.004  0.014
    7  0.001  0.001  0.004  0.006
    8  0.009  0.001  0.004  0.014
    9  0.000  0.001  0.011  0.012
   10  0.000  0.005  0.008  0.012
   11  0.002  0.001  0.012  0.016
   12  0.028  0.001  0.014  0.043
   13  0.002  0.001  0.012  0.016
   14  0.000  0.002  0.019  0.021
   15  0.044  0.001  0.016  0.061
   16  0.026  0.001  0.014  0.042
   17  0.046  0.002  0.014  0.061
   18  0.000  0.000  0.047  0.047
   19  0.033  0.002  0.012  0.047
   20  0.000  0.001  0.016  0.017
   21  0.002  0.001  0.012  0.015
   22  0.021  0.001  0.013  0.035
   23  0.002  0.001  0.012  0.015
   24  0.000  0.004  0.012  0.016
   25  0.000  0.001  0.036  0.036
   26  0.034  0.002  0.011  0.047
   27  0.020  0.001  0.013  0.034
   28  0.000  0.001  0.006  0.007
   29  0.004  0.001  0.002  0.007
   30  0.001  0.000  0.002  0.004
   31  0.004  0.001  0.002  0.007
   32  0.001  0.000  0.001  0.002
   33  0.001  0.000  0.002  0.004
   34  0.001  0.000  0.001  0.002
   35  0.000  0.001  0.003  0.003
   36  0.000  0.000  0.001  0.001
   37  0.000  0.000  0.000  0.000
tot    0.298  0.041  0.354  0.693
 
band    11 # energy   -6.38798828 # occ.  2.00000000
 
ion      s      p      d    tot
    1  0.002  0.000  0.000  0.002
    2  0.001  0.000  0.001  0.002
    3  0.001  0.000  0.001  0.002
    4  0.001  0.000  0.001  0.002
    5  0.003  0.000  0.000  0.003
    6  0.001  0.000  0.001  0.002
    7  0.001  0.000  0.001  0.002
    8  0.001  0.000  0.001  0.002
    9  0.001  0.000  0.001  0.002
   10  0.001  0.000  0.006  0.007
   11  0.001  0.001  0.002  0.004
   12  0.001  0.000  0.006  0.007
   13  0.001  0.001  0.002  0.004
   14  0.001  0.001  0.002  0.004
   15  0.006  0.001  0.003  0.010
   16  0.001  0.000  0.006  0.007
   17  0.006  0.001  0.003  0.010
   18  0.006  0.001  0.003  0.010
   19  0.001  0.001  0.014  0.016
   20  0.001  0.000  0.028  0.029
   21  0.001  0.000  0.028  0.029
   22  0.009  0.002  0.019  0.030
   23  0.001  0.000  0.028  0.029
   24  0.009  0.002  0.019  0.030
   25  0.001  0.001  0.014  0.016
   26  0.001  0.001  0.014  0.016
   27  0.009  0.002  0.019  0.030
   28  0.032  0.000  0.020  0.052
   29  0.024  0.000  0.022  0.045
   30  0.024  0.000  0.022  0.045
   31  0.024  0.000  0.022  0.045
   32  0.024  0.000  0.022  0.045
   33  0.024  0.000  0.022  0.045
   34  0.024  0.000  0.022  0.045
   35  0.028  0.000  0.023  0.050
   36  0.001  0.002  0.022  0.024
   37  0.016  0.000  0.000  0.016
tot    0.286  0.018  0.419  0.723
 
band    12 # energy   -6.10363326 # occ.  2.00000000
 
ion      s      p      d    tot
    1  0.015  0.002  0.002  0.019
    2  0.000  0.001  0.008  0.009
    3  0.000  0.001  0.008  0.009
    4  0.000  0.001  0.008  0.009
    5  0.000  0.000  0.002  0.002
    6  0.000  0.001  0.008  0.009
    7  0.000  0.001  0.008  0.009
    8  0.000  0.001  0.008  0.009
    9  0.016  0.001  0.000  0.018
   10  0.010  0.001  0.013  0.025
   11  0.003  0.000  0.044  0.046
   12  0.010  0.001  0.013  0.025
   13  0.003  0.000  0.044  0.046
   14  0.003  0.000  0.044  0.046
   15  0.003  0.001  0.023  0.028
   16  0.010  0.001  0.013  0.025
   17  0.003  0.001  0.023  0.028
   18  0.003  0.001  0.024  0.028
   19  0.004  0.001  0.012  0.017
   20  0.001  0.000  0.052  0.053
   21  0.001  0.000  0.052  0.053
   22  0.011  0.001  0.020  0.031
   23  0.001  0.000  0.052  0.053
   24  0.011  0.001  0.020  0.031
   25  0.004  0.001  0.012  0.018
   26  0.004  0.001  0.012  0.017
   27  0.011  0.001  0.020  0.031
   28  0.011  0.001  0.000  0.012
   29  0.000  0.000  0.005  0.006
   30  0.000  0.000  0.005  0.006
   31  0.000  0.000  0.005  0.006
   32  0.000  0.000  0.005  0.006
   33  0.000  0.000  0.005  0.006
   34  0.000  0.000  0.005  0.006
   35  0.008  0.001  0.002  0.011
   36  0.000  0.000  0.001  0.001
   37  0.000  0.000  0.000  0.000
tot    0.148  0.027  0.580  0.755
 
band    13 # energy   -6.10081006 # occ.  2.00000000
 
ion      s      p      d    tot
    1  0.000  0.001  0.004  0.005
    2  0.001  0.001  0.005  0.006
    3  0.009  0.001  0.005  0.015
    4  0.001  0.001  0.005  0.006
    5  0.000  0.001  0.011  0.012
    6  0.005  0.001  0.004  0.009
    7  0.009  0.001  0.005  0.015
    8  0.005  0.001  0.004  0.009
    9  0.000  0.000  0.009  0.009
   10  0.000  0.001  0.050  0.050
   11  0.016  0.001  0.021  0.037
   12  0.007  0.002  0.019  0.027
   13  0.016  0.001  0.021  0.038
   14  0.000  0.000  0.050  0.050
   15  0.002  0.000  0.019  0.022
   16  0.007  0.002  0.019  0.027
   17  0.002  0.000  0.019  0.022
   18  0.000  0.001  0.011  0.012
   19  0.006  0.000  0.018  0.024
   20  0.000  0.000  0.075  0.075
   21  0.017  0.001  0.023  0.042
   22  0.003  0.001  0.019  0.023
   23  0.017  0.001  0.023  0.042
   24  0.000  0.001  0.033  0.034
   25  0.000  0.001  0.012  0.013
   26  0.006  0.000  0.018  0.024
   27  0.003  0.001  0.019  0.023
   28  0.000  0.000  0.008  0.008
   29  0.002  0.001  0.004  0.007
   30  0.010  0.001  0.004  0.015
   31  0.002  0.001  0.004  0.007
   32  0.003  0.001  0.004  0.007
   33  0.010  0.001  0.004  0.015
   34  0.003  0.001  0.004  0.007
   35  0.000  0.000  0.003  0.004
   36  0.000  0.004  0.003  0.006
   37  0.000  0.000  0.000  0.000
tot    0.159  0.033  0.557  0.749
 
band    14 # energy   -6.10079907 # occ.  2.00000000
 
ion      s      p      d    tot
    1  0.000  0.001  0.004  0.005
    2  0.009  0.001  0.004  0.014
    3  0.001  0.000  0.004  0.005
    4  0.009  0.001  0.004  0.014
    5  0.000  0.001  0.011  0.012
    6  0.005  0.001  0.005  0.011
    7  0.001  0.000  0.004  0.005
    8  0.005  0.001  0.005  0.011
    9  0.000  0.000  0.009  0.009
   10  0.009  0.002  0.008  0.020
   11  0.005  0.000  0.040  0.046
   12  0.002  0.001  0.039  0.043
   13  0.005  0.000  0.040  0.046
   14  0.021  0.001  0.011  0.033
   15  0.001  0.001  0.014  0.015
   16  0.002  0.001  0.039  0.043
   17  0.001  0.001  0.014  0.015
   18  0.002  0.000  0.022  0.025
   19  0.002  0.001  0.014  0.017
   20  0.023  0.002  0.006  0.031
   21  0.006  0.000  0.058  0.064
   22  0.001  0.001  0.028  0.030
   23  0.006  0.000  0.058  0.064
   24  0.004  0.001  0.014  0.019
   25  0.007  0.000  0.021  0.028
   26  0.002  0.001  0.014  0.017
   27  0.001  0.001  0.028  0.030
   28  0.000  0.000  0.008  0.008
   29  0.008  0.001  0.004  0.012
   30  0.000  0.000  0.004  0.005
   31  0.008  0.001  0.004  0.012
   32  0.007  0.001  0.004  0.013
   33  0.000  0.000  0.004  0.005
   34  0.007  0.001  0.004  0.013
   35  0.000  0.000  0.003  0.004
   36  0.000  0.004  0.003  0.006
   37  0.000  0.000  0.000  0.000
tot    0.159  0.033  0.557  0.749
 
band    15 # energy   -6.03586603 # occ.  2.00000000
 
ion      s      p      d    tot
    1  0.000  0.001  0.015  0.016
    2  0.010  0.001  0.005  0.016
    3  0.002  0.000  0.005  0.008
    4  0.010  0.001  0.005  0.016
    5  0.000  0.000  0.005  0.006
    6  0.003  0.001  0.006  0.010
    7  0.002  0.000  0.005  0.008
    8  0.003  0.001  0.006  0.010
    9  0.000  0.001  0.007  0.008
   10  0.000  0.001  0.030  0.031
   11  0.001  0.001  0.020  0.022
   12  0.007  0.000  0.023  0.030
   13  0.001  0.001  0.020  0.022
   14  0.000  0.001  0.019  0.020
   15  0.010  0.002  0.021  0.033
   16  0.007  0.000  0.023  0.030
   17  0.010  0.002  0.021  0.033
   18  0.000  0.000  0.064  0.064
   19  0.013  0.001  0.020  0.035
   20  0.000  0.002  0.020  0.022
   21  0.000  0.001  0.023  0.024
   22  0.018  0.001  0.021  0.039
   23  0.000  0.001  0.023  0.024
   24  0.000  0.000  0.031  0.032
   25  0.000  0.000  0.068  0.069
   26  0.013  0.001  0.020  0.034
   27  0.018  0.001  0.021  0.039
   28  0.000  0.001  0.005  0.006
   29  0.005  0.001  0.003  0.009
   30  0.000  0.000  0.004  0.005
   31  0.005  0.001  0.003  0.009
   32  0.003  0.001  0.002  0.006
   33  0.000  0.000  0.004  0.005
   34  0.003  0.001  0.002  0.006
   35  0.000  0.001  0.007  0.008
   36  0.000  0.000  0.001  0.001
   37  0.000  0.000  0.000  0.000
tot    0.145  0.028  0.580  0.753
 
band    16 # energy   -6.03585138 # occ.  2.00000000
 
ion      s      p      d    tot
    1  0.000  0.001  0.015  0.016
    2  0.000  0.000  0.006  0.006
    3  0.008  0.001  0.005  0.015
    4  0.000  0.000  0.006  0.006
    5  0.000  0.000  0.005  0.006
    6  0.007  0.001  0.005  0.013
    7  0.008  0.001  0.005  0.015
    8  0.007  0.001  0.005  0.012
    9  0.000  0.001  0.007  0.008
   10  0.009  0.000  0.020  0.029
   11  0.000  0.001  0.019  0.020
   12  0.002  0.001  0.028  0.030
   13  0.000  0.001  0.019  0.020
   14  0.001  0.001  0.020  0.022
   15  0.003  0.001  0.050  0.054
   16  0.002  0.001  0.028  0.030
   17  0.003  0.001  0.050  0.054
   18  0.014  0.002  0.007  0.023
   19  0.005  0.001  0.052  0.057
   20  0.000  0.000  0.024  0.024
   21  0.000  0.001  0.021  0.023
   22  0.006  0.001  0.028  0.034
   23  0.000  0.001  0.021  0.023
   24  0.024  0.001  0.017  0.041
   25  0.018  0.001  0.004  0.023
   26  0.004  0.001  0.053  0.057
   27  0.006  0.001  0.028  0.034
   28  0.000  0.001  0.005  0.006
   29  0.001  0.000  0.003  0.004
   30  0.005  0.001  0.002  0.009
   31  0.001  0.000  0.003  0.004
   32  0.002  0.001  0.004  0.008
   33  0.005  0.001  0.002  0.009
   34  0.002  0.001  0.004  0.007
   35  0.000  0.001  0.007  0.008
   36  0.000  0.000  0.001  0.001
   37  0.000  0.000  0.000  0.000
tot    0.145  0.028  0.580  0.753
 
band    17 # energy   -6.03161324 # occ.  2.00000000
 
ion      s      p      d    tot
    1  0.010  0.000  0.001  0.011
    2  0.000  0.001  0.009  0.010
    3  0.000  0.001  0.009  0.010
    4  0.000  0.001  0.009  0.010
    5  0.018  0.002  0.001  0.021
    6  0.000  0.001  0.009  0.010
    7  0.000  0.001  0.009  0.010
    8  0.000  0.001  0.009  0.010
    9  0.002  0.000  0.002  0.004
   10  0.000  0.000  0.042  0.042
   11  0.006  0.001  0.013  0.020
   12  0.000  0.000  0.041  0.042
   13  0.006  0.001  0.013  0.020
   14  0.006  0.001  0.013  0.020
   15  0.005  0.001  0.026  0.032
   16  0.000  0.000  0.041  0.042
   17  0.005  0.001  0.026  0.032
   18  0.005  0.001  0.026  0.032
   19  0.009  0.000  0.046  0.056
   20  0.010  0.001  0.005  0.017
   21  0.010  0.001  0.005  0.017
   22  0.001  0.000  0.034  0.035
   23  0.010  0.001  0.005  0.017
   24  0.001  0.000  0.035  0.036
   25  0.009  0.000  0.046  0.055
   26  0.009  0.000  0.046  0.056
   27  0.001  0.000  0.034  0.035
   28  0.000  0.001  0.009  0.009
   29  0.001  0.000  0.006  0.007
   30  0.001  0.000  0.006  0.007
   31  0.001  0.000  0.006  0.007
   32  0.001  0.000  0.006  0.007
   33  0.001  0.000  0.006  0.007
   34  0.001  0.000  0.006  0.007
   35  0.001  0.000  0.001  0.002
   36  0.005  0.007  0.001  0.013
   37  0.004  0.000  0.000  0.004
tot    0.139  0.030  0.600  0.769
 
band    18 # energy   -5.71860601 # occ.  2.00000000
 
ion      s      p      d    tot
    1  0.000  0.000  0.016  0.017
    2  0.000  0.001  0.010  0.011
    3  0.005  0.000  0.014  0.020
    4  0.000  0.000  0.010  0.011
    5  0.000  0.000  0.027  0.028
    6  0.008  0.001  0.009  0.017
    7  0.005  0.000  0.014  0.020
    8  0.007  0.001  0.009  0.017
    9  0.000  0.001  0.005  0.006
   10  0.000  0.000  0.017  0.017
   11  0.000  0.000  0.049  0.049
   12  0.000  0.000  0.011  0.011
   13  0.000  0.000  0.049  0.049
   14  0.000  0.000  0.046  0.046
   15  0.000  0.000  0.023  0.023
   16  0.000  0.000  0.011  0.011
   17  0.000  0.000  0.023  0.023
   18  0.000  0.000  0.039  0.040
   19  0.000  0.000  0.010  0.011
   20  0.001  0.000  0.060  0.062
   21  0.000  0.000  0.042  0.043
   22  0.000  0.000  0.032  0.033
   23  0.000  0.000  0.043  0.043
   24  0.000  0.000  0.030  0.031
   25  0.000  0.000  0.012  0.013
   26  0.000  0.000  0.010  0.011
   27  0.000  0.000  0.032  0.033
   28  0.000  0.000  0.012  0.013
   29  0.009  0.001  0.013  0.023
   30  0.000  0.001  0.009  0.010
   31  0.009  0.001  0.013  0.023
   32  0.009  0.001  0.006  0.016
   33  0.000  0.001  0.009  0.010
   34  0.009  0.001  0.007  0.016
   35  0.000  0.000  0.019  0.020
   36  0.000  0.004  0.002  0.005
   37  0.000  0.000  0.000  0.000
tot    0.064  0.017  0.747  0.828
 
band    19 # energy   -5.71860251 # occ.  2.00000000
 
ion      s      p      d    tot
    1  0.000  0.000  0.016  0.017
    2  0.008  0.000  0.012  0.021
    3  0.003  0.001  0.008  0.012
    4  0.008  0.000  0.012  0.021
    5  0.000  0.000  0.027  0.028
    6  0.001  0.000  0.013  0.015
    7  0.004  0.001  0.008  0.012
    8  0.001  0.000  0.013  0.015
    9  0.000  0.001  0.005  0.006
   10  0.000  0.000  0.009  0.009
   11  0.000  0.000  0.047  0.047
   12  0.000  0.000  0.015  0.015
   13  0.000  0.000  0.047  0.047
   14  0.000  0.000  0.050  0.050
   15  0.000  0.000  0.034  0.034
   16  0.000  0.000  0.015  0.015
   17  0.000  0.000  0.034  0.034
   18  0.000  0.000  0.018  0.018
   19  0.000  0.000  0.012  0.012
   20  0.000  0.000  0.036  0.037
   21  0.001  0.000  0.055  0.056
   22  0.000  0.000  0.031  0.031
   23  0.001  0.000  0.054  0.055
   24  0.000  0.000  0.033  0.033
   25  0.000  0.000  0.010  0.010
   26  0.000  0.000  0.012  0.012
   27  0.000  0.000  0.031  0.031
   28  0.000  0.000  0.012  0.013
   29  0.003  0.001  0.006  0.010
   30  0.012  0.001  0.010  0.022
   31  0.003  0.001  0.006  0.010
   32  0.003  0.001  0.013  0.016
   33  0.012  0.001  0.010  0.022
   34  0.003  0.001  0.013  0.016
   35  0.000  0.000  0.019  0.020
   36  0.000  0.004  0.002  0.005
   37  0.000  0.000  0.000  0.000
tot    0.064  0.017  0.747  0.828
 
band    20 # energy   -5.69849154 # occ.  2.00000000
 
ion      s      p      d    tot
    1  0.012  0.000  0.007  0.019
    2  0.000  0.001  0.012  0.012
    3  0.000  0.001  0.012  0.012
    4  0.000  0.001  0.012  0.012
    5  0.000  0.000  0.012  0.013
    6  0.000  0.001  0.012  0.012
    7  0.000  0.001  0.012  0.012
    8  0.000  0.001  0.012  0.012
    9  0.013  0.001  0.000  0.014
   10  0.000  0.000  0.028  0.029
   11  0.000  0.000  0.049  0.049
   12  0.000  0.000  0.028  0.029
   13  0.000  0.000  0.049  0.049
   14  0.000  0.000  0.049  0.049
   15  0.000  0.000  0.031  0.031
   16  0.000  0.000  0.028  0.029
   17  0.000  0.000  0.031  0.031
   18  0.000  0.000  0.031  0.031
   19  0.000  0.000  0.022  0.022
   20  0.001  0.000  0.043  0.045
   21  0.001  0.000  0.043  0.044
   22  0.000  0.000  0.028  0.028
   23  0.001  0.000  0.043  0.044
   24  0.000  0.000  0.028  0.028
   25  0.000  0.000  0.022  0.022
   26  0.000  0.000  0.022  0.022
   27  0.000  0.000  0.028  0.028
   28  0.006  0.000  0.000  0.007
   29  0.000  0.001  0.011  0.012
   30  0.000  0.001  0.011  0.012
   31  0.000  0.001  0.011  0.012
   32  0.000  0.001  0.011  0.012
   33  0.000  0.001  0.011  0.012
   34  0.000  0.001  0.011  0.012
   35  0.013  0.001  0.001  0.015
   36  0.001  0.000  0.004  0.005
   37  0.000  0.000  0.000  0.000
tot    0.051  0.014  0.766  0.832
 
band    21 # energy   -5.68576718 # occ.  2.00000000
 
ion      s      p      d    tot
    1  0.006  0.001  0.004  0.010
    2  0.000  0.001  0.021  0.022
    3  0.000  0.001  0.021  0.022
    4  0.000  0.001  0.021  0.022
    5  0.030  0.001  0.002  0.033
    6  0.000  0.001  0.021  0.022
    7  0.000  0.001  0.021  0.022
    8  0.000  0.001  0.021  0.022
    9  0.010  0.000  0.012  0.023
   10  0.000  0.000  0.041  0.041
   11  0.000  0.001  0.029  0.030
   12  0.000  0.000  0.041  0.041
   13  0.000  0.001  0.029  0.030
   14  0.000  0.001  0.029  0.030
   15  0.000  0.000  0.034  0.034
   16  0.000  0.000  0.041  0.041
   17  0.000  0.000  0.034  0.034
   18  0.000  0.000  0.034  0.034
   19  0.001  0.000  0.024  0.025
   20  0.000  0.000  0.022  0.022
   21  0.000  0.000  0.022  0.022
   22  0.001  0.000  0.016  0.017
   23  0.000  0.000  0.022  0.022
   24  0.001  0.000  0.016  0.017
   25  0.001  0.000  0.024  0.025
   26  0.001  0.000  0.024  0.025
   27  0.001  0.000  0.016  0.017
   28  0.010  0.000  0.006  0.016
   29  0.000  0.000  0.014  0.015
   30  0.000  0.000  0.014  0.015
   31  0.000  0.000  0.014  0.015
   32  0.000  0.000  0.014  0.015
   33  0.000  0.000  0.014  0.015
   34  0.000  0.000  0.014  0.015
   35  0.002  0.000  0.005  0.007
   36  0.002  0.001  0.001  0.004