PROCAR new format
# of k-points:   10         # of bands:  256         # of ions:   38

 k-point     1 :    0.00000000 0.00000000 0.00000000     weight = 0.01562500

band     1 # energy  -49.39873361 # occ.  2.00000000
 
ion      s      p      d    tot
    1  0.000  0.000  0.000  0.000
    2  0.000  0.000  0.000  0.000
    3  0.000  0.000  0.000  0.000
    4  0.000  0.000  0.000  0.000
    5  0.000  0.000  0.000  0.000
    6  0.000  0.000  0.000  0.000
    7  0.000  0.000  0.000  0.000
    8  0.000  0.000  0.000  0.000
    9  0.000  0.000  0.000  0.000
   10  0.000  0.000  0.000  0.000
   11  0.000  0.000  0.000  0.000
   12  0.000  0.000  0.000  0.000
   13  0.000  0.000  0.000  0.000
   14  0.000  0.000  0.000  0.000
   15  0.000  0.000  0.000  0.000
   16  0.000  0.000  0.000  0.000
   17  0.000  0.000  0.000  0.000
   18  0.000  0.000  0.000  0.000
   19  0.000  0.000  0.000  0.000
   20  0.000  0.000  0.000  0.000
   21  0.000  0.000  0.000  0.000
   22  0.000  0.000  0.000  0.000
   23  0.000  0.000  0.000  0.000
   24  0.000  0.000  0.000  0.000
   25  0.000  0.000  0.000  0.000
   26  0.000  0.000  0.000  0.000
   27  0.000  0.000  0.000  0.000
   28  0.000  0.000  0.000  0.000
   29  0.000  0.000  0.000  0.000
   30  0.000  0.000  0.000  0.000
   31  0.000  0.000  0.000  0.000
   32  0.000  0.000  0.000  0.000
   33  0.000  0.000  0.000  0.000
   34  0.000  0.000  0.000  0.000
   35  0.000  0.000  0.000  0.000
   36  0.992  0.000  0.000  0.992
   37  0.001  0.001  0.000  0.001
   38  0.000  0.000  0.000  0.000
tot    0.993  0.001  0.000  0.994
 
band     2 # energy  -27.81536635 # occ.  2.00000000
 
ion      s      p      d    tot
    1  0.000  0.000  0.000  0.000
    2  0.000  0.000  0.000  0.000
    3  0.000  0.000  0.000  0.000
    4  0.000  0.000  0.000  0.000
    5  0.000  0.000  0.000  0.000
    6  0.000  0.000  0.000  0.000
    7  0.000  0.000  0.000  0.000
    8  0.000  0.000  0.000  0.000
    9  0.000  0.000  0.000  0.000
   10  0.000  0.000  0.000  0.000
   11  0.000  0.000  0.000  0.000
   12  0.000  0.000  0.000  0.000
   13  0.000  0.000  0.000  0.000
   14  0.000  0.000  0.000  0.000
   15  0.000  0.000  0.000  0.000
   16  0.000  0.000  0.000  0.000
   17  0.000  0.000  0.000  0.000
   18  0.000  0.000  0.000  0.000
   19  0.000  0.000  0.000  0.000
   20  0.000  0.000  0.000  0.000
   21  0.000  0.000  0.000  0.000
   22  0.000  0.000  0.000  0.000
   23  0.000  0.000  0.000  0.000
   24  0.000  0.000  0.000  0.000
   25  0.000  0.000  0.000  0.000
   26  0.000  0.000  0.000  0.000
   27  0.000  0.000  0.000  0.000
   28  0.000  0.000  0.000  0.000
   29  0.000  0.000  0.000  0.000
   30  0.000  0.000  0.000  0.000
   31  0.000  0.000  0.000  0.000
   32  0.000  0.000  0.000  0.000
   33  0.000  0.000  0.000  0.000
   34  0.000  0.000  0.000  0.000
   35  0.000  0.000  0.000  0.000
   36  0.000  0.927  0.001  0.928
   37  0.033  0.007  0.000  0.040
   38  0.001  0.000  0.000  0.001
tot    0.035  0.934  0.001  0.970
 
band     3 # energy  -27.38280929 # occ.  2.00000000
 
ion      s      p      d    tot
    1  0.000  0.000  0.000  0.000
    2  0.000  0.000  0.000  0.000
    3  0.000  0.000  0.000  0.000
    4  0.000  0.000  0.000  0.000
    5  0.000  0.000  0.000  0.000
    6  0.000  0.000  0.000  0.000
    7  0.000  0.000  0.000  0.000
    8  0.000  0.000  0.000  0.000
    9  0.000  0.000  0.000  0.000
   10  0.000  0.000  0.000  0.000
   11  0.000  0.000  0.000  0.000
   12  0.000  0.000  0.000  0.000
   13  0.000  0.000  0.000  0.000
   14  0.000  0.000  0.000  0.000
   15  0.000  0.000  0.000  0.000
   16  0.000  0.000  0.000  0.000
   17  0.000  0.000  0.000  0.000
   18  0.000  0.000  0.000  0.000
   19  0.000  0.000  0.000  0.000
   20  0.000  0.000  0.000  0.000
   21  0.000  0.000  0.000  0.000
   22  0.000  0.000  0.000  0.000
   23  0.000  0.000  0.000  0.000
   24  0.000  0.000  0.000  0.000
   25  0.000  0.000  0.000  0.000
   26  0.000  0.000  0.000  0.000
   27  0.000  0.000  0.000  0.000
   28  0.000  0.000  0.000  0.000
   29  0.000  0.000  0.000  0.000
   30  0.000  0.000  0.000  0.000
   31  0.000  0.000  0.000  0.000
   32  0.000  0.000  0.000  0.000
   33  0.000  0.000  0.000  0.000
   34  0.000  0.000  0.000  0.000
   35  0.000  0.000  0.000  0.000
   36  0.000  0.971  0.000  0.971
   37  0.000  0.000  0.000  0.000
   38  0.000  0.000  0.000  0.000
tot    0.000  0.972  0.001  0.973
 
band     4 # energy  -27.38280179 # occ.  2.00000000
 
ion      s      p      d    tot
    1  0.000  0.000  0.000  0.000
    2  0.000  0.000  0.000  0.000
    3  0.000  0.000  0.000  0.000
    4  0.000  0.000  0.000  0.000
    5  0.000  0.000  0.000  0.000
    6  0.000  0.000  0.000  0.000
    7  0.000  0.000  0.000  0.000
    8  0.000  0.000  0.000  0.000
    9  0.000  0.000  0.000  0.000
   10  0.000  0.000  0.000  0.000
   11  0.000  0.000  0.000  0.000
   12  0.000  0.000  0.000  0.000
   13  0.000  0.000  0.000  0.000
   14  0.000  0.000  0.000  0.000
   15  0.000  0.000  0.000  0.000
   16  0.000  0.000  0.000  0.000
   17  0.000  0.000  0.000  0.000
   18  0.000  0.000  0.000  0.000
   19  0.000  0.000  0.000  0.000
   20  0.000  0.000  0.000  0.000
   21  0.000  0.000  0.000  0.000
   22  0.000  0.000  0.000  0.000
   23  0.000  0.000  0.000  0.000
   24  0.000  0.000  0.000  0.000
   25  0.000  0.000  0.000  0.000
   26  0.000  0.000  0.000  0.000
   27  0.000  0.000  0.000  0.000
   28  0.000  0.000  0.000  0.000
   29  0.000  0.000  0.000  0.000
   30  0.000  0.000  0.000  0.001
   31  0.000  0.000  0.000  0.000
   32  0.000  0.000  0.000  0.000
   33  0.000  0.000  0.000  0.001
   34  0.000  0.000  0.000  0.000
   35  0.000  0.000  0.000  0.000
   36  0.000  0.971  0.000  0.971
   37  0.000  0.000  0.000  0.000
   38  0.000  0.000  0.000  0.000
tot    0.000  0.972  0.001  0.973
 
band     5 # energy  -19.74449371 # occ.  2.00000000
 
ion      s      p      d    tot
    1  0.000  0.000  0.000  0.000
    2  0.000  0.000  0.000  0.000
    3  0.000  0.000  0.000  0.000
    4  0.000  0.000  0.000  0.000
    5  0.000  0.000  0.000  0.000
    6  0.000  0.000  0.000  0.000
    7  0.000  0.000  0.000  0.000
    8  0.000  0.000  0.000  0.000
    9  0.000  0.000  0.000  0.000
   10  0.000  0.000  0.000  0.000
   11  0.000  0.000  0.000  0.000
   12  0.000  0.000  0.000  0.000
   13  0.000  0.000  0.000  0.000
   14  0.000  0.000  0.000  0.000
   15  0.000  0.000  0.000  0.000
   16  0.000  0.000  0.000  0.000
   17  0.000  0.000  0.000  0.000
   18  0.000  0.000  0.000  0.000
   19  0.000  0.000  0.000  0.000
   20  0.000  0.000  0.000  0.000
   21  0.000  0.000  0.000  0.000
   22  0.000  0.000  0.000  0.000
   23  0.000  0.000  0.000  0.000
   24  0.000  0.000  0.000  0.000
   25  0.000  0.000  0.000  0.000
   26  0.000  0.000  0.000  0.000
   27  0.000  0.000  0.000  0.000
   28  0.000  0.000  0.000  0.000
   29  0.000  0.000  0.000  0.000
   30  0.000  0.000  0.000  0.000
   31  0.000  0.000  0.000  0.000
   32  0.000  0.000  0.000  0.000
   33  0.000  0.000  0.000  0.000
   34  0.000  0.000  0.000  0.000
   35  0.000  0.000  0.000  0.000
   36  0.004  0.038  0.013  0.055
   37  0.708  0.025  0.000  0.732
   38  0.122  0.025  0.000  0.147
tot    0.834  0.088  0.013  0.935
 
band     6 # energy   -8.08850233 # occ.  2.00000000
 
ion      s      p      d    tot
    1  0.000  0.000  0.000  0.000
    2  0.000  0.000  0.000  0.000
    3  0.000  0.000  0.000  0.000
    4  0.000  0.000  0.000  0.000
    5  0.000  0.000  0.000  0.000
    6  0.000  0.000  0.000  0.000
    7  0.000  0.000  0.000  0.000
    8  0.000  0.000  0.000  0.000
    9  0.000  0.000  0.000  0.000
   10  0.000  0.000  0.000  0.000
   11  0.000  0.000  0.000  0.000
   12  0.000  0.000  0.000  0.000
   13  0.000  0.000  0.000  0.000
   14  0.000  0.000  0.000  0.000
   15  0.000  0.000  0.000  0.000
   16  0.000  0.000  0.000  0.000
   17  0.000  0.000  0.000  0.000
   18  0.000  0.000  0.000  0.000
   19  0.000  0.000  0.000  0.000
   20  0.001  0.000  0.002  0.004
   21  0.001  0.000  0.002  0.004
   22  0.000  0.000  0.000  0.000
   23  0.001  0.000  0.002  0.004
   24  0.000  0.000  0.000  0.000
   25  0.000  0.000  0.000  0.000
   26  0.000  0.000  0.000  0.000
   27  0.000  0.000  0.000  0.000
   28  0.000  0.000  0.000  0.000
   29  0.000  0.000  0.000  0.000
   30  0.000  0.000  0.000  0.000
   31  0.000  0.000  0.000  0.000
   32  0.000  0.000  0.000  0.000
   33  0.000  0.000  0.000  0.000
   34  0.000  0.000  0.000  0.000
   35  0.000  0.000  0.000  0.000
   36  0.028  0.021  0.104  0.153
   37  0.034  0.523  0.000  0.558
   38  0.175  0.017  0.000  0.192
tot    0.243  0.563  0.111  0.917
 
band     7 # energy   -6.63702054 # occ.  2.00000000
 
ion      s      p      d    tot
    1  0.006  0.001  0.000  0.006
    2  0.006  0.001  0.000  0.006
    3  0.006  0.001  0.000  0.006
    4  0.006  0.001  0.000  0.006
    5  0.006  0.001  0.000  0.006
    6  0.006  0.001  0.000  0.006
    7  0.006  0.001  0.000  0.006
    8  0.006  0.001  0.000  0.006
    9  0.006  0.001  0.000  0.006
   10  0.023  0.000  0.000  0.024
   11  0.023  0.000  0.000  0.024
   12  0.023  0.000  0.000  0.024
   13  0.023  0.000  0.000  0.024
   14  0.023  0.000  0.000  0.024
   15  0.022  0.000  0.000  0.023
   16  0.023  0.000  0.000  0.024
   17  0.022  0.000  0.000  0.023
   18  0.022  0.000  0.000  0.023
   19  0.023  0.000  0.000  0.024
   20  0.024  0.000  0.000  0.024
   21  0.024  0.000  0.000  0.024
   22  0.022  0.000  0.000  0.023
   23  0.024  0.000  0.000  0.024
   24  0.022  0.000  0.000  0.023
   25  0.023  0.000  0.000  0.024
   26  0.023  0.000  0.000  0.024
   27  0.022  0.000  0.000  0.023
   28  0.006  0.001  0.000  0.007
   29  0.006  0.001  0.000  0.007
   30  0.006  0.001  0.000  0.007
   31  0.006  0.001  0.000  0.007
   32  0.006  0.001  0.000  0.007
   33  0.006  0.001  0.000  0.007
   34  0.006  0.001  0.000  0.007
   35  0.006  0.001  0.000  0.006
   36  0.002  0.001  0.001  0.005
   37  0.001  0.004  0.000  0.004
   38  0.001  0.000  0.000  0.001
tot    0.518  0.017  0.007  0.542
 
band     8 # energy   -5.78531081 # occ.  2.00000000
 
ion      s      p      d    tot
    1  0.009  0.000  0.000  0.009
    2  0.008  0.000  0.000  0.009
    3  0.008  0.000  0.000  0.009
    4  0.008  0.000  0.000  0.009
    5  0.008  0.000  0.000  0.009
    6  0.008  0.000  0.000  0.009
    7  0.008  0.000  0.000  0.009
    8  0.008  0.000  0.000  0.009
    9  0.008  0.000  0.000  0.009
   10  0.012  0.001  0.014  0.028
   11  0.012  0.001  0.014  0.027
   12  0.012  0.001  0.014  0.028
   13  0.012  0.001  0.014  0.027
   14  0.012  0.001  0.014  0.027
   15  0.011  0.001  0.012  0.024
   16  0.012  0.001  0.014  0.028
   17  0.011  0.001  0.012  0.024
   18  0.011  0.001  0.012  0.024
   19  0.011  0.001  0.013  0.025
   20  0.011  0.001  0.020  0.032
   21  0.011  0.001  0.020  0.032
   22  0.011  0.001  0.012  0.024
   23  0.011  0.001  0.020  0.032
   24  0.011  0.001  0.012  0.024
   25  0.011  0.001  0.013  0.025
   26  0.011  0.001  0.013  0.025
   27  0.011  0.001  0.012  0.024
   28  0.009  0.000  0.001  0.010
   29  0.008  0.000  0.001  0.010
   30  0.008  0.000  0.001  0.010
   31  0.008  0.000  0.001  0.010
   32  0.008  0.000  0.001  0.010
   33  0.008  0.000  0.001  0.010
   34  0.008  0.000  0.001  0.010
   35  0.008  0.000  0.001  0.009
   36  0.003  0.001  0.001  0.005
   37  0.000  0.001  0.000  0.001
   38  0.000  0.000  0.000  0.000
tot    0.347  0.026  0.271  0.644
 
band     9 # energy   -5.54623755 # occ.  2.00000000
 
ion      s      p      d    tot
    1  0.006  0.000  0.009  0.015
    2  0.006  0.000  0.008  0.013
    3  0.006  0.000  0.008  0.013
    4  0.006  0.000  0.008  0.013
    5  0.005  0.000  0.006  0.012
    6  0.006  0.000  0.008  0.013
    7  0.006  0.000  0.008  0.013
    8  0.006  0.000  0.008  0.013
    9  0.006  0.000  0.007  0.013
   10  0.000  0.000  0.015  0.015
   11  0.000  0.000  0.010  0.010
   12  0.000  0.000  0.015  0.015
   13  0.000  0.000  0.010  0.010
   14  0.000  0.000  0.010  0.010
   15  0.000  0.000  0.008  0.008
   16  0.000  0.000  0.015  0.015
   17  0.000  0.000  0.008  0.008
   18  0.000  0.000  0.008  0.008
   19  0.001  0.000  0.021  0.022
   20  0.001  0.000  0.039  0.040
   21  0.001  0.000  0.039  0.040
   22  0.000  0.000  0.015  0.015
   23  0.001  0.000  0.039  0.040
   24  0.000  0.000  0.015  0.015
   25  0.001  0.000  0.021  0.022
   26  0.001  0.000  0.021  0.022
   27  0.000  0.000  0.015  0.015
   28  0.012  0.000  0.019  0.031
   29  0.014  0.000  0.025  0.039
   30  0.014  0.000  0.025  0.039
   31  0.014  0.000  0.025  0.039
   32  0.014  0.000  0.025  0.039
   33  0.014  0.000  0.025  0.039
   34  0.014  0.000  0.025  0.039
   35  0.014  0.000  0.019  0.034
   36  0.008  0.000  0.007  0.015
   37  0.000  0.000  0.000  0.000
   38  0.000  0.000  0.000  0.000
tot    0.178  0.005  0.587  0.769
 
band    10 # energy   -5.40425620 # occ.  2.00000000
 
ion      s      p      d    tot
    1  0.001  0.000  0.003  0.004
    2  0.001  0.000  0.006  0.007
    3  0.001  0.000  0.006  0.007
    4  0.001  0.000  0.006  0.007
    5  0.006  0.000  0.002  0.008
    6  0.001  0.000  0.006  0.007
    7  0.001  0.000  0.006  0.007
    8  0.001  0.000  0.006  0.007
    9  0.002  0.000  0.001  0.003
   10  0.004  0.000  0.009  0.013
   11  0.000  0.000  0.022  0.022
   12  0.004  0.000  0.009  0.013
   13  0.000  0.000  0.022  0.022
   14  0.000  0.000  0.022  0.022
   15  0.001  0.000  0.010  0.012
   16  0.004  0.000  0.009  0.013
   17  0.001  0.000  0.010  0.012
   18  0.001  0.000  0.010  0.012
   19  0.003  0.001  0.029  0.034
   20  0.005  0.000  0.120  0.125
   21  0.004  0.000  0.120  0.125
   22  0.014  0.000  0.017  0.032
   23  0.004  0.000  0.120  0.125
   24  0.014  0.000  0.018  0.032
   25  0.003  0.001  0.029  0.033
   26  0.003  0.001  0.029  0.034
   27  0.014  0.000  0.018  0.032
   28  0.001  0.000  0.001  0.002
   29  0.000  0.000  0.005  0.006
   30  0.000  0.000  0.005  0.006
   31  0.000  0.000  0.005  0.006
   32  0.000  0.000  0.005  0.006
   33  0.000  0.000  0.005  0.006
   34  0.000  0.000  0.005  0.006
   35  0.004  0.001  0.003  0.008
   36  0.000  0.001  0.001  0.002
   37  0.000  0.002  0.000  0.002
   38  0.001  0.000  0.000  0.001
tot    0.101  0.014  0.705  0.820
 
band    11 # energy   -5.40292973 # occ.  2.00000000
 
ion      s      p      d    tot
    1  0.000  0.000  0.008  0.008
    2  0.001  0.000  0.002  0.003
    3  0.001  0.000  0.002  0.003
    4  0.000  0.000  0.002  0.002
    5  0.000  0.000  0.003  0.003
    6  0.000  0.000  0.002  0.002
    7  0.000  0.000  0.002  0.003
    8  0.000  0.000  0.002  0.003
    9  0.000  0.000  0.002  0.002
   10  0.002  0.001  0.020  0.022
   11  0.000  0.000  0.021  0.021
   12  0.002  0.001  0.019  0.022
   13  0.000  0.000  0.020  0.020
   14  0.000  0.000  0.020  0.020
   15  0.004  0.001  0.008  0.012
   16  0.008  0.001  0.017  0.025
   17  0.001  0.000  0.010  0.011
   18  0.001  0.000  0.010  0.011
   19  0.025  0.000  0.037  0.062
   20  0.005  0.000  0.140  0.145
   21  0.006  0.000  0.132  0.139
   22  0.000  0.001  0.033  0.034
   23  0.023  0.000  0.007  0.030
   24  0.000  0.001  0.033  0.034
   25  0.006  0.001  0.036  0.043
   26  0.007  0.001  0.036  0.044
   27  0.000  0.000  0.036  0.036
   28  0.000  0.000  0.006  0.007
   29  0.000  0.000  0.007  0.007
   30  0.000  0.000  0.007  0.007
   31  0.001  0.001  0.009  0.010
   32  0.001  0.001  0.009  0.010
   33  0.001  0.000  0.003  0.004
   34  0.001  0.000  0.003  0.005
   35  0.000  0.000  0.000  0.000
   36  0.000  0.000  0.004  0.004
   37  0.000  0.002  0.000  0.002
   38  0.000  0.000  0.000  0.000
tot    0.096  0.014  0.706  0.816
 
band    12 # energy   -5.40291890 # occ.  2.00000000
 
ion      s      p      d    tot
    1  0.000  0.000  0.008  0.008
    2  0.000  0.000  0.002  0.002
    3  0.000  0.000  0.002  0.002
    4  0.001  0.000  0.002  0.003
    5  0.000  0.000  0.003  0.003
    6  0.001  0.000  0.002  0.003
    7  0.001  0.000  0.002  0.003
    8  0.001  0.000  0.002  0.003
    9  0.000  0.000  0.002  0.002
   10  0.006  0.001  0.018  0.024
   11  0.000  0.001  0.019  0.020
   12  0.006  0.001  0.018  0.024
   13  0.000  0.000  0.020  0.021
   14  0.000  0.000  0.020  0.021
   15  0.000  0.000  0.011  0.011
   16  0.000  0.001  0.020  0.021
   17  0.003  0.000  0.009  0.012
   18  0.003  0.000  0.008  0.012
   19  0.000  0.001  0.036  0.037
   20  0.018  0.000  0.046  0.064
   21  0.017  0.000  0.054  0.071
   22  0.000  0.001  0.035  0.035
   23  0.000  0.000  0.179  0.179
   24  0.000  0.001  0.035  0.035
   25  0.019  0.001  0.037  0.057
   26  0.018  0.001  0.037  0.055
   27  0.000  0.001  0.032  0.033
   28  0.000  0.000  0.006  0.007
   29  0.001  0.001  0.006  0.007
   30  0.001  0.001  0.006  0.008
   31  0.000  0.000  0.004  0.004
   32  0.000  0.000  0.004  0.004
   33  0.000  0.000  0.009  0.010
   34  0.000  0.000  0.009  0.010
   35  0.000  0.000  0.000  0.000
   36  0.000  0.000  0.004  0.004
   37  0.000  0.002  0.000  0.002
   38  0.000  0.000  0.000  0.000
tot    0.096  0.014  0.706  0.817
 
band    13 # energy   -5.37124439 # occ.  2.00000000
 
ion      s      p      d    tot
    1  0.015  0.000  0.009  0.024
    2  0.008  0.000  0.020  0.028
    3  0.008  0.000  0.020  0.028
    4  0.008  0.000  0.020  0.028
    5  0.004  0.000  0.032  0.036
    6  0.008  0.000  0.020  0.028
    7  0.008  0.000  0.020  0.028
    8  0.008  0.000  0.020  0.028
    9  0.008  0.000  0.015  0.023
   10  0.001  0.000  0.018  0.020
   11  0.008  0.001  0.031  0.040
   12  0.001  0.000  0.018  0.020
   13  0.008  0.001  0.031  0.040
   14  0.008  0.001  0.031  0.040
   15  0.003  0.001  0.027  0.031
   16  0.001  0.000  0.018  0.020
   17  0.003  0.001  0.027  0.031
   18  0.003  0.001  0.027  0.031
   19  0.001  0.000  0.010  0.012
   20  0.002  0.001  0.022  0.025
   21  0.002  0.001  0.022  0.025
   22  0.003  0.000  0.012  0.015
   23  0.003  0.001  0.022  0.025
   24  0.003  0.000  0.012  0.015
   25  0.001  0.000  0.010  0.012
   26  0.001  0.000  0.010  0.012
   27  0.003  0.000  0.012  0.015
   28  0.004  0.000  0.003  0.008
   29  0.003  0.000  0.011  0.014
   30  0.003  0.000  0.011  0.014
   31  0.003  0.000  0.011  0.014
   32  0.003  0.000  0.011  0.014
   33  0.003  0.000  0.011  0.014
   34  0.003  0.000  0.011  0.014
   35  0.000  0.000  0.011  0.012
   36  0.003  0.000  0.002  0.005
   37  0.000  0.000  0.000  0.000
   38  0.000  0.000  0.000  0.000
tot    0.154  0.010  0.622  0.787
 
band    14 # energy   -5.36962628 # occ.  2.00000000
 
ion      s      p      d    tot
    1  0.000  0.000  0.004  0.004
    2  0.000  0.000  0.002  0.002
    3  0.001  0.000  0.006  0.007
    4  0.000  0.000  0.002  0.002
    5  0.000  0.000  0.008  0.009
    6  0.001  0.001  0.005  0.007
    7  0.001  0.000  0.005  0.006
    8  0.001  0.001  0.005  0.006
    9  0.000  0.000  0.001  0.001
   10  0.008  0.001  0.014  0.022
   11  0.008  0.001  0.058  0.067
   12  0.002  0.000  0.073  0.075
   13  0.007  0.001  0.060  0.068
   14  0.030  0.001  0.016  0.046
   15  0.002  0.001  0.016  0.018
   16  0.002  0.000  0.070  0.073
   17  0.001  0.001  0.015  0.017
   18  0.006  0.000  0.035  0.041
   19  0.000  0.000  0.030  0.031
   20  0.012  0.001  0.041  0.054
   21  0.003  0.001  0.030  0.034
   22  0.003  0.000  0.031  0.034
   23  0.003  0.001  0.030  0.035
   24  0.014  0.001  0.008  0.023
   25  0.000  0.000  0.017  0.018
   26  0.000  0.000  0.031  0.031
   27  0.004  0.000  0.030  0.034
   28  0.000  0.000  0.001  0.001
   29  0.002  0.000  0.005  0.007
   30  0.001  0.000  0.004  0.005
   31  0.002  0.000  0.005  0.007
   32  0.000  0.000  0.003  0.004
   33  0.001  0.000  0.004  0.005
   34  0.000  0.000  0.004  0.004
   35  0.000  0.000  0.007  0.007
   36  0.000  0.000  0.002  0.002
   37  0.000  0.000  0.000  0.000
   38  0.000  0.000  0.000  0.000
tot    0.115  0.015  0.676  0.807
 
band    15 # energy   -5.36961690 # occ.  2.00000000
 
ion      s      p      d    tot
    1  0.000  0.000  0.004  0.004
    2  0.001  0.001  0.006  0.008
    3  0.001  0.000  0.003  0.004
    4  0.001  0.001  0.006  0.008
    5  0.000  0.000  0.008  0.009
    6  0.000  0.000  0.003  0.003
    7  0.001  0.000  0.003  0.004
    8  0.000  0.000  0.003  0.004
    9  0.000  0.000  0.001  0.001
   10  0.000  0.000  0.091  0.091
   11  0.022  0.001  0.031  0.054
   12  0.006  0.001  0.032  0.038
   13  0.023  0.001  0.029  0.053
   14  0.000  0.001  0.074  0.074
   15  0.004  0.001  0.028  0.033
   16  0.006  0.001  0.035  0.041
   17  0.005  0.000  0.029  0.034
   18  0.000  0.002  0.008  0.010
   19  0.000  0.000  0.022  0.023
   20  0.000  0.001  0.026  0.027
   21  0.010  0.001  0.038  0.048
   22  0.011  0.001  0.015  0.026
   23  0.009  0.001  0.037  0.047
   24  0.000  0.000  0.037  0.038
   25  0.000  0.000  0.035  0.035
   26  0.000  0.000  0.021  0.022
   27  0.010  0.001  0.016  0.027
   28  0.000  0.000  0.001  0.001
   29  0.000  0.000  0.003  0.003
   30  0.001  0.000  0.005  0.006
   31  0.000  0.000  0.003  0.003
   32  0.002  0.000  0.005  0.007
   33  0.001  0.000  0.004  0.006
   34  0.002  0.000  0.005  0.006
   35  0.000  0.000  0.007  0.007
   36  0.000  0.000  0.002  0.002
   37  0.000  0.000  0.000  0.000
   38  0.000  0.000  0.000  0.000
tot    0.115  0.015  0.676  0.807
 
band    16 # energy   -5.36341420 # occ.  2.00000000
 
ion      s      p      d    tot
    1  0.002  0.000  0.003  0.006
    2  0.003  0.000  0.010  0.013
    3  0.003  0.000  0.010  0.013
    4  0.003  0.000  0.010  0.013
    5  0.010  0.001  0.001  0.012
    6  0.003  0.000  0.010  0.013
    7  0.003  0.000  0.010  0.013
    8  0.003  0.000  0.010  0.013
    9  0.000  0.000  0.021  0.021
   10  0.005  0.001  0.022  0.028
   11  0.008  0.001  0.022  0.030
   12  0.005  0.001  0.022  0.028
   13  0.008  0.001  0.022  0.030
   14  0.008  0.001  0.021  0.030
   15  0.006  0.000  0.045  0.051
   16  0.005  0.001  0.022  0.028
   17  0.006  0.000  0.045  0.051
   18  0.006  0.000  0.045  0.051
   19  0.010  0.001  0.024  0.035
   20  0.005  0.001  0.015  0.021
   21  0.005  0.001  0.015  0.021
   22  0.000  0.000  0.026  0.026
   23  0.005  0.001  0.015  0.021
   24  0.000  0.000  0.026  0.026
   25  0.010  0.001  0.024  0.035
   26  0.010  0.001  0.024  0.035
   27  0.000  0.000  0.026  0.026
   28  0.001  0.001  0.008  0.010
   29  0.001  0.000  0.012  0.014
   30  0.001  0.000  0.012  0.014
   31  0.001  0.000  0.012  0.014
   32  0.001  0.000  0.012  0.014
   33  0.001  0.000  0.012  0.014
   34  0.001  0.000  0.012  0.014
   35  0.004  0.000  0.001  0.006
   36  0.002  0.000  0.001  0.003
   37  0.000  0.000  0.000  0.000
   38  0.000  0.000  0.000  0.000
tot    0.146  0.015  0.629  0.790
 
band    17 # energy   -5.35398995 # occ.  2.00000000
 
ion      s      p      d    tot
    1  0.000  0.001  0.026  0.026
    2  0.001  0.000  0.007  0.009
    3  0.001  0.000  0.007  0.009
    4  0.001  0.000  0.007  0.009
    5  0.000  0.000  0.000  0.000
    6  0.001  0.000  0.007  0.009
    7  0.001  0.000  0.007  0.009
    8  0.001  0.000  0.007  0.009
    9  0.009  0.001  0.000  0.010
   10  0.005  0.000  0.077  0.082
   11  0.002  0.000  0.040  0.042
   12  0.005  0.000  0.077  0.082
   13  0.002  0.000  0.040  0.042
   14  0.002  0.000  0.040  0.042
   15  0.007  0.001  0.006  0.014
   16  0.005  0.000  0.077  0.082
   17  0.007  0.001  0.006  0.014
   18  0.007  0.001  0.006  0.014
   19  0.000  0.000  0.025  0.025
   20  0.002  0.000  0.019  0.022
   21  0.002  0.000  0.019  0.022
   22  0.000  0.000  0.014  0.015
   23  0.002  0.000  0.019  0.022
   24  0.000  0.000  0.014  0.015
   25  0.000  0.000  0.025  0.025
   26  0.000  0.000  0.025  0.025
   27  0.000  0.000  0.014  0.015
   28  0.012  0.000  0.008  0.020
   29  0.001  0.000  0.017  0.019
   30  0.001  0.000  0.017  0.019
   31  0.001  0.000  0.017  0.019
   32  0.001  0.000  0.017  0.019
   33  0.001  0.000  0.017  0.019
   34  0.001  0.000  0.017  0.019
   35  0.001  0.000  0.005  0.006
   36  0.000  0.000  0.000  0.001
   37  0.000  0.000  0.000  0.000
   38  0.000  0.000  0.000  0.000
tot    0.089  0.009  0.729  0.827
 
band    18 # energy   -5.33794997 # occ.  2.00000000
 
ion      s      p      d    tot
    1  0.000  0.001  0.007  0.008
    2  0.003  0.001  0.007  0.010
    3  0.001  0.000  0.005  0.007
    4  0.004  0.001  0.005  0.010
    5  0.000  0.000  0.009  0.009
    6  0.000  0.000  0.007  0.007
    7  0.003  0.001  0.004  0.008
    8  0.001  0.000  0.007  0.009
    9  0.000  0.000  0.010  0.010
   10  0.016  0.000  0.012  0.028
   11  0.000  0.000  0.019  0.019
   12  0.001  0.000  0.046  0.048
   13  0.000  0.000  0.012  0.012
   14  0.001  0.000  0.026  0.027
   15  0.004  0.000  0.034  0.038
   16  0.008  0.000  0.030  0.038
   17  0.001  0.000  0.049  0.050
   18  0.008  0.000  0.016  0.025
   19  0.003  0.000  0.041  0.044
   20  0.002  0.000  0.039  0.041
   21  0.000  0.001  0.022  0.023
   22  0.001  0.000  0.056  0.058
   23  0.001  0.000  0.030  0.031
   24  0.016  0.000  0.011  0.027
   25  0.006  0.000  0.022  0.029
   26  0.001  0.000  0.057  0.058
   27  0.008  0.000  0.035  0.043
   28  0.000  0.000  0.016  0.016
   29  0.002  0.001  0.011  0.013
   30  0.004  0.000  0.007  0.011
   31  0.000  0.000  0.011  0.012
   32  0.005  0.001  0.007  0.013
   33  0.001  0.000  0.009  0.011
   34  0.004  0.001  0.009  0.014
   35  0.000  0.001  0.006  0.006
   36  0.000  0.000  0.003  0.003
   37  0.000  0.000  0.000  0.000
   38  0.000  0.000  0.000  0.000
tot    0.107  0.012  0.696  0.815
 
band    19 # energy   -5.33794416 # occ.  2.00000000
 
ion      s      p      d    tot
    1  0.000  0.001  0.007  0.008
    2  0.001  0.000  0.005  0.006
    3  0.003  0.001  0.007  0.010
    4  0.000  0.000  0.007  0.007
    5  0.000  0.000  0.009  0.009
    6  0.004  0.001  0.005  0.010
    7  0.001  0.000  0.007  0.009
    8  0.003  0.001  0.004  0.008
    9  0.000  0.000  0.010  0.010
   10  0.001  0.000  0.047  0.048
   11  0.000  0.000  0.019  0.020
   12  0.016  0.000  0.013  0.028
   13  0.001  0.000  0.025  0.026
   14  0.000  0.000  0.012  0.012
   15  0.005  0.000  0.032  0.037
   16  0.009  0.000  0.029  0.038
   17  0.008  0.000  0.017  0.025
   18  0.001  0.000  0.050  0.050
   19  0.003  0.000  0.040  0.043
   20  0.000  0.001  0.022  0.022
   21  0.002  0.000  0.038  0.041
   22  0.016  0.000  0.012  0.028
   23  0.001  0.000  0.030  0.032
   24  0.001  0.000  0.057  0.058
   25  0.000  0.000  0.058  0.059
   26  0.006  0.000  0.023  0.029
   27  0.009  0.000  0.033  0.042
   28  0.000  0.000  0.016  0.016
   29  0.004  0.001  0.007  0.011
   30  0.002  0.001  0.011  0.013
   31  0.005  0.001  0.007  0.013
   32  0.000  0.000  0.011  0.012
   33  0.004  0.001  0.009  0.014
   34  0.001  0.000  0.009  0.011
   35  0.000  0.001  0.006  0.006
   36  0.000  0.000  0.003  0.003
   37  0.000  0.000  0.000  0.000
   38  0.000  0.000  0.000  0.000
tot    0.107  0.012  0.696  0.815
 
band    20 # energy   -5.32365427 # occ.  2.00000000
 
ion      s      p      d    tot
    1  0.004  0.001  0.000  0.004
    2  0.000  0.000  0.008  0.008
    3  0.000  0.000  0.008  0.008
    4  0.000  0.000  0.008  0.008
    5  0.000  0.000  0.004  0.004
    6  0.000  0.000  0.008  0.008
    7  0.000  0.000  0.008  0.008
    8  0.000  0.000  0.008  0.008
    9  0.002  0.000  0.004  0.006
   10  0.002  0.000  0.017  0.019
   11  0.001  0.000  0.019  0.021
   12  0.002  0.000  0.017  0.019
   13  0.001  0.000  0.019  0.021
   14  0.001  0.000  0.019  0.021
   15  0.000  0.000  0.041  0.041
   16  0.002  0.000  0.017  0.019
   17  0.000  0.000  0.041  0.041
   18  0.000  0.000  0.042  0.042
   19  0.004  0.000  0.050  0.054
   20  0.005  0.000  0.015  0.019
   21  0.005  0.000  0.014  0.019
   22  0.000  0.000  0.061  0.061
   23  0.005  0.000  0.014  0.019
   24  0.000  0.000  0.061  0.061
   25  0.004  0.000  0.049  0.054
   26  0.004  0.000  0.050  0.054
   27  0.000  0.000  0.061  0.061
   28  0.000  0.001  0.012  0.013
   29  0.000  0.000  0.018  0.018
   30  0.000  0.000  0.018  0.018
   31  0.000  0.000  0.018  0.018
   32  0.000  0.000  0.018  0.018
   33  0.000  0.000  0.018  0.018
   34  0.000  0.000  0.018  0.018
   35  0.004  0.000  0.008  0.012
   36  0.002  0.001  0.000  0.003
   37  0.000  0.001  0.000  0.001
   38  0.000  0.000  0.000  0.000
tot    0.048  0.008  0.790  0.846
 
band    21 # energy   -5.32073018 # occ.  2.00000000
 
ion      s      p      d    tot
    1  0.000  0.000  0.007  0.007
    2  0.000  0.000  0.008  0.009
    3  0.001  0.000  0.006  0.008
    4  0.000  0.000  0.009  0.009
    5  0.000  0.000  0.002  0.002
    6  0.001  0.000  0.004  0.006
    7  0.001  0.000  0.006  0.008
    8  0.001  0.000  0.004  0.006
    9  0.000  0.000  0.013  0.013
   10  0.003  0.000  0.046  0.049
   11  0.001  0.000  0.056  0.057
   12  0.001  0.000  0.015  0.016
   13  0.001  0.000  0.059  0.060
   14  0.003  0.000  0.015  0.018
   15  0.003  0.000  0.073  0.076
   16  0.001  0.000  0.017  0.018