 vasp.6.2.0 18Jan21 (build Jun 12 2021 23:27:24) complex                        
  
 executed on             LinuxIFC date 2022.05.26  20:04:45
 running on   28 total cores
 distrk:  each k-point on   28 cores,    1 groups
 distr:  one band on NCORE=   1 cores,   28 groups


--------------------------------------------------------------------------------------------------------


 INCAR:
   ISMEAR = -5
   SIGMA = 0.1
   ISPIN = 1
   EDIFF = 1.d-5
   EDIFFG = -0.01
   NSW = 0
   NELM = 150
   ENCUT = 500
   ISIF = 2
   IBRION = 2
   LREAL = Auto
   ALGO = Fast
   ICHARG = 11
   LORBIT = 10
   LCHARG = .F.
   LWAVE = .F.

 POTCAR:    PAW_PBE Cu 22Jun2005                  
 POTCAR:    PAW_PBE Rh 04Feb2005                  
 POTCAR:    PAW_PBE H 15Jun2001                   
 -----------------------------------------------------------------------------
|                                                                             |
|           W    W    AA    RRRRR   N    N  II  N    N   GGGG   !!!           |
|           W    W   A  A   R    R  NN   N  II  NN   N  G    G  !!!           |
|           W    W  A    A  R    R  N N  N  II  N N  N  G       !!!           |
|           W WW W  AAAAAA  RRRRR   N  N N  II  N  N N  G  GGG   !            |
|           WW  WW  A    A  R   R   N   NN  II  N   NN  G    G                |
|           W    W  A    A  R    R  N    N  II  N    N   GGGG   !!!           |
|                                                                             |
|     For optimal performance we recommend to set                             |
|       NCORE = 2 up to number-of-cores-per-socket                            |
|     NCORE specifies how many cores store one orbital (NPAR=cpu/NCORE).      |
|     This setting can greatly improve the performance of VASP for DFT.       |
|     The default, NCORE=1 might be grossly inefficient on modern             |
|     multi-core architectures or massively parallel machines. Do your        |
|     own testing! More info at https://www.vasp.at/wiki/index.php/NCORE      |
|     Unfortunately you need to use the default for GW and RPA                |
|     calculations (for HF NCORE is supported but not extensively tested      |
|     yet).                                                                   |
|                                                                             |
 -----------------------------------------------------------------------------

 POTCAR:    PAW_PBE Cu 22Jun2005                  
   VRHFIN =Cu: d10 p1                                                                               
   LEXCH  = PE                                                                                      
   EATOM  =  1390.9808 eV,  102.2342 Ry                                                             
                                                                                                    
   TITEL  = PAW_PBE Cu 22Jun2005                                                                    
   LULTRA =        F    use ultrasoft PP ?                                                          
   IUNSCR =        1    unscreen: 0-lin 1-nonlin 2-no                                               
   RPACOR =    2.000    partial core radius                                                         
   POMASS =   63.546; ZVAL   =   11.000    mass and valenz                                          
   RCORE  =    2.300    outmost cutoff radius                                                       
   RWIGS  =    2.200; RWIGS  =    1.164    wigner-seitz radius (au A)                               
   ENMAX  =  295.446; ENMIN  =  221.585 eV                                                          
   ICORE  =        3    local potential                                                             
   LCOR   =        T    correct aug charges                                                         
   LPAW   =        T    paw PP                                                                      
   EAUG   =  586.980                                                                                
   DEXC   =    0.000                                                                                
   RMAX   =    2.344    core radius for proj-oper                                                   
   RAUG   =    1.300    factor for augmentation sphere                                              
   RDEP   =    2.302    radius for radial grids                                                     
   RDEPT  =    1.771    core radius for aug-charge                                                  
                                                                                                    
   Atomic configuration                                                                             
    9 entries                                                                                       
     n  l   j            E        occ.                                                              
     1  0  0.50     -8850.2468   2.0000                                                             
     2  0  0.50     -1062.3498   2.0000                                                             
     2  1  1.50      -916.8226   6.0000                                                             
     3  0  0.50      -114.6929   2.0000                                                             
     3  1  1.50       -72.1325   6.0000                                                             
     3  2  2.50        -5.0394  10.0000                                                             
     4  0  0.50        -4.6097   1.0000                                                             
     4  1  0.50        -4.0817   0.0000                                                             
     4  3  2.50        -1.3606   0.0000                                                             
   Description                                                                                      
     l       E           TYP  RCUT    TYP  RCUT                                                     
     2     -5.0393973     23  2.200                                                                 
     2     10.8846608     23  2.200                                                                 
     0     -4.6097109     23  2.200                                                                 
     0      8.2520465     23  2.200                                                                 
     1     -2.7211652     23  2.200                                                                 
     1     21.7055443     23  2.200                                                                 
     3      2.7211652     23  2.300                                                                 
  local pseudopotential read in
  partial core-charges read in
  partial kinetic energy density read in
  atomic valenz-charges read in
  non local Contribution for L=           2  read in
    real space projection operators read in
  non local Contribution for L=           2  read in
    real space projection operators read in
  non local Contribution for L=           0  read in
    real space projection operators read in
  non local Contribution for L=           0  read in
    real space projection operators read in
  non local Contribution for L=           1  read in
    real space projection operators read in
  non local Contribution for L=           1  read in
    real space projection operators read in
    PAW grid and wavefunctions read in
 
   number of l-projection  operators is LMAX  =           6
   number of lm-projection operators is LMMAX =          18
 
 POTCAR:    PAW_PBE Rh 04Feb2005                  
   VRHFIN =Rh: s1 d8                                                                                
   LEXCH  = PE                                                                                      
   EATOM  =   616.4198 eV,   45.3056 Ry                                                             
                                                                                                    
   TITEL  = PAW_PBE Rh 04Feb2005                                                                    
   LULTRA =        F    use ultrasoft PP ?                                                          
   IUNSCR =        1    unscreen: 0-lin 1-nonlin 2-no                                               
   RPACOR =    2.170    partial core radius                                                         
   POMASS =  102.906; ZVAL   =    9.000    mass and valenz                                          
   RCORE  =    2.700    outmost cutoff radius                                                       
   RWIGS  =    2.650; RWIGS  =    1.402    wigner-seitz radius (au A)                               
   ENMAX  =  228.996; ENMIN  =  171.747 eV                                                          
   ICORE  =        3    local potential                                                             
   LCOR   =        T    correct aug charges                                                         
   LPAW   =        T    paw PP                                                                      
   EAUG   =  374.513                                                                                
   DEXC   =    0.000                                                                                
   RMAX   =    2.752    core radius for proj-oper                                                   
   RAUG   =    1.300    factor for augmentation sphere                                              
   RDEP   =    2.703    radius for radial grids                                                     
   RDEPT  =    2.174    core radius for aug-charge                                                  
                                                                                                    
   Atomic configuration                                                                             
   12 entries                                                                                       
     n  l   j            E        occ.                                                              
     1  0  0.50    -23034.1986   2.0000                                                             
     2  0  0.50     -3339.2387   2.0000                                                             
     2  1  1.50     -2992.3290   6.0000                                                             
     3  0  0.50      -596.7249   2.0000                                                             
     3  1  1.50      -482.7183   6.0000                                                             
     3  2  2.50      -300.5356  10.0000                                                             
     4  0  0.50       -82.4809   2.0000                                                             
     4  1  0.50       -50.4082   6.0000                                                             
     4  2  2.50        -5.9408   8.0000                                                             
     5  0  0.50        -4.2999   1.0000                                                             
     5  1  1.50        -1.3606   0.0000                                                             
     4  3  2.50        -1.3606   0.0000                                                             
   Description                                                                                      
     l       E           TYP  RCUT    TYP  RCUT                                                     
     2     -5.9407964     23  2.500                                                                 
     2     -7.3013790     23  2.500                                                                 
     0     -4.2998518     23  2.400                                                                 
     0      6.0533315     23  2.400                                                                 
     1     -4.0817478     23  2.700                                                                 
     1     27.2116520     23  2.700                                                                 
     3     -4.0817478     23  2.500                                                                 
  local pseudopotential read in
  partial core-charges read in
  partial kinetic energy density read in
  atomic valenz-charges read in
  non local Contribution for L=           2  read in
    real space projection operators read in
  non local Contribution for L=           2  read in
    real space projection operators read in
  non local Contribution for L=           0  read in
    real space projection operators read in
  non local Contribution for L=           0  read in
    real space projection operators read in
  non local Contribution for L=           1  read in
    real space projection operators read in
  non local Contribution for L=           1  read in
    real space projection operators read in
    PAW grid and wavefunctions read in
 
   number of l-projection  operators is LMAX  =           6
   number of lm-projection operators is LMMAX =          18
 
 POTCAR:    PAW_PBE H 15Jun2001                   
   VRHFIN =H: ultrasoft test                                                                        
   LEXCH  = PE                                                                                      
   EATOM  =    12.4884 eV,    0.9179 Ry                                                             
                                                                                                    
   TITEL  = PAW_PBE H 15Jun2001                                                                     
   LULTRA =        F    use ultrasoft PP ?                                                          
   IUNSCR =        0    unscreen: 0-lin 1-nonlin 2-no                                               
   RPACOR =    0.000    partial core radius                                                         
   POMASS =    1.000; ZVAL   =    1.000    mass and valenz                                          
   RCORE  =    1.100    outmost cutoff radius                                                       
   RWIGS  =    0.700; RWIGS  =    0.370    wigner-seitz radius (au A)                               
   ENMAX  =  250.000; ENMIN  =  200.000 eV                                                          
   RCLOC  =    0.701    cutoff for local pot                                                        
   LCOR   =        T    correct aug charges                                                         
   LPAW   =        T    paw PP                                                                      
   EAUG   =  400.000                                                                                
   RMAX   =    1.123    core radius for proj-oper                                                   
   RAUG   =    1.200    factor for augmentation sphere                                              
   RDEP   =    1.112    radius for radial grids                                                     
   RDEPT  =    0.926    core radius for aug-charge                                                  
                                                                                                    
   Atomic configuration                                                                             
    2 entries                                                                                       
     n  l   j            E        occ.                                                              
     1  0  0.50        -6.4927   1.0000                                                             
     2  1  0.50        -3.4015   0.0000                                                             
   Description                                                                                      
     l       E           TYP  RCUT    TYP  RCUT                                                     
     0     -6.4927494     23  1.100                                                                 
     0      6.8029130     23  1.100                                                                 
     1     -4.0817478     23  1.100                                                                 
  local pseudopotential read in
  atomic valenz-charges read in
  non local Contribution for L=           0  read in
    real space projection operators read in
  non local Contribution for L=           0  read in
    real space projection operators read in
  non local Contribution for L=           1  read in
    real space projection operators read in
    PAW grid and wavefunctions read in
 
   number of l-projection  operators is LMAX  =           3
   number of lm-projection operators is LMMAX =           5
 
 Optimization of the real space projectors (new method)

 maximal supplied QI-value         = 16.25
 optimisation between [QCUT,QGAM] = [ 11.38, 22.75] = [ 36.24,144.96] Ry 
 Optimized for a Real-space Cutoff    1.52 Angstroem

   l    n(q)    QCUT    max X(q) W(low)/X(q) W(high)/X(q)  e(spline) 
   2      9    11.376     4.610    0.21E-03    0.10E-03    0.26E-06
   2      9    11.376     8.522    0.33E-03    0.16E-03    0.37E-06
   0     10    11.376    51.609    0.62E-04    0.20E-04    0.13E-06
   0     10    11.376    27.747    0.54E-04    0.20E-04    0.13E-06
   1     10    11.376    20.408    0.13E-04    0.99E-04    0.19E-06
   1     10    11.376    13.425    0.12E-04    0.87E-04    0.17E-06
 Optimization of the real space projectors (new method)

 maximal supplied QI-value         = 13.98
 optimisation between [QCUT,QGAM] = [ 11.33, 22.79] = [ 35.93,145.49] Ry 
 Optimized for a Real-space Cutoff    1.47 Angstroem

   l    n(q)    QCUT    max X(q) W(low)/X(q) W(high)/X(q)  e(spline) 
   2      9    11.327    59.645    0.31E-03    0.12E-04    0.28E-06
   2      9    11.327    58.460    0.31E-03    0.12E-04    0.29E-06
   0     10    11.327    97.683    0.32E-04    0.83E-04    0.31E-06
   0     10    11.327    53.223    0.30E-04    0.78E-04    0.29E-06
   1     10    11.327    13.596    0.49E-03    0.95E-03    0.55E-06
   1     10    11.327     7.885    0.36E-03    0.71E-03    0.41E-06
 Optimization of the real space projectors (new method)

 maximal supplied QI-value         = 34.20
 optimisation between [QCUT,QGAM] = [ 11.29, 22.57] = [ 35.68,142.71] Ry 
 Optimized for a Real-space Cutoff    1.16 Angstroem

   l    n(q)    QCUT    max X(q) W(low)/X(q) W(high)/X(q)  e(spline) 
   0      8    11.287    19.460    0.40E-03    0.73E-03    0.16E-06
   0      8    11.287    12.209    0.38E-03    0.70E-03    0.15E-06
   1      7    11.287     4.655    0.22E-03    0.25E-04    0.22E-06
  PAW_PBE Cu 22Jun2005                  :
 energy of atom  1       EATOM=-1390.9808
 kinetic energy error for atom=    0.0043 (will be added to EATOM!!)
  PAW_PBE Rh 04Feb2005                  :
 energy of atom  2       EATOM= -616.4198
 kinetic energy error for atom=    0.0030 (will be added to EATOM!!)
  PAW_PBE H 15Jun2001                   :
 energy of atom  3       EATOM=  -12.4884
 kinetic energy error for atom=    0.0020 (will be added to EATOM!!)
 
 
 POSCAR: Cu-Rh-H
  positions in direct lattice
  velocities in cartesian coordinates
 exchange correlation table for  LEXCH =        8
   RHO(1)=    0.500       N(1)  =     2000
   RHO(2)=  100.500       N(2)  =     4000

 VTST: version 3.2, (02/03/18)

 CHAIN: initializing optimizer
 
 OPT: Using VASP Conjugate-Gradient optimizer
 CHAIN: Read ICHAIN            0
 
 POSCAR: Cu-Rh-H
  positions in direct lattice
  velocities in cartesian coordinates
 


--------------------------------------------------------------------------------------------------------


 ion  position               nearest neighbor table
   1  0.000  0.000  0.252-   7 2.57   3 2.57   4 2.57   2 2.57   6 2.57   8 2.57  12 2.57  10 2.57
                            16 2.57
   2  0.333  0.000  0.252-   8 2.57   9 2.57   5 2.57   1 2.57   3 2.57  11 2.57   4 2.57  10 2.57
                            17 2.57
   3  0.667  0.000  0.252-   1 2.57   7 2.57   6 2.57   9 2.57   2 2.57  12 2.57   5 2.57  18 2.57
                            11 2.57
   4  0.000  0.333  0.252-   5 2.57   6 2.57   1 2.57   7 2.57   2 2.57  13 2.57   9 2.57  10 2.57
                            15 2.57
   5  0.333  0.333  0.252-   4 2.57   2 2.57   7 2.57  13 2.57   8 2.57   6 2.57   3 2.57  11 2.57
                            14 2.57
   6  0.667  0.333  0.252-   4 2.57   9 2.57  15 2.57   3 2.57   1 2.57   8 2.57  14 2.57   5 2.57
                            12 2.57
   7  0.000  0.667  0.252-   1 2.57   3 2.57  16 2.57  18 2.57   4 2.57   5 2.57   8 2.57   9 2.57
                            13 2.57
   8  0.333  0.667  0.252-   9 2.57   2 2.57  17 2.57   6 2.57   1 2.57   7 2.57   5 2.57  14 2.57
                            16 2.57
   9  0.667  0.667  0.252-   8 2.57   6 2.57   2 2.57  17 2.57   3 2.57   7 2.57   4 2.57  15 2.57
                            18 2.57
  10  0.111  0.111  0.351-  20 2.55  26 2.56  19 2.56  11 2.57  12 2.57  13 2.57   1 2.57   2 2.57
                             4 2.57  15 2.57  16 2.57  17 2.57
  11  0.444  0.111  0.351-  20 2.55  21 2.55  27 2.56  10 2.57  13 2.57   2 2.57  17 2.57  14 2.57
                            12 2.57   5 2.57   3 2.57  18 2.57
  12  0.778  0.111  0.351-  21 2.55  19 2.56  25 2.56  15 2.57  10 2.57  14 2.57  18 2.57   3 2.57
                             1 2.57  16 2.57  11 2.57   6 2.57
  13  0.111  0.444  0.351-  23 2.55  20 2.55  22 2.56  16 2.57  18 2.57  10 2.57  11 2.57  14 2.57
                             5 2.57   4 2.57   7 2.57  15 2.57
  14  0.444  0.444  0.351-  21 2.55  23 2.55  24 2.56  15 2.57  17 2.57  12 2.57  16 2.57  13 2.57
                            11 2.57   6 2.57   8 2.57   5 2.57
  15  0.778  0.444  0.351-  19 2.56  24 2.56  22 2.56  14 2.57  17 2.57  12 2.57   6 2.57  18 2.57
                            10 2.57   9 2.57  13 2.57   4 2.57
  16  0.111  0.778  0.351-  23 2.55  25 2.56  26 2.56  18 2.57  13 2.57   7 2.57  14 2.57  17 2.57
                            12 2.57  10 2.57   8 2.57   1 2.57
  17  0.444  0.778  0.351-  26 2.56  27 2.56  24 2.56  14 2.57  15 2.57   8 2.57   9 2.57  11 2.57
                            16 2.57  18 2.57  10 2.57   2 2.57
  18  0.778  0.778  0.351-  25 2.56  22 2.56  27 2.56  16 2.57  13 2.57   7 2.57  15 2.57  12 2.57
                            17 2.57   9 2.57   3 2.57  11 2.57
  19  0.889  0.223  0.449-  28 2.55  32 2.55  31 2.55  15 2.56  12 2.56  10 2.56  21 2.56  20 2.56
                            22 2.56  24 2.56  25 2.57  26 2.57
  20  0.222  0.222  0.448-  10 2.55  11 2.55  13 2.55  26 2.56  19 2.56  27 2.57  22 2.57  36 2.57
                            29 2.58  31 2.58  23 2.58  21 2.58
  21  0.557  0.222  0.448-  12 2.55  14 2.55  11 2.55  19 2.56  25 2.56  24 2.57  27 2.57  36 2.57
                            32 2.58  30 2.58  20 2.58  23 2.58
  22  0.889  0.556  0.449-  35 2.54  31 2.56  33 2.56  18 2.56  15 2.56  19 2.56  25 2.56  13 2.56
                            24 2.56  27 2.56  23 2.57  20 2.57
  23  0.222  0.557  0.448-  16 2.55  13 2.55  14 2.55  25 2.56  26 2.56  22 2.57  24 2.57  36 2.57
                            33 2.58  34 2.58  20 2.58  21 2.58
  24  0.556  0.556  0.449-  35 2.54  32 2.56  34 2.56  15 2.56  17 2.56  19 2.56  26 2.56  14 2.56
                            22 2.56  27 2.56  21 2.57  23 2.57
  25  0.889  0.889  0.449-  28 2.55  33 2.55  30 2.55  18 2.56  16 2.56  12 2.56  21 2.56  23 2.56
                            22 2.56  27 2.56  19 2.57  26 2.57
  26  0.223  0.889  0.449-  28 2.55  29 2.55  34 2.55  17 2.56  10 2.56  16 2.56  20 2.56  23 2.56
                            27 2.56  24 2.56  25 2.57  19 2.57
  27  0.556  0.889  0.449-  35 2.54  29 2.56  30 2.56  17 2.56  18 2.56  26 2.56  25 2.56  11 2.56
                            24 2.56  22 2.56  20 2.57  21 2.57
  28  0.000  0.000  0.546-  25 2.55  19 2.55  26 2.55  33 2.56  30 2.56  31 2.56  29 2.56  32 2.56
                            34 2.56
  29  0.333  0.998  0.547-  34 2.54  26 2.55  28 2.56  27 2.56  35 2.56  31 2.58  20 2.58  36 2.58
                            30 2.59
  30  0.669  0.998  0.547-  33 2.54  25 2.55  28 2.56  27 2.56  35 2.56  32 2.58  21 2.58  36 2.58
                            29 2.59
  31  0.998  0.333  0.547-  32 2.54  19 2.55  28 2.56  22 2.56  35 2.56  29 2.58  20 2.58  36 2.58
                            33 2.59
  32  0.669  0.333  0.547-  31 2.54  19 2.55  28 2.56  24 2.56  35 2.56  30 2.58  21 2.58  36 2.58
                            34 2.59
  33  0.998  0.669  0.547-  30 2.54  25 2.55  28 2.56  22 2.56  35 2.56  34 2.58  23 2.58  36 2.58
                            31 2.59
  34  0.333  0.669  0.547-  29 2.54  26 2.55  28 2.56  24 2.56  35 2.56  33 2.58  23 2.58  36 2.58
                            32 2.59
  35  0.667  0.667  0.546-  24 2.54  27 2.54  22 2.54  34 2.56  32 2.56  29 2.56  30 2.56  33 2.56
                            31 2.56
  36  0.333  0.333  0.547-  37 1.59  23 2.57  20 2.57  21 2.57  31 2.58  29 2.58  33 2.58  34 2.58
                            32 2.58  30 2.58
  37  0.333  0.333  0.621-  36 1.59
 
  LATTYP: Found a hexagonal cell.
 ALAT       =     7.6967864036
 C/A-ratio  =     2.7653617908
  
  Lattice vectors:
  
 A1 = (  -3.8483927580,  -6.6656128093,   0.0000000000)
 A2 = (   7.6967864037,   0.0000000000,   0.0000000000)
 A3 = (   0.0000000000,   0.0000000000,  21.2843990326)


Analysis of symmetry for initial positions (statically):
=====================================================================
 Subroutine PRICEL returns:
 Original cell was already a primitive cell.
 

 Routine SETGRP: Setting up the symmetry group for a 
 hexagonal supercell.


 Subroutine GETGRP returns: Found  6 space group operations
 (whereof  6 operations were pure point group operations)
 out of a pool of 24 trial point group operations.


The static configuration has the point symmetry C_3v.


Analysis of symmetry for dynamics (positions and initial velocities):
=====================================================================
 Subroutine PRICEL returns:
 Original cell was already a primitive cell.
 

 Routine SETGRP: Setting up the symmetry group for a 
 hexagonal supercell.


 Subroutine GETGRP returns: Found  6 space group operations
 (whereof  6 operations were pure point group operations)
 out of a pool of 24 trial point group operations.


The dynamic configuration has the point symmetry C_3v.


Analysis of constrained symmetry for selective dynamics:
=====================================================================
 Subroutine PRICEL returns:
 Original cell was already a primitive cell.
 

 Routine SETGRP: Setting up the symmetry group for a 
 hexagonal supercell.


 Subroutine GETGRP returns: Found  6 space group operations
 (whereof  6 operations were pure point group operations)
 out of a pool of 24 trial point group operations.


The constrained configuration has the point symmetry C_3v.


 Subroutine INISYM returns: Found  6 space group operations
 (whereof  6 operations are pure point group operations),
 and found     1 'primitive' translations


----------------------------------------------------------------------------------------

                                     Primitive cell                                     

  volume of cell :    1091.9705

  direct lattice vectors                    reciprocal lattice vectors
     7.696786404  0.000000000  0.000000000     0.129924354 -0.075011849  0.000000000
     3.848392758  6.665612809  0.000000000     0.000000000  0.150023716  0.000000000
     0.000000000  0.000000000 21.284399033     0.000000000  0.000000000  0.046982769

  length of vectors
     7.696786404  7.696786404 21.284399033     0.150023716  0.150023716  0.046982769

  position of ions in fractional coordinates (direct lattice)
     0.000000000  0.000000000  0.252370745
     0.333333343  0.000000000  0.252370745
     0.666666687  0.000000000  0.252370745
     1.000000000  0.333333343  0.252370745
     0.333333313  0.333333343  0.252370745
     0.666666687  0.333333343  0.252370745
     1.000000000  0.666666687  0.252370745
     0.333333373  0.666666687  0.252370745
     0.666666627  0.666666687  0.252370745
     0.111111119  0.111111112  0.350790262
     0.444444418  0.111111112  0.350790262
     0.777777791  0.111111112  0.350790262
     0.111111119  0.444444448  0.350790262
     0.444444478  0.444444448  0.350790262
     0.777777731  0.444444448  0.350790262
     0.111111112  0.777777731  0.350790262
     0.444444478  0.777777731  0.350790262
     0.777777851  0.777777731  0.350790262
     0.888628564  0.222742887  0.448748291
     0.221729390  0.221729375  0.448280860
     0.556541280  0.221729375  0.448280860
     0.888703709  0.555648115  0.449042026
     0.221729360  0.556541220  0.448280860
     0.555648175  0.555648115  0.449042026
     0.888628564  0.888628564  0.448748291
     0.222742902  0.888628564  0.448748291
     0.555648115  0.888703709  0.449042026
     0.000000000  0.000000000  0.545915422
     0.332883843  0.998276116  0.547005797
     0.668840071  0.998276116  0.547005797
     0.998276116  0.332883843  0.547005797
     0.668840071  0.332883843  0.547005797
     0.998276116  0.668840071  0.547005797
     0.332883873  0.668840071  0.547005797
     0.666666627  0.666666687  0.546097926
     0.333333313  0.333333343  0.546628567
     0.333333313  0.333333343  0.621115946

  ion indices of the primitive-cell ions
   primitive index   ion index
                 1           1
                 2           2
                 3           3
                 4           4
                 5           5
                 6           6
                 7           7
                 8           8
                 9           9
                10          10
                11          11
                12          12
                13          13
                14          14
                15          15
                16          16
                17          17
                18          18
                19          19
                20          20
                21          21
                22          22
                23          23
                24          24
                25          25
                26          26
                27          27
                28          28
                29          29
                30          30
                31          31
                32          32
                33          33
                34          34
                35          35
                36          36
                37          37

----------------------------------------------------------------------------------------

 
 
 KPOINTS: Automatic mesh                          

Automatic generation of k-mesh.
 Grid dimensions read from file:
 generate k-points for:    8    8    1

 Generating k-lattice:

  Cartesian coordinates                     Fractional coordinates (reciprocal lattice)
     0.016240544 -0.009376481  0.000000000     0.125000000 -0.000000000  0.000000000
     0.000000000  0.018752964  0.000000000     0.000000000  0.125000000  0.000000000
     0.000000000  0.000000000  0.046982769     0.000000000  0.000000000  1.000000000

  Length of vectors
     0.018752964  0.018752964  0.046982769

  Shift w.r.t. Gamma in fractional coordinates (k-lattice)
     0.000000000  0.000000000  0.000000000

 TETIRR: Found     36 inequivalent tetrahedra from      384
 
 Subroutine IBZKPT returns following result:
 ===========================================
 
 Found     10 irreducible k-points:
 
 Following reciprocal coordinates:
            Coordinates               Weight
  0.000000  0.000000  0.000000      1.000000
  0.125000 -0.000000  0.000000      6.000000
  0.250000 -0.000000  0.000000      6.000000
  0.375000 -0.000000  0.000000      6.000000
  0.500000 -0.000000  0.000000      3.000000
  0.250000  0.125000  0.000000      6.000000
  0.375000  0.125000  0.000000     12.000000
  0.500000  0.125000  0.000000     12.000000
  0.500000  0.250000  0.000000      6.000000
 -0.375000  0.250000  0.000000      6.000000
 
 Following cartesian coordinates:
            Coordinates               Weight
  0.000000  0.000000  0.000000      1.000000
  0.016241 -0.009376  0.000000      6.000000
  0.032481 -0.018753  0.000000      6.000000
  0.048722 -0.028129  0.000000      6.000000
  0.064962 -0.037506  0.000000      3.000000
  0.032481  0.000000  0.000000      6.000000
  0.048722 -0.009376  0.000000     12.000000
  0.064962 -0.018753  0.000000     12.000000
  0.064962  0.000000  0.000000      6.000000
 -0.048722  0.065635  0.000000      6.000000
 


--------------------------------------------------------------------------------------------------------




 Dimension of arrays:
   k-points           NKPTS =     10   k-points in BZ     NKDIM =     10   number of bands    NBANDS=    252
   number of dos      NEDOS =    301   number of ions     NIONS =     37
   non local maximal  LDIM  =      6   non local SUM 2l+1 LMDIM =     18
   total plane-waves  NPLWV = 211680
   max r-space proj   IRMAX =   2893   max aug-charges    IRDMAX=  11216
   dimension x,y,z NGX =    42 NGY =   42 NGZ =  120
   dimension x,y,z NGXF=    84 NGYF=   84 NGZF=  240
   support grid    NGXF=    84 NGYF=   84 NGZF=  240
   ions per type =              35   1   1
   NGX,Y,Z   is equivalent  to a cutoff of   9.07,  9.07,  9.37 a.u.
   NGXF,Y,Z  is equivalent  to a cutoff of  18.14, 18.14, 18.75 a.u.

 SYSTEM =  unknown system                          
 POSCAR =  Cu-Rh-H                                 

 Startparameter for this run:
   NWRITE =      2    write-flag & timer
   PREC   = normal    normal or accurate (medium, high low for compatibility)
   ISTART =      0    job   : 0-new  1-cont  2-samecut
   ICHARG =     11    charge: 1-file 2-atom 10-const
   ISPIN  =      1    spin polarized calculation?
   LNONCOLLINEAR =      F non collinear calculations
   LSORBIT =      F    spin-orbit coupling
   INIWAV =      1    electr: 0-lowe 1-rand  2-diag
   LASPH  =      F    aspherical Exc in radial PAW
   METAGGA=      F    non-selfconsistent MetaGGA calc.

 Electronic Relaxation 1
   ENCUT  =  500.0 eV  36.75 Ry    6.06 a.u.  14.03 14.03 38.81*2*pi/ulx,y,z
   ENINI  =  500.0     initial cutoff
   ENAUG  =  587.0 eV  augmentation charge cutoff
   NELM   =    150;   NELMIN=  2; NELMDL= -5     # of ELM steps 
   EDIFF  = 0.1E-04   stopping-criterion for ELM
   LREAL  =      T    real-space projection
   NLSPLINE    = F    spline interpolate recip. space projectors
   LCOMPAT=      F    compatible to vasp.4.4
   GGA_COMPAT  = T    GGA compatible to vasp.4.4-vasp.4.6
   LMAXPAW     = -100 max onsite density
   LMAXMIX     =    2 max onsite mixed and CHGCAR
   VOSKOWN=      0    Vosko Wilk Nusair interpolation
   ROPT   =   -0.00050  -0.00050  -0.00050
 Ionic relaxation
   EDIFFG = -.1E-01   stopping-criterion for IOM
   NSW    =      0    number of steps for IOM
   NBLOCK =      1;   KBLOCK =      1    inner block; outer block 
   IBRION =     -1    ionic relax: 0-MD 1-quasi-New 2-CG
   NFREE  =      1    steps in history (QN), initial steepest desc. (CG)
   ISIF   =      2    stress and relaxation
   IWAVPR =     10    prediction:  0-non 1-charg 2-wave 3-comb
   ISYM   =      2    0-nonsym 1-usesym 2-fastsym
   LCORR  =      T    Harris-Foulkes like correction to forces

   POTIM  = 0.5000    time-step for ionic-motion
   TEIN   =    0.0    initial temperature
   TEBEG  =    0.0;   TEEND  =   0.0 temperature during run
   SMASS  =  -3.00    Nose mass-parameter (am)
   estimated Nose-frequenzy (Omega)   =  0.10E-29 period in steps = 0.13E+47 mass=  -0.135E-26a.u.
   SCALEE = 1.0000    scale energy and forces
   NPACO  =    256;   APACO  = 16.0  distance and # of slots for P.C.
   PSTRESS=    0.0 pullay stress

  Mass of Ions in am
   POMASS =  63.55102.91  1.00
  Ionic Valenz
   ZVAL   =  11.00  9.00  1.00
  Atomic Wigner-Seitz radii
   RWIGS  =  -1.00 -1.00 -1.00
  virtual crystal weights 
   VCA    =   1.00  1.00  1.00
   NELECT =     395.0000    total number of electrons
   NUPDOWN=      -1.0000    fix difference up-down

 DOS related values:
   EMIN   =  10.00;   EMAX   =-10.00  energy-range for DOS
   EFERMI =   0.00
   ISMEAR =    -5;   SIGMA  =   0.10  broadening in eV -4-tet -1-fermi 0-gaus

 Electronic relaxation 2 (details)
   IALGO  =     68    algorithm
   LDIAG  =      T    sub-space diagonalisation (order eigenvalues)
   LSUBROT=      F    optimize rotation matrix (better conditioning)
   TURBO    =      0    0=normal 1=particle mesh
   IRESTART =      0    0=no restart 2=restart with 2 vectors
   NREBOOT  =      0    no. of reboots
   NMIN     =      0    reboot dimension
   EREF     =   0.00    reference energy to select bands
   IMIX   =      4    mixing-type and parameters
     AMIX     =   0.40;   BMIX     =  1.00
     AMIX_MAG =   1.60;   BMIX_MAG =  1.00
     AMIN     =   0.10
     WC   =   100.;   INIMIX=   1;  MIXPRE=   1;  MAXMIX= -45

 Intra band minimization:
   WEIMIN = 0.0000     energy-eigenvalue tresh-hold
   EBREAK =  0.99E-08  absolut break condition
   DEPER  =   0.30     relativ break condition  

   TIME   =   0.40     timestep for ELM

  volume/ion in A,a.u.               =      29.51       199.16
  Fermi-wavevector in a.u.,A,eV,Ry     =   1.166461  2.204292 18.512513  1.360631
  Thomas-Fermi vector in A             =   2.302974
 
 Write flags
   LWAVE        =      F    write WAVECAR
   LDOWNSAMPLE  =      F    k-point downsampling of WAVECAR
   LCHARG       =      F    write CHGCAR
   LVTOT        =      F    write LOCPOT, total local potential
   LVHAR        =      F    write LOCPOT, Hartree potential only
   LELF         =      F    write electronic localiz. function (ELF)
   LORBIT       =     10    0 simple, 1 ext, 2 COOP (PROOUT), +10 PAW based schemes


 Dipole corrections
   LMONO  =      F    monopole corrections only (constant potential shift)
   LDIPOL =      F    correct potential (dipole corrections)
   IDIPOL =      0    1-x, 2-y, 3-z, 4-all directions 
   EPSILON=  1.0000000 bulk dielectric constant

 Exchange correlation treatment:
   GGA     =    --    GGA type
   LEXCH   =     8    internal setting for exchange type
   VOSKOWN=      0    Vosko Wilk Nusair interpolation
   LHFCALC =     F    Hartree Fock is set to
   LHFONE  =     F    Hartree Fock one center treatment
   AEXX    =    0.0000 exact exchange contribution

 Linear response parameters
   LEPSILON=     F    determine dielectric tensor
   LRPA    =     F    only Hartree local field effects (RPA)
   LNABLA  =     F    use nabla operator in PAW spheres
   LVEL    =     F    velocity operator in full k-point grid
   LINTERFAST=   F  fast interpolation
   KINTER  =     0    interpolate to denser k-point grid
   CSHIFT  =0.1000    complex shift for real part using Kramers Kronig
   OMEGAMAX=  -1.0    maximum frequency
   DEG_THRESHOLD= 0.2000000E-02 threshold for treating states as degnerate
   RTIME   =   -0.100 relaxation time in fs
  (WPLASMAI=    0.000 imaginary part of plasma frequency in eV, 0.658/RTIME)
   DFIELD  = 0.0000000 0.0000000 0.0000000 field for delta impulse in time
 
 Orbital magnetization related:
   ORBITALMAG=     F  switch on orbital magnetization
   LCHIMAG   =     F  perturbation theory with respect to B field
   DQ        =  0.001000  dq finite difference perturbation B field
   LLRAUG    =     F  two centre corrections for induced B field



--------------------------------------------------------------------------------------------------------


 Static calculation
 charge density and potential remain constant during run
 non-spin polarized calculation
 RMM-DIIS sequential band-by-band and
  variant of blocked Davidson during initial phase
 perform sub-space diagonalisation
    before iterative eigenvector-optimisation
 no mixing
 using additional bands           54
 real space projection scheme for non local part
 use partial core corrections
 calculate Harris-corrections to forces 
   (improved forces if not selfconsistent)
 use gradient corrections 
 WARNING: stress and forces are not correct
  (second derivative of E(xc) not defined)
 use of overlap-Matrix (Vanderbilt PP)
 Fermi weights with tetrahedron method with Bloechl corrections


--------------------------------------------------------------------------------------------------------


  energy-cutoff  :      500.00
  volume of cell :     1091.97
      direct lattice vectors                 reciprocal lattice vectors
     7.696786404  0.000000000  0.000000000     0.129924354 -0.075011849  0.000000000
     3.848392758  6.665612809  0.000000000     0.000000000  0.150023716  0.000000000
     0.000000000  0.000000000 21.284399033     0.000000000  0.000000000  0.046982769

  length of vectors
     7.696786404  7.696786404 21.284399033     0.150023716  0.150023716  0.046982769


 
 k-points in units of 2pi/SCALE and weight: Automatic mesh                          
   0.00000000  0.00000000  0.00000000       0.016
   0.01624054 -0.00937648  0.00000000       0.094
   0.03248109 -0.01875296  0.00000000       0.094
   0.04872163 -0.02812944  0.00000000       0.094
   0.06496218 -0.03750592  0.00000000       0.047
   0.03248109  0.00000000  0.00000000       0.094
   0.04872163 -0.00937648  0.00000000       0.188
   0.06496218 -0.01875296  0.00000000       0.188
   0.06496218  0.00000000  0.00000000       0.094
  -0.04872163  0.06563537  0.00000000       0.094
 
 k-points in reciprocal lattice and weights: Automatic mesh                          
   0.00000000  0.00000000  0.00000000       0.016
   0.12500000 -0.00000000  0.00000000       0.094
   0.25000000 -0.00000000  0.00000000       0.094
   0.37500000 -0.00000000  0.00000000       0.094
   0.50000000 -0.00000000  0.00000000       0.047
   0.25000000  0.12500000  0.00000000       0.094
   0.37500000  0.12500000  0.00000000       0.188
   0.50000000  0.12500000  0.00000000       0.188
   0.50000000  0.25000000  0.00000000       0.094
  -0.37500000  0.25000000  0.00000000       0.094
 
 position of ions in fractional coordinates (direct lattice) 
   0.00000000  0.00000000  0.25237075
   0.33333334  0.00000000  0.25237075
   0.66666669  0.00000000  0.25237075
   0.00000000  0.33333334  0.25237075
   0.33333331  0.33333334  0.25237075
   0.66666669  0.33333334  0.25237075
   0.00000000  0.66666669  0.25237075
   0.33333337  0.66666669  0.25237075
   0.66666663  0.66666669  0.25237075
   0.11111112  0.11111111  0.35079026
   0.44444442  0.11111111  0.35079026
   0.77777779  0.11111111  0.35079026
   0.11111112  0.44444445  0.35079026
   0.44444448  0.44444445  0.35079026
   0.77777773  0.44444445  0.35079026
   0.11111111  0.77777773  0.35079026
   0.44444448  0.77777773  0.35079026
   0.77777785  0.77777773  0.35079026
   0.88862856  0.22274289  0.44874829
   0.22172939  0.22172937  0.44828086
   0.55654128  0.22172937  0.44828086
   0.88870371  0.55564812  0.44904203
   0.22172936  0.55654122  0.44828086
   0.55564818  0.55564812  0.44904203
   0.88862856  0.88862856  0.44874829
   0.22274290  0.88862856  0.44874829
   0.55564812  0.88870371  0.44904203
   0.00000000  0.00000000  0.54591542
   0.33288384  0.99827612  0.54700580
   0.66884007  0.99827612  0.54700580
   0.99827612  0.33288384  0.54700580
   0.66884007  0.33288384  0.54700580
   0.99827612  0.66884007  0.54700580
   0.33288387  0.66884007  0.54700580
   0.66666663  0.66666669  0.54609793
   0.33333331  0.33333334  0.54662857
   0.33333331  0.33333334  0.62111595
 
 position of ions in cartesian coordinates  (Angst):
   0.00000000  0.00000000  5.37155964
   2.56559554  0.00000000  5.37155964
   5.13119109  0.00000000  5.37155964
   1.28279762  2.22187100  5.37155964
   3.84839293  2.22187100  5.37155964
   6.41398872  2.22187100  5.37155964
   2.56559525  4.44374201  5.37155964
   5.13119102  4.44374201  5.37155964
   7.69678588  4.44374201  5.37155964
   1.28279775  0.74062365  7.46635991
   3.84839295  0.74062365  7.46635991
   6.41398873  0.74062365  7.46635991
   2.56559535  2.96249461  7.46635991
   5.13119101  2.96249461  7.46635991
   7.69678586  2.96249461  7.46635991
   3.84839268  5.18436521  7.46635991
   6.41398840  5.18436521  7.46635991
   8.97958418  5.18436521  7.46635991
   7.69678637  1.48471784  9.55133768
   2.55990547  1.47796216  9.54138870
   5.13688108  1.47796216  9.54138870
   8.97851481  3.70373519  9.55758966
   3.84839272  3.70968829  9.54138870
   6.41505750  3.70373519  9.55758966
  10.25937598  5.92325394  9.55133768
   5.13419627  5.92325394  9.55133768
   7.69678578  5.92375483  9.55758966
   0.00000000  0.00000000 11.61948167
   6.40389441  6.65412207 11.64268966
   8.98967774  6.65412207 11.64268966
   8.96458581  2.21887481 11.64268966
   6.42898694  2.21887481 11.64268966
  10.25747732  4.45822895 11.64268966
   5.13609535  4.45822895 11.64268966
   7.69678588  4.44374201 11.62336616
   3.84839293  2.22187100 11.63466055
   3.84839293  2.22187100 13.22007964
 


--------------------------------------------------------------------------------------------------------


 k-point   1 :   0.0000 0.0000 0.0000  plane waves:   27671
 k-point   2 :   0.1250-0.0000 0.0000  plane waves:   27649
 k-point   3 :   0.2500-0.0000 0.0000  plane waves:   27714
 k-point   4 :   0.3750-0.0000 0.0000  plane waves:   27740
 k-point   5 :   0.5000-0.0000 0.0000  plane waves:   27782
 k-point   6 :   0.2500 0.1250 0.0000  plane waves:   27698
 k-point   7 :   0.3750 0.1250 0.0000  plane waves:   27702
 k-point   8 :   0.5000 0.1250 0.0000  plane waves:   27747
 k-point   9 :   0.5000 0.2500 0.0000  plane waves:   27734
 k-point  10 :  -0.3750 0.2500 0.0000  plane waves:   27782

 maximum and minimum number of plane-waves per node :     27782    27649

 maximum number of plane-waves:     27782
 maximum index in each direction: 
   IXMAX=   14   IYMAX=   14   IZMAX=   38
   IXMIN=  -14   IYMIN=  -14   IZMIN=  -38


 serial   3D FFT for wavefunctions
 parallel 3D FFT for charge:
    minimum data exchange during FFTs selected (reduces bandwidth)


 total amount of memory used by VASP MPI-rank0   104483. kBytes
=======================================================================

   base      :      30000. kBytes
   nonlr-proj:      17597. kBytes
   fftplans  :       2916. kBytes
   grid      :      12390. kBytes
   one-center:        575. kBytes
   wavefun   :      41005. kBytes
 
     INWAV:  cpu time    0.0000: real time    0.0000
 initial charge density was supplied:
 number of electron     394.9999919 magnetization 
 keeping initial charge density in first step


--------------------------------------------------------------------------------------------------------


 Maximum index for non-local projection operator         2777
 Maximum index for augmentation-charges          537 (set IRDMAX)


--------------------------------------------------------------------------------------------------------


 First call to EWALD:  gamma=   0.172
 Maximum number of real-space cells 4x 4x 2
 Maximum number of reciprocal cells 2x 2x 5

    FEWALD:  cpu time    0.0013: real time    0.0014


--------------------------------------- Iteration      1(   1)  ---------------------------------------


    POTLOK:  cpu time    0.0272: real time    0.0294
    SETDIJ:  cpu time    0.0042: real time    0.0042
     EDDAV:  cpu time    5.7114: real time    5.7132
 BZINTS: Fermi energy:   13.767182;  395.000000 electrons
         Band energy: 0.259683E+04;  BLOECHL correction:   -0.031037
       DOS:  cpu time    0.0100: real time    0.0101
    --------------------------------------------
      LOOP:  cpu time    5.7527: real time    5.7570

 eigenvalue-minimisations  :  5040
 total energy-change (2. order) : 0.3538687E+04  (-0.1693215E+05)
 number of electron     394.9999919 magnetization 
 augmentation part      394.9999919 magnetization 

 Free energy of the ion-electron system (eV)
  ---------------------------------------------------
  alpha Z        PSCENC =       864.90518042
  Ewald energy   TEWEN  =    147791.56917490
  -Hartree energ DENC   =   -194842.56497278
  -exchange      EXHF   =         0.00000000
  -V(xc)+E(xc)   XCENC  =      1543.66043193
  PAW double counting   =     46433.21437603   -50162.00958265
  entropy T*S    EENTRO =         0.00000000
  eigenvalues    EBANDS =      2596.82966807
  atomic energy  EATOM  =     49313.08234435
  Solvation  Ediel_sol  =         0.00000000
  ---------------------------------------------------
  free energy    TOTEN  =      3538.68662026 eV

  energy without entropy =     3538.68662026  energy(sigma->0) =     3538.68662026


--------------------------------------------------------------------------------------------------------




--------------------------------------- Iteration      1(   2)  ---------------------------------------


     EDDAV:  cpu time    5.6800: real time    5.6836
 BZINTS: Fermi energy:    3.076537;  395.000000 electrons
         Band energy:-0.601635E+03;  BLOECHL correction:   -0.017370
       DOS:  cpu time    0.0104: real time    0.0104
    --------------------------------------------
      LOOP:  cpu time    5.6904: real time    5.6939

 eigenvalue-minimisations  :  5040
 total energy-change (2. order) :-0.3198464E+04  (-0.3060004E+04)
 number of electron     394.9999919 magnetization 
 augmentation part      394.9999919 magnetization 

 Free energy of the ion-electron system (eV)
  ---------------------------------------------------
  alpha Z        PSCENC =       864.90518042
  Ewald energy   TEWEN  =    147791.56917490
  -Hartree energ DENC   =   -194842.56497278
  -exchange      EXHF   =         0.00000000
  -V(xc)+E(xc)   XCENC  =      1543.66043193
  PAW double counting   =     46433.21437603   -50162.00958265
  entropy T*S    EENTRO =         0.00000000
  eigenvalues    EBANDS =      -601.63480242
  atomic energy  EATOM  =     49313.08234435
  Solvation  Ediel_sol  =         0.00000000
  ---------------------------------------------------
  free energy    TOTEN  =       340.22214977 eV

  energy without entropy =      340.22214977  energy(sigma->0) =      340.22214977


--------------------------------------------------------------------------------------------------------




--------------------------------------- Iteration      1(   3)  ---------------------------------------


     EDDAV:  cpu time    5.9590: real time    5.9597
 BZINTS: Fermi energy:    0.152251;  395.000000 electrons
         Band energy:-0.105198E+04;  BLOECHL correction:   -0.060039
       DOS:  cpu time    0.0102: real time    0.0102
    --------------------------------------------
      LOOP:  cpu time    5.9692: real time    5.9699

 eigenvalue-minimisations  :  5348
 total energy-change (2. order) :-0.4503494E+03  (-0.4183996E+03)
 number of electron     394.9999919 magnetization 
 augmentation part      394.9999919 magnetization 

 Free energy of the ion-electron system (eV)
  ---------------------------------------------------
  alpha Z        PSCENC =       864.90518042
  Ewald energy   TEWEN  =    147791.56917490
  -Hartree energ DENC   =   -194842.56497278
  -exchange      EXHF   =         0.00000000
  -V(xc)+E(xc)   XCENC  =      1543.66043193
  PAW double counting   =     46433.21437603   -50162.00958265
  entropy T*S    EENTRO =         0.00000000
  eigenvalues    EBANDS =     -1051.98420834
  atomic energy  EATOM  =     49313.08234435
  Solvation  Ediel_sol  =         0.00000000
  ---------------------------------------------------
  free energy    TOTEN  =      -110.12725615 eV

  energy without entropy =     -110.12725615  energy(sigma->0) =     -110.12725615


--------------------------------------------------------------------------------------------------------




--------------------------------------- Iteration      1(   4)  ---------------------------------------


     EDDAV:  cpu time    6.3175: real time    6.3181
 BZINTS: Fermi energy:    0.047158;  395.000000 electrons
         Band energy:-0.107421E+04;  BLOECHL correction:   -0.061416
       DOS:  cpu time    0.0101: real time    0.0101
    --------------------------------------------
      LOOP:  cpu time    6.3276: real time    6.3283

 eigenvalue-minimisations  :  5740
 total energy-change (2. order) :-0.2223009E+02  (-0.2202461E+02)
 number of electron     394.9999919 magnetization 
 augmentation part      394.9999919 magnetization 

 Free energy of the ion-electron system (eV)
  ---------------------------------------------------
  alpha Z        PSCENC =       864.90518042
  Ewald energy   TEWEN  =    147791.56917490
  -Hartree energ DENC   =   -194842.56497278
  -exchange      EXHF   =         0.00000000
  -V(xc)+E(xc)   XCENC  =      1543.66043193
  PAW double counting   =     46433.21437603   -50162.00958265
  entropy T*S    EENTRO =         0.00000000
  eigenvalues    EBANDS =     -1074.21430215
  atomic energy  EATOM  =     49313.08234435
  Solvation  Ediel_sol  =         0.00000000
  ---------------------------------------------------
  free energy    TOTEN  =      -132.35734995 eV

  energy without entropy =     -132.35734995  energy(sigma->0) =     -132.35734995


--------------------------------------------------------------------------------------------------------




--------------------------------------- Iteration      1(   5)  ---------------------------------------


     EDDAV:  cpu time    6.2934: real time    6.2939
 BZINTS: Fermi energy:    0.045146;  395.000000 electrons
         Band energy:-0.107467E+04;  BLOECHL correction:   -0.061173
       DOS:  cpu time    0.0101: real time    0.0101
    --------------------------------------------
      LOOP:  cpu time    6.3035: real time    6.3040

 eigenvalue-minimisations  :  5712
 total energy-change (2. order) :-0.4507716E+00  (-0.4508347E+00)
 number of electron     394.9999919 magnetization 
 augmentation part      394.9999919 magnetization 

 Free energy of the ion-electron system (eV)
  ---------------------------------------------------
  alpha Z        PSCENC =       864.90518042
  Ewald energy   TEWEN  =    147791.56917490
  -Hartree energ DENC   =   -194842.56497278
  -exchange      EXHF   =         0.00000000
  -V(xc)+E(xc)   XCENC  =      1543.66043193
  PAW double counting   =     46433.21437603   -50162.00958265
  entropy T*S    EENTRO =         0.00000000
  eigenvalues    EBANDS =     -1074.66507371
  atomic energy  EATOM  =     49313.08234435
  Solvation  Ediel_sol  =         0.00000000
  ---------------------------------------------------
  free energy    TOTEN  =      -132.80812152 eV

  energy without entropy =     -132.80812152  energy(sigma->0) =     -132.80812152


--------------------------------------------------------------------------------------------------------




--------------------------------------- Iteration      1(   6)  ---------------------------------------


    EDDIAG:  cpu time    1.0489: real time    1.0492
  RMM-DIIS:  cpu time    3.0785: real time    3.0787
    ORTHCH:  cpu time    0.2080: real time    0.2081
 BZINTS: Fermi energy:    0.045079;  395.000000 electrons
         Band energy:-0.107468E+04;  BLOECHL correction:   -0.061160
       DOS:  cpu time    0.0101: real time    0.0101
    --------------------------------------------
      LOOP:  cpu time    4.3456: real time    4.3461

 eigenvalue-minimisations  :  5384
 total energy-change (2. order) :-0.1436936E-01  (-0.1437780E-01)
 number of electron     394.9999919 magnetization 
 augmentation part      394.9999919 magnetization 

 Free energy of the ion-electron system (eV)
  ---------------------------------------------------
  alpha Z        PSCENC =       864.90518042
  Ewald energy   TEWEN  =    147791.56917490
  -Hartree energ DENC   =   -194842.56497278
  -exchange      EXHF   =         0.00000000
  -V(xc)+E(xc)   XCENC  =      1543.66043193
  PAW double counting   =     46433.21437603   -50162.00958265
  entropy T*S    EENTRO =         0.00000000
  eigenvalues    EBANDS =     -1074.67944307
  atomic energy  EATOM  =     49313.08234435
  Solvation  Ediel_sol  =         0.00000000
  ---------------------------------------------------
  free energy    TOTEN  =      -132.82249087 eV

  energy without entropy =     -132.82249087  energy(sigma->0) =     -132.82249087


--------------------------------------------------------------------------------------------------------




--------------------------------------- Iteration      1(   7)  ---------------------------------------


    EDDIAG:  cpu time    1.0496: real time    1.0499
  RMM-DIIS:  cpu time    4.4944: real time    4.4947
    ORTHCH:  cpu time    0.2077: real time    0.2077
 BZINTS: Fermi energy:    0.045051;  395.000000 electrons
         Band energy:-0.107469E+04;  BLOECHL correction:   -0.061156
       DOS:  cpu time    0.0102: real time    0.0102
    --------------------------------------------
      LOOP:  cpu time    5.7619: real time    5.7625

 eigenvalue-minimisations  :  7871
 total energy-change (2. order) :-0.7038056E-02  (-0.7013840E-02)
 number of electron     394.9999919 magnetization 
 augmentation part      394.9999919 magnetization 

 Free energy of the ion-electron system (eV)
  ---------------------------------------------------
  alpha Z        PSCENC =       864.90518042
  Ewald energy   TEWEN  =    147791.56917490
  -Hartree energ DENC   =   -194842.56497278
  -exchange      EXHF   =         0.00000000
  -V(xc)+E(xc)   XCENC  =      1543.66043193
  PAW double counting   =     46433.21437603   -50162.00958265
  entropy T*S    EENTRO =         0.00000000
  eigenvalues    EBANDS =     -1074.68648112
  atomic energy  EATOM  =     49313.08234435
  Solvation  Ediel_sol  =         0.00000000
  ---------------------------------------------------
  free energy    TOTEN  =      -132.82952893 eV

  energy without entropy =     -132.82952893  energy(sigma->0) =     -132.82952893


--------------------------------------------------------------------------------------------------------




--------------------------------------- Iteration      1(   8)  ---------------------------------------


    EDDIAG:  cpu time    1.0499: real time    1.0502
  RMM-DIIS:  cpu time    4.1261: real time    4.1264
    ORTHCH:  cpu time    0.2084: real time    0.2084
 BZINTS: Fermi energy:    0.045050;  395.000000 electrons
         Band energy:-0.107469E+04;  BLOECHL correction:   -0.061156
       DOS:  cpu time    0.0104: real time    0.0104
    --------------------------------------------
      LOOP:  cpu time    5.3948: real time    5.3954

 eigenvalue-minimisations  :  7303
 total energy-change (2. order) :-0.6683608E-03  (-0.6722101E-03)
 number of electron     394.9999919 magnetization 
 augmentation part      394.9999919 magnetization 

 Free energy of the ion-electron system (eV)
  ---------------------------------------------------
  alpha Z        PSCENC =       864.90518042
  Ewald energy   TEWEN  =    147791.56917490
  -Hartree energ DENC   =   -194842.56497278
  -exchange      EXHF   =         0.00000000
  -V(xc)+E(xc)   XCENC  =      1543.66043193
  PAW double counting   =     46433.21437603   -50162.00958265
  entropy T*S    EENTRO =         0.00000000
  eigenvalues    EBANDS =     -1074.68714948
  atomic energy  EATOM  =     49313.08234435
  Solvation  Ediel_sol  =         0.00000000
  ---------------------------------------------------
  free energy    TOTEN  =      -132.83019729 eV

  energy without entropy =     -132.83019729  energy(sigma->0) =     -132.83019729


--------------------------------------------------------------------------------------------------------




--------------------------------------- Iteration      1(   9)  ---------------------------------------


    EDDIAG:  cpu time    1.0506: real time    1.0507
  RMM-DIIS:  cpu time    4.4940: real time    4.4944
    ORTHCH:  cpu time    0.2083: real time    0.2083
 BZINTS: Fermi energy:    0.045049;  395.000000 electrons
         Band energy:-0.107469E+04;  BLOECHL correction:   -0.061156
       DOS:  cpu time    0.0099: real time    0.0099
    --------------------------------------------
      LOOP:  cpu time    5.7628: real time    5.7633

 eigenvalue-minimisations  :  7881
 total energy-change (2. order) :-0.1536497E-03  (-0.1531479E-03)
 number of electron     394.9999919 magnetization 
 augmentation part      394.9999919 magnetization 

 Free energy of the ion-electron system (eV)
  ---------------------------------------------------
  alpha Z        PSCENC =       864.90518042
  Ewald energy   TEWEN  =    147791.56917490
  -Hartree energ DENC   =   -194842.56497278
  -exchange      EXHF   =         0.00000000
  -V(xc)+E(xc)   XCENC  =      1543.66043193
  PAW double counting   =     46433.21437603   -50162.00958265
  entropy T*S    EENTRO =         0.00000000
  eigenvalues    EBANDS =     -1074.68730313
  atomic energy  EATOM  =     49313.08234435
  Solvation  Ediel_sol  =         0.00000000
  ---------------------------------------------------
  free energy    TOTEN  =      -132.83035094 eV

  energy without entropy =     -132.83035094  energy(sigma->0) =     -132.83035094


--------------------------------------------------------------------------------------------------------




--------------------------------------- Iteration      1(  10)  ---------------------------------------


    EDDIAG:  cpu time    1.0496: real time    1.0498
  RMM-DIIS:  cpu time    4.0698: real time    4.0701
    ORTHCH:  cpu time    0.2083: real time    0.2083
 BZINTS: Fermi energy:    0.045049;  395.000000 electrons
         Band energy:-0.107469E+04;  BLOECHL correction:   -0.061156
       DOS:  cpu time    0.0086: real time    0.0086
    --------------------------------------------
      LOOP:  cpu time    5.3363: real time    5.3368

 eigenvalue-minimisations  :  6995
 total energy-change (2. order) :-0.3186119E-04  (-0.3187712E-04)
 number of electron     394.9999919 magnetization 
 augmentation part      394.9999919 magnetization 

 Free energy of the ion-electron system (eV)
  ---------------------------------------------------
  alpha Z        PSCENC =       864.90518042
  Ewald energy   TEWEN  =    147791.56917490
  -Hartree energ DENC   =   -194842.56497278
  -exchange      EXHF   =         0.00000000
  -V(xc)+E(xc)   XCENC  =      1543.66043193
  PAW double counting   =     46433.21437603   -50162.00958265
  entropy T*S    EENTRO =         0.00000000
  eigenvalues    EBANDS =     -1074.68733499
  atomic energy  EATOM  =     49313.08234435
  Solvation  Ediel_sol  =         0.00000000
  ---------------------------------------------------
  free energy    TOTEN  =      -132.83038280 eV

  energy without entropy =     -132.83038280  energy(sigma->0) =     -132.83038280


--------------------------------------------------------------------------------------------------------




--------------------------------------- Iteration      1(  11)  ---------------------------------------


    EDDIAG:  cpu time    1.0500: real time    1.0502
  RMM-DIIS:  cpu time    2.9081: real time    2.9083
    ORTHCH:  cpu time    0.2080: real time    0.2080
 BZINTS: Fermi energy:    0.045049;  395.000000 electrons
         Band energy:-0.107469E+04;  BLOECHL correction:   -0.061156
       DOS:  cpu time    0.0101: real time    0.0101
    --------------------------------------------
      LOOP:  cpu time    4.1762: real time    4.1766

 eigenvalue-minimisations  :  4498
 total energy-change (2. order) :-0.6058632E-05  (-0.6051805E-05)
 number of electron     394.9999919 magnetization 
 augmentation part      394.9999919 magnetization 

 Free energy of the ion-electron system (eV)
  ---------------------------------------------------
  alpha Z        PSCENC =       864.90518042
  Ewald energy   TEWEN  =    147791.56917490
  -Hartree energ DENC   =   -194842.56497278
  -exchange      EXHF   =         0.00000000
  -V(xc)+E(xc)   XCENC  =      1543.66043193
  PAW double counting   =     46433.21437603   -50162.00958265
  entropy T*S    EENTRO =         0.00000000
  eigenvalues    EBANDS =     -1074.68734105
  atomic energy  EATOM  =     49313.08234435
  Solvation  Ediel_sol  =         0.00000000
  ---------------------------------------------------
  free energy    TOTEN  =      -132.83038886 eV

  energy without entropy =     -132.83038886  energy(sigma->0) =     -132.83038886


--------------------------------------------------------------------------------------------------------




 average (electrostatic) potential at core
  the test charge radii are     0.9430  1.1806  0.5201
  (the norm of the test charge is              1.0000)
       1 -70.9151       2 -70.9055       3 -70.9054       4 -70.9055       5 -70.9178
       6 -70.9051       7 -70.9054       8 -70.9051       9 -70.9139      10 -71.1850
      11 -71.1471      12 -71.1846      13 -71.1471      14 -71.1466      15 -71.1725
      16 -71.1846      17 -71.1725      18 -71.1725      19 -71.1645      20 -71.1446
      21 -71.1440      22 -71.1548      23 -71.1440      24 -71.1544      25 -71.1643
      26 -71.1645      27 -71.1548      28 -70.8746      29 -70.8460      30 -70.8458
      31 -70.8460      32 -70.8456      33 -70.8458      34 -70.8456      35 -70.8817
      36 -72.6080      37 -35.9111
 
 
 
 E-fermi :   0.0450     XC(G=0):  -5.8884     alpha+bet : -5.3414

 Fermi energy:         0.0450491187

 k-point     1 :       0.0000    0.0000    0.0000
  band No.  band energies     occupation 
      1      -8.7237      2.00000
      2      -7.4106      2.00000
      3      -5.8023      2.00000
      4      -5.7492      2.00000
      5      -5.7490      2.00000
      6      -5.7329      2.00000
      7      -5.7275      2.00000
      8      -5.7272      2.00000
      9      -5.6751      2.00000
     10      -4.9990      2.00000
     11      -4.9926      2.00000
     12      -4.9926      2.00000
     13      -4.9674      2.00000
     14      -4.9457      2.00000
     15      -4.9457      2.00000
     16      -4.8827      2.00000
     17      -4.3247      2.00000
     18      -4.3246      2.00000
     19      -4.3017      2.00000
     20      -4.2511      2.00000
     21      -4.2509      2.00000
     22      -4.2455      2.00000
     23      -4.0915      2.00000
     24      -3.9733      2.00000
     25      -3.9733      2.00000
     26      -3.9602      2.00000
     27      -3.9576      2.00000
     28      -3.9576      2.00000
     29      -3.8361      2.00000
     30      -3.8212      2.00000
     31      -3.8212      2.00000
     32      -3.7956      2.00000
     33      -3.7956      2.00000
     34      -3.7868      2.00000
     35      -3.7704      2.00000
     36      -3.7699      2.00000
     37      -3.7699      2.00000
     38      -3.7381      2.00000
     39      -3.7381      2.00000
     40      -3.7307      2.00000
     41      -3.6906      2.00000
     42      -3.6703      2.00000
     43      -3.6703      2.00000
     44      -3.6573      2.00000
     45      -3.6573      2.00000
     46      -3.5308      2.00000
     47      -3.5032      2.00000
     48      -3.4808      2.00000
     49      -3.4808      2.00000
     50      -3.4599      2.00000
     51      -3.4598      2.00000
     52      -3.4428      2.00000
     53      -3.4301      2.00000
     54      -3.3989      2.00000
     55      -3.2502      2.00000
     56      -3.1216      2.00000
     57      -3.1215      2.00000
     58      -3.1068      2.00000
     59      -3.1067      2.00000
     60      -3.0921      2.00000
     61      -3.0583      2.00000
     62      -3.0044      2.00000
     63      -3.0044      2.00000
     64      -2.9850      2.00000
     65      -2.9850      2.00000
     66      -2.9638      2.00000
     67      -2.9638      2.00000
     68      -2.9583      2.00000
     69      -2.9515      2.00000
     70      -2.9515      2.00000
     71      -2.9491      2.00000
     72      -2.9160      2.00000
     73      -2.8593      2.00000
     74      -2.8593      2.00000
     75      -2.8421      2.00000
     76      -2.8086      2.00000
     77      -2.8086      2.00000
     78      -2.7529      2.00000
     79      -2.7529      2.00000
     80      -2.7480      2.00000
     81      -2.7476      2.00000
     82      -2.7476      2.00000
     83      -2.7081      2.00000
     84      -2.6724      2.00000
     85      -2.6723      2.00000
     86      -2.6678      2.00000
     87      -2.6627      2.00000
     88      -2.6626      2.00000
     89      -2.6537      2.00000
     90      -2.6330      2.00000
     91      -2.6330      2.00000
     92      -2.5976      2.00000
     93      -2.5976      2.00000
     94      -2.5738      2.00000
     95      -2.5738      2.00000
     96      -2.5683      2.00000
     97      -2.5683      2.00000
     98      -2.5449      2.00000
     99      -2.5292      2.00000
    100      -2.5291      2.00000
    101      -2.4995      2.00000
    102      -2.4995      2.00000
    103      -2.4969      2.00000
    104      -2.4839      2.00000
    105      -2.4839      2.00000
    106      -2.4793      2.00000
    107      -2.4792      2.00000
    108      -2.2651      2.00000
    109      -2.2525      2.00000
    110      -2.2525      2.00000
    111      -2.2505      2.00000
    112      -2.2446      2.00000
    113      -2.2431      2.00000
    114      -2.2431      2.00000
    115      -2.2361      2.00000
    116      -2.2314      2.00000
    117      -2.2314      2.00000
    118      -2.2235      2.00000
    119      -2.2181      2.00000
    120      -2.2180      2.00000
    121      -2.2033      2.00000
    122      -2.1870      2.00000
    123      -2.0566      2.00000
    124      -2.0566      2.00000
    125      -2.0376      2.00000
    126      -2.0375      2.00000
    127      -2.0291      2.00000
    128      -2.0291      2.00000
    129      -2.0086      2.00000
    130      -1.9802      2.00000
    131      -1.9802      2.00000
    132      -1.9645      2.00000
    133      -1.9644      2.00000
    134      -1.9410      2.00000
    135      -1.9369      2.00000
    136      -1.9369      2.00000
    137      -1.9344      2.00000
    138      -1.9220      2.00000
    139      -1.9220      2.00000
    140      -1.9130      2.00000
    141      -1.8790      2.00000
    142      -1.8790      2.00000
    143      -1.7909      2.00000
    144      -1.7908      2.00000
    145      -1.7907      2.00000
    146      -1.7884      2.00000
    147      -1.7884      2.00000
    148      -1.7864      2.00000
    149      -1.7822      2.00000
    150      -1.7789      2.00000
    151      -1.7789      2.00000
    152      -1.7721      2.00000
    153      -1.7719      2.00000
    154      -1.7317      2.00000
    155      -1.6608      2.00000
    156      -1.6608      2.00000
    157      -1.6576      2.00000
    158      -1.6562      2.00000
    159      -1.6543      2.00000
    160      -1.6524      2.00000
    161      -1.6427      2.00000
    162      -1.6426      2.00000
    163      -1.6240      2.00000
    164      -1.6240      2.00000
    165      -1.6067      2.00000
    166      -1.6067      2.00000
    167      -1.6002      2.00000
    168      -1.6001      2.00000
    169      -1.5908      2.00000
    170      -1.5876      2.00000
    171      -1.5867      2.00000
    172      -1.5867      2.00000
    173      -1.5859      2.00000
    174      -1.5817      2.00000
    175      -1.5816      2.00000
    176      -1.5694      2.00000
    177      -1.5694      2.00000
    178      -1.5581      2.00000
    179      -1.5445      2.00000
    180      -1.5395      2.00000
    181      -1.5395      2.00000
    182      -1.5327      2.00000
    183      -1.5258      2.00000
    184      -1.5257      2.00000
    185      -1.5249      2.00000
    186      -1.4677      2.00000
    187      -1.4677      2.00000
    188      -1.4434      2.00000
    189      -1.4433      2.00000
    190      -1.4415      2.00000
    191      -1.4330      2.00000
    192      -1.0849      2.00000
    193      -0.8317      2.00000
    194      -0.8317      2.00000
    195      -0.6878      2.00000
    196      -0.6878      2.00000
    197      -0.5462      2.00000
    198      -0.2520      2.00000
    199      -0.2192      2.00000
    200      -0.2192      2.00000
    201      -0.1504      2.25736
    202      -0.1504      2.02815
    203      -0.0328      0.48661
    204       1.4784      0.00000
    205       2.0779      0.00000
    206       2.0958      0.00000
    207       2.0958      0.00000
    208       2.3046      0.00000
    209       2.3046      0.00000
    210       3.4666      0.00000
    211       3.5627      0.00000
    212       3.7406      0.00000
    213       3.7406      0.00000
    214       3.8643      0.00000
    215       3.8643      0.00000
    216       3.9708      0.00000
    217       4.4464      0.00000
    218       4.5594      0.00000
    219       4.5594      0.00000
    220       4.5923      0.00000
    221       4.5923      0.00000
    222       4.6034      0.00000
    223       4.6379      0.00000
    224       4.7500      0.00000
    225       4.7500      0.00000
    226       4.9727      0.00000
    227       4.9727      0.00000
    228       5.2434      0.00000
    229       5.4634      0.00000
    230       5.9352      0.00000
    231       6.2241      0.00000
    232       6.3830      0.00000
    233       6.3830      0.00000
    234       6.4163      0.00000
    235       6.6388      0.00000
    236       6.6388      0.00000
    237       6.9213      0.00000
    238       6.9214      0.00000
    239       6.9468      0.00000
    240       7.0008      0.00000
    241       7.0008      0.00000
    242       7.2745      0.00000
    243       7.5360      0.00000
    244       7.5474      0.00000
    245       7.5612      0.00000
    246       7.5620      0.00000
    247       7.6114      0.00000
    248       7.6143      0.00000
    249       7.6168      0.00000
    250       8.0182      0.00000
    251       8.0614      0.00000
    252       8.0732      0.00000

 k-point     2 :       0.1250   -0.0000    0.0000
  band No.  band energies     occupation 
      1      -8.6685      2.00000
      2      -7.3575      2.00000
      3      -6.2969      2.00000
      4      -5.9809      2.00000
      5      -5.9709      2.00000
      6      -5.7268      2.00000
      7      -5.4499      2.00000
      8      -5.4344      2.00000
      9      -5.3031      2.00000
     10      -5.2483      2.00000
     11      -5.0948      2.00000
     12      -5.0779      2.00000
     13      -4.9326      2.00000
     14      -4.8188      2.00000
     15      -4.7978      2.00000
     16      -4.7371      2.00000
     17      -4.3425      2.00000
     18      -4.3070      2.00000
     19      -4.2956      2.00000
     20      -4.2647      2.00000
     21      -4.2373      2.00000
     22      -4.2366      2.00000
     23      -4.0970      2.00000
     24      -4.0136      2.00000
     25      -3.9831      2.00000
     26      -3.9587      2.00000
     27      -3.9238      2.00000
     28      -3.9232      2.00000
     29      -3.9149      2.00000
     30      -3.9104      2.00000
     31      -3.8875      2.00000
     32      -3.8733      2.00000
     33      -3.8443      2.00000
     34      -3.8043      2.00000
     35      -3.7957      2.00000
     36      -3.7627      2.00000
     37      -3.7624      2.00000
     38      -3.7448      2.00000
     39      -3.6946      2.00000
     40      -3.6781      2.00000
     41      -3.6645      2.00000
     42      -3.6643      2.00000
     43      -3.6382      2.00000
     44      -3.5944      2.00000
     45      -3.5919      2.00000
     46      -3.5489      2.00000
     47      -3.5437      2.00000
     48      -3.5092      2.00000
     49      -3.5077      2.00000
     50      -3.4706      2.00000
     51      -3.4210      2.00000
     52      -3.3973      2.00000
     53      -3.3760      2.00000
     54      -3.3654      2.00000
     55      -3.2652      2.00000
     56      -3.1893      2.00000
     57      -3.1759      2.00000
     58      -3.1335      2.00000
     59      -3.1139      2.00000
     60      -3.0937      2.00000
     61      -3.0790      2.00000
     62      -3.0291      2.00000
     63      -3.0256      2.00000
     64      -2.9962      2.00000
     65      -2.9909      2.00000
     66      -2.9883      2.00000
     67      -2.9763      2.00000
     68      -2.9629      2.00000
     69      -2.9557      2.00000
     70      -2.9266      2.00000
     71      -2.9260      2.00000
     72      -2.8906      2.00000
     73      -2.8749      2.00000
     74      -2.8584      2.00000
     75      -2.8402      2.00000
     76      -2.7938      2.00000
     77      -2.7787      2.00000
     78      -2.7777      2.00000
     79      -2.7754      2.00000
     80      -2.7508      2.00000
     81      -2.7280      2.00000
     82      -2.7278      2.00000
     83      -2.7101      2.00000
     84      -2.7030      2.00000
     85      -2.6884      2.00000
     86      -2.6851      2.00000
     87      -2.6684      2.00000
     88      -2.6682      2.00000
     89      -2.6453      2.00000
     90      -2.6440      2.00000
     91      -2.6262      2.00000
     92      -2.5875      2.00000
     93      -2.5813      2.00000
     94      -2.5769      2.00000
     95      -2.5679      2.00000
     96      -2.5569      2.00000
     97      -2.5554      2.00000
     98      -2.5519      2.00000
     99      -2.5398      2.00000
    100      -2.5249      2.00000
    101      -2.5097      2.00000
    102      -2.4992      2.00000
    103      -2.4909      2.00000
    104      -2.4794      2.00000
    105      -2.4619      2.00000
    106      -2.4543      2.00000
    107      -2.4458      2.00000
    108      -2.4254      2.00000
    109      -2.3971      2.00000
    110      -2.3927      2.00000
[...]
  0.000   0.000   0.000   0.000   0.000   0.000   0.000   0.000   0.000   0.000   0.000   0.000   0.000   0.000   0.000   0.000
  0.000   0.000   0.000   0.000   0.000   0.000   0.000   0.000   0.000   0.000   0.000   0.000   0.000   0.000   0.000   0.000
  0.000   0.000   0.000   0.000   0.000   0.000   0.000   0.000   0.000   0.000   0.000   0.000   0.000   0.000   0.000   0.000
  0.000   0.000   0.000   0.000   0.000   0.000   0.000   0.000   0.000   0.000   0.000   0.000   0.000   0.000   0.000   0.000
  0.000   0.000   0.000   0.000   0.000   0.000   0.000   0.000   0.000   0.000   0.000   0.000   0.000   0.000   0.000   0.000
  0.000   0.000   0.000   0.000   0.000   0.000   0.000   0.000   0.000   0.000   1.000   0.000   0.000   0.000   0.000   0.000
  0.000   0.000   0.000   0.000   0.000   0.000   0.000   0.000   0.000   0.000   0.000   0.000   0.000   0.000   0.000   0.000
  0.000   0.000   0.000   0.000   0.000   0.000   0.000   0.000   0.000   0.000   0.000   0.000   0.000   0.000   0.000   0.000
  0.000   0.000   0.000   0.000   0.000   0.000   0.000   0.000   0.000   0.000   0.000   0.000   0.000   0.000   0.000   0.000
  0.000   0.000   0.000   0.000   0.000   0.000   0.000   0.000   0.000   0.000   0.000   0.000   0.000   0.000   0.000   0.000
  0.000   0.000   0.000   0.000   0.000   0.000   0.000   0.000   0.000   0.000   0.000   0.000   0.000   0.000   0.000   0.000
  0.000   0.000   0.000   0.000   0.000   0.000   0.000   0.000   0.000   0.000   0.000   0.000   0.000   0.000   0.000   0.000
  0.000   0.000   0.000   0.000   0.000   0.000   0.000   0.000   0.000   0.000   0.000   0.000   0.000   0.000   0.000   0.000


------------------------ aborting loop because EDIFF is reached ----------------------------------------





 total charge

# of ion       s       p       d       tot
------------------------------------------
    1        0.449   0.283   9.189   9.921
    2        0.449   0.285   9.186   9.920
    3        0.449   0.285   9.186   9.920
    4        0.449   0.285   9.186   9.920
    5        0.449   0.287   9.178   9.914
    6        0.449   0.285   9.186   9.920
    7        0.449   0.285   9.186   9.920
    8        0.449   0.285   9.186   9.920
    9        0.448   0.282   9.192   9.922
   10        0.441   0.373   9.174   9.988
   11        0.444   0.365   9.185   9.994
   12        0.441   0.373   9.174   9.988
   13        0.444   0.365   9.185   9.994
   14        0.444   0.365   9.185   9.994
   15        0.438   0.371   9.177   9.986
   16        0.441   0.373   9.174   9.988
   17        0.438   0.371   9.177   9.986
   18        0.438   0.371   9.177   9.986
   19        0.442   0.373   9.181   9.996
   20        0.454   0.377   9.177  10.008
   21        0.454   0.377   9.177  10.008
   22        0.434   0.374   9.181   9.989
   23        0.454   0.377   9.177  10.008
   24        0.434   0.374   9.181   9.989
   25        0.442   0.373   9.181   9.996
   26        0.442   0.373   9.181   9.996
   27        0.434   0.374   9.181   9.989
   28        0.451   0.289   9.195   9.935
   29        0.451   0.296   9.183   9.930
   30        0.451   0.296   9.183   9.930
   31        0.451   0.296   9.183   9.930
   32        0.451   0.296   9.183   9.930
   33        0.451   0.296   9.183   9.930
   34        0.451   0.296   9.183   9.930
   35        0.445   0.292   9.194   9.931
   36        0.515   0.493   7.535   8.543
   37        0.502   0.019   0.000   0.521
--------------------------------------------------
tot         16.612  12.135 328.926 357.673
 
    CHARGE:  cpu time    0.2082: real time    0.2084
    FORLOC:  cpu time    0.0074: real time    0.0074
    FORNL :  cpu time    1.1889: real time    1.1889
    STRESS:  cpu time    3.5298: real time    3.5303
    FORCOR:  cpu time    0.0265: real time    0.0265
    FORHAR:  cpu time    0.0114: real time    0.0115
    OFIELD:  cpu time    0.0001: real time    0.0001

  FORCE on cell =-STRESS in cart. coord.  units (eV):
  Direction    XX          YY          ZZ          XY          YZ          ZX
  --------------------------------------------------------------------------------------
  Alpha Z   864.90518   864.90518   864.90518
  Ewald  173794.51388173794.51347************     0.00037     0.00011     0.00016
  Hartree186735.52870186735.52868************     0.00003     0.00005     0.00007
  E(xc)   -2292.79032 -2292.78984 -2297.45012    -0.00042    -0.00003    -0.00006
  Local  ************************373955.07256     0.01852    -0.00054    -0.00090
  n-local  -764.80092  -748.02034  -766.56229     9.23641    -0.12206     0.36195
  augment  3366.21123  3366.23148  3383.81069    -0.01754     0.00022     0.00042
  Kinetic  3247.72871  3254.26491  3273.69397     4.66318     1.60669    -1.25664
  Fock        0.00000     0.00000     0.00000     0.00000     0.00000     0.00000
  -------------------------------------------------------------------------------------
  Total      -5.83200    -5.83200     1.79020     0.00000     0.00000     0.00000
  in kB      -8.55692    -8.55692     2.62665     0.00000     0.00000     0.00000
  external pressure =       -4.83 kB  Pullay stress =        0.00 kB


 VOLUME and BASIS-vectors are now :
 -----------------------------------------------------------------------------
  energy-cutoff  :      500.00
  volume of cell :     1091.97
      direct lattice vectors                 reciprocal lattice vectors
     7.696786404  0.000000000  0.000000000     0.129924354 -0.075011849  0.000000000
     3.848392758  6.665612809  0.000000000     0.000000000  0.150023716  0.000000000
     0.000000000  0.000000000 21.284399033     0.000000000  0.000000000  0.046982769

  length of vectors
     7.696786404  7.696786404 21.284399033     0.150023716  0.150023716  0.046982769


 FORCES acting on ions
    electron-ion (+dipol)            ewald-force                    non-local-force                 convergence-correction
 -----------------------------------------------------------------------------------------------
   -.415E-04 0.208E-06 0.348E+04   0.580E-04 -.436E-05 -.347E+04   0.202E-17 0.208E-17 -.279E+01   -.410E-03 -.204E-03 -.324E+00
   -.363E+00 -.165E+00 0.348E+04   0.264E+00 0.154E+00 -.347E+04   0.812E-01 0.747E-01 -.189E+01   0.306E-01 -.390E-01 -.325E+00
   0.363E+00 -.165E+00 0.348E+04   -.264E+00 0.154E+00 -.347E+04   -.812E-01 0.747E-01 -.189E+01   -.297E-01 -.364E-01 -.324E+00
   -.325E+00 -.232E+00 0.348E+04   0.266E+00 0.152E+00 -.347E+04   0.105E+00 0.330E-01 -.189E+01   -.184E-01 0.460E-01 -.325E+00
   -.613E-04 -.322E-05 0.347E+04   0.116E-03 -.101E-04 -.347E+04   -.168E-17 0.124E-18 -.145E+01   0.123E-01 0.751E-02 -.186E+00
   0.325E+00 -.232E+00 0.348E+04   -.266E+00 0.152E+00 -.347E+04   -.105E+00 0.330E-01 -.189E+01   0.166E-01 0.471E-01 -.323E+00
   0.384E-01 0.397E+00 0.348E+04   0.135E-02 -.306E+00 -.347E+04   0.241E-01 -.108E+00 -.189E+01   -.463E-01 -.760E-02 -.324E+00
   -.383E-01 0.397E+00 0.348E+04   -.162E-02 -.306E+00 -.347E+04   -.241E-01 -.108E+00 -.189E+01   0.498E-01 -.917E-02 -.323E+00
   -.144E-03 -.330E-04 0.348E+04   0.263E-03 0.205E-04 -.347E+04   0.868E-18 -.103E-17 -.244E+01   -.132E-01 -.684E-02 -.345E+00
   -.542E+00 -.313E+00 0.116E+04   0.867E+00 0.501E+00 -.116E+04   -.361E+00 -.208E+00 -.108E+01   0.277E-01 0.160E-01 -.334E+00
   -.912E-04 -.213E+01 0.115E+04   0.190E-03 0.172E+01 -.115E+04   -.186E-07 0.280E+00 -.422E+00   0.123E-01 0.106E+00 -.247E+00
   0.543E+00 -.313E+00 0.116E+04   -.867E+00 0.501E+00 -.116E+04   0.361E+00 -.208E+00 -.108E+01   -.301E-01 0.181E-01 -.332E+00
   -.184E+01 0.106E+01 0.115E+04   0.149E+01 -.858E+00 -.115E+04   0.242E+00 -.140E+00 -.422E+00   0.983E-01 -.415E-01 -.247E+00
   0.184E+01 0.106E+01 0.115E+04   -.149E+01 -.858E+00 -.115E+04   -.242E+00 -.140E+00 -.422E+00   -.736E-01 -.429E-01 -.247E+00
   -.142E-03 -.123E+01 0.116E+04   0.298E-03 0.942E+00 -.116E+04   -.108E-07 0.162E+00 -.101E+01   -.434E-02 0.116E+00 -.323E+00
   -.920E-04 0.626E+00 0.116E+04   0.186E-03 -.100E+01 -.116E+04   -.277E-07 0.417E+00 -.108E+01   -.287E-03 -.364E-01 -.332E+00
   -.107E+01 0.617E+00 0.116E+04   0.816E+00 -.471E+00 -.116E+04   0.141E+00 -.812E-01 -.101E+01   0.989E-01 -.617E-01 -.324E+00
   0.107E+01 0.617E+00 0.116E+04   -.816E+00 -.471E+00 -.116E+04   -.141E+00 -.812E-01 -.101E+01   -.978E-01 -.581E-01 -.322E+00
   -.601E-04 -.153E+01 -.117E+04   0.692E-04 0.154E+01 0.117E+04   0.214E-08 -.321E-01 0.825E+00   -.146E-01 0.258E-01 -.211E+00
   -.255E+02 -.147E+02 -.120E+04   0.265E+02 0.153E+02 0.120E+04   -.109E+01 -.628E+00 -.609E+00   0.844E-01 0.486E-01 -.136E+00
   0.255E+02 -.147E+02 -.120E+04   -.265E+02 0.153E+02 0.120E+04   0.109E+01 -.628E+00 -.609E+00   -.584E-01 0.491E-01 -.136E+00
   -.153E+02 0.883E+01 -.118E+04   0.148E+02 -.856E+01 0.118E+04   0.405E+00 -.234E+00 0.709E+00   0.908E-01 -.514E-01 -.326E+00
   -.808E-04 0.295E+02 -.120E+04   0.147E-03 -.306E+02 0.120E+04   -.836E-07 0.126E+01 -.609E+00   0.121E-01 -.763E-01 -.136E+00
   0.153E+02 0.883E+01 -.118E+04   -.148E+02 -.856E+01 0.118E+04   -.405E+00 -.234E+00 0.709E+00   -.932E-01 -.547E-01 -.326E+00
   0.133E+01 0.767E+00 -.117E+04   -.133E+01 -.770E+00 0.117E+04   0.278E-01 0.161E-01 0.825E+00   -.372E-01 -.214E-01 -.211E+00
   -.133E+01 0.767E+00 -.117E+04   0.133E+01 -.770E+00 0.117E+04   -.278E-01 0.161E-01 0.825E+00   0.154E-01 -.253E-01 -.211E+00
   -.127E-03 -.177E+02 -.118E+04   0.244E-03 0.171E+02 0.118E+04   -.311E-07 0.467E+00 0.709E+00   0.855E-03 0.104E+00 -.326E+00
   -.353E-04 0.174E-04 -.347E+04   0.422E-04 -.328E-04 0.347E+04   0.575E-17 -.388E-18 0.243E+01   -.672E-03 -.335E-03 0.330E+00
   -.241E+02 -.387E+02 -.348E+04   0.242E+02 0.385E+02 0.348E+04   -.183E+00 0.130E-01 0.206E+01   0.113E+00 0.225E+00 0.219E+00
   0.241E+02 -.387E+02 -.348E+04   -.242E+02 0.385E+02 0.348E+04   0.183E+00 0.130E-01 0.206E+01   -.111E+00 0.227E+00 0.218E+00
   -.456E+02 -.153E+01 -.348E+04   0.455E+02 0.171E+01 0.348E+04   -.803E-01 -.165E+00 0.206E+01   0.251E+00 -.144E-01 0.219E+00
   0.456E+02 -.153E+01 -.348E+04   -.455E+02 0.171E+01 0.348E+04   0.803E-01 -.165E+00 0.206E+01   -.253E+00 -.140E-01 0.217E+00
   -.215E+02 0.402E+02 -.348E+04   0.212E+02 -.402E+02 0.348E+04   0.103E+00 0.152E+00 0.206E+01   0.141E+00 -.210E+00 0.218E+00
   0.215E+02 0.402E+02 -.348E+04   -.212E+02 -.402E+02 0.348E+04   -.103E+00 0.152E+00 0.206E+01   -.138E+00 -.212E+00 0.217E+00
   -.150E-03 -.276E-04 -.348E+04   0.253E-03 0.273E-05 0.347E+04   -.182E-17 -.999E-19 0.270E+01   -.130E-01 -.671E-02 0.345E+00
   -.567E-04 -.287E-04 -.279E+04   0.111E-03 0.224E-04 0.279E+04   0.459E-17 0.145E-17 -.418E+01   0.312E-02 0.187E-02 0.762E-01
   0.406E-05 -.520E-05 -.386E+03   0.352E-05 0.151E-05 0.389E+03   -.239E-19 -.284E-19 -.237E+01   0.124E-03 0.727E-04 -.755E-02
 -----------------------------------------------------------------------------------------------
   -.210E-03 0.448E-05 0.173E+02   0.120E-12 -.187E-13 0.938E-11   0.391E-15 0.168E-15 -.118E+02   0.252E-01 0.115E-01 -.548E+01
 
 
 POSITION                                       TOTAL-FORCE (eV/Angst)
 -----------------------------------------------------------------------------------
      0.00000      0.00000      5.37156        -0.000000     -0.000000      0.000636
      2.56560      0.00000      5.37156         0.013493      0.025851      0.066402
      5.13119      0.00000      5.37156        -0.013493      0.025851      0.066402
      1.28280      2.22187      5.37156         0.029134     -0.001240      0.066402
      3.84839      2.22187      5.37156        -0.000000     -0.000000      0.032461
      6.41399      2.22187      5.37156        -0.029134     -0.001240      0.066402
      2.56560      4.44374      5.37156         0.015641     -0.024610      0.066402
      5.13119      4.44374      5.37156        -0.015641     -0.024610      0.066402
      7.69679      4.44374      5.37156        -0.000000     -0.000000      0.023466
      1.28280      0.74062      7.46636        -0.006054     -0.003495     -0.068779
      3.84839      0.74062      7.46636         0.000000     -0.032307     -0.045530
      6.41399      0.74062      7.46636         0.006054     -0.003495     -0.068779
      2.56560      2.96249      7.46636        -0.027979      0.016153     -0.045530
      5.13119      2.96249      7.46636         0.027979      0.016153     -0.045530
      7.69679      2.96249      7.46636         0.000000     -0.013669     -0.041270
      3.84839      5.18437      7.46636        -0.000000      0.006991     -0.068779
      6.41399      5.18437      7.46636        -0.011838      0.006834     -0.041270
      8.97958      5.18437      7.46636         0.011838      0.006834     -0.041270
      7.69679      1.48472      9.55134        -0.000000      0.005076      0.023484
      2.55991      1.47796      9.54139        -0.068854     -0.039753     -0.218417
      5.13688      1.47796      9.54139         0.068854     -0.039753     -0.218417
      8.97851      3.70374      9.55759         0.028102     -0.016224     -0.020432
      3.84839      3.70969      9.54139        -0.000000      0.079505     -0.218417
      6.41506      3.70374      9.55759        -0.028102     -0.016224     -0.020432
     10.25938      5.92325      9.55134        -0.004396     -0.002538      0.023484
      5.13420      5.92325      9.55134         0.004396     -0.002538      0.023484
      7.69679      5.92375      9.55759        -0.000000      0.032449     -0.020432
      0.00000      0.00000     11.61948        -0.000000     -0.000000      0.008834
      6.40389      6.65412     11.64269         0.023617      0.029455      0.066352
      8.98968      6.65412     11.64269        -0.023617      0.029455      0.066352
      8.96459      2.21887     11.64269         0.037317      0.005725      0.066352
      6.42899      2.21887     11.64269        -0.037317      0.005725      0.066352
     10.25748      4.45823     11.64269         0.013700     -0.035180      0.066352
      5.13610      4.45823     11.64269        -0.013700     -0.035180      0.066352
      7.69679      4.44374     11.62337        -0.000000     -0.000000     -0.001205
      3.84839      2.22187     11.63466        -0.000000     -0.000000      0.237711
      3.84839      2.22187     13.22008        -0.000000     -0.000000      0.014407
 -----------------------------------------------------------------------------------
    total drift:                                0.024940      0.011475      0.042854


--------------------------------------------------------------------------------------------------------



  FREE ENERGIE OF THE ION-ELECTRON SYSTEM (eV)
  ---------------------------------------------------
  free  energy   TOTEN  =      -132.83038886 eV

  energy  without entropy=     -132.83038886  energy(sigma->0) =     -132.83038886
 


--------------------------------------------------------------------------------------------------------


    POTLOK:  cpu time    0.0280: real time    0.0280


--------------------------------------------------------------------------------------------------------


 stress matrix after NEB project (eV)
     -5.83200      0.00000      0.00000
      0.00000     -5.83200      0.00000
      0.00000      0.00000      1.79020
  FORCES: max atom, RMS     0.014407    0.002369
  FORCE total and by dimension    0.014407    0.014407
  Stress total and by dimension    8.439746    5.832002
     LOOP+:  cpu time   65.8694: real time   65.8993
 -----------------------------------------------------------------------------
|                                                                             |
|           W    W    AA    RRRRR   N    N  II  N    N   GGGG   !!!           |
|           W    W   A  A   R    R  NN   N  II  NN   N  G    G  !!!           |
|           W    W  A    A  R    R  N N  N  II  N N  N  G       !!!           |
|           W WW W  AAAAAA  RRRRR   N  N N  II  N  N N  G  GGG   !            |
|           WW  WW  A    A  R   R   N   NN  II  N   NN  G    G                |
|           W    W  A    A  R    R  N    N  II  N    N   GGGG   !!!           |
|                                                                             |
|     Tetrahedron method does not include variations of the Fermi             |
|     occupations, so forces and stress will be inaccurate. We suggest        |
|     using a different smearing scheme ISMEAR = 1 or 2 for metals in         |
|     relaxations.                                                            |
|                                                                             |
 -----------------------------------------------------------------------------

    4ORBIT:  cpu time    0.0000: real time    0.0000



 total charge

# of ion       s       p       d       tot
------------------------------------------
    1        0.449   0.283   9.189   9.921
    2        0.449   0.285   9.186   9.920
    3        0.449   0.285   9.186   9.920
    4        0.449   0.285   9.186   9.920
    5        0.449   0.287   9.178   9.914
    6        0.449   0.285   9.186   9.920
    7        0.449   0.285   9.186   9.920
    8        0.449   0.285   9.186   9.920
    9        0.448   0.282   9.192   9.922
   10        0.441   0.373   9.174   9.988
   11        0.444   0.365   9.185   9.994
   12        0.441   0.373   9.174   9.988
   13        0.444   0.365   9.185   9.994
   14        0.444   0.365   9.185   9.994
   15        0.438   0.371   9.177   9.986
   16        0.441   0.373   9.174   9.988
   17        0.438   0.371   9.177   9.986
   18        0.438   0.371   9.177   9.986
   19        0.442   0.373   9.181   9.996
   20        0.454   0.377   9.177  10.008
   21        0.454   0.377   9.177  10.008
   22        0.434   0.374   9.181   9.989
   23        0.454   0.377   9.177  10.008
   24        0.434   0.374   9.181   9.989
   25        0.442   0.373   9.181   9.996
   26        0.442   0.373   9.181   9.996
   27        0.434   0.374   9.181   9.989
   28        0.451   0.289   9.195   9.935
   29        0.451   0.296   9.183   9.930
   30        0.451   0.296   9.183   9.930
   31        0.451   0.296   9.183   9.930
   32        0.451   0.296   9.183   9.930
   33        0.451   0.296   9.183   9.930
   34        0.451   0.296   9.183   9.930
   35        0.445   0.292   9.194   9.931
   36        0.515   0.493   7.535   8.543
   37        0.502   0.019   0.000   0.521
--------------------------------------------------
tot         16.612  12.135 328.926 357.673
 
 BZINTS: Fermi energy:    0.045049;  395.000000 electrons
         Band energy:-0.107469E+04;  BLOECHL correction:   -0.061156

 total amount of memory used by VASP MPI-rank0   104483. kBytes
=======================================================================

   base      :      30000. kBytes
   nonlr-proj:      17597. kBytes
   fftplans  :       2916. kBytes
   grid      :      12390. kBytes
   one-center:        575. kBytes
   wavefun   :      41005. kBytes
 
  
  
 General timing and accounting informations for this job:
 ========================================================
  
                  Total CPU time used (sec):       71.799
                            User time (sec):       68.992
                          System time (sec):        2.807
                         Elapsed time (sec):       72.166
  
                   Maximum memory used (kb):      341688.
                   Average memory used (kb):          N/A
  
                          Minor page faults:        85098
                          Major page faults:            0
                 Voluntary context switches:         4739
