PROCAR new format
# of k-points:   10         # of bands:  252         # of ions:   37

 k-point     1 :    0.00000000 0.00000000 0.00000000     weight = 0.01562500

band     1 # energy   -8.72374994 # occ.  2.00000000
 
ion      s      p      d    tot
    1  0.007  0.001  0.000  0.008
    2  0.007  0.001  0.000  0.008
    3  0.007  0.001  0.000  0.008
    4  0.007  0.001  0.000  0.008
    5  0.007  0.001  0.000  0.008
    6  0.007  0.001  0.000  0.008
    7  0.007  0.001  0.000  0.008
    8  0.007  0.001  0.000  0.008
    9  0.007  0.001  0.000  0.008
   10  0.025  0.000  0.000  0.026
   11  0.025  0.000  0.000  0.025
   12  0.025  0.000  0.000  0.026
   13  0.025  0.000  0.000  0.025
   14  0.025  0.000  0.000  0.025
   15  0.025  0.000  0.000  0.025
   16  0.025  0.000  0.000  0.026
   17  0.025  0.000  0.000  0.025
   18  0.025  0.000  0.000  0.025
   19  0.025  0.000  0.000  0.025
   20  0.024  0.000  0.000  0.024
   21  0.024  0.000  0.000  0.024
   22  0.024  0.000  0.000  0.025
   23  0.024  0.000  0.000  0.024
   24  0.024  0.000  0.000  0.025
   25  0.025  0.000  0.000  0.025
   26  0.025  0.000  0.000  0.025
   27  0.024  0.000  0.000  0.025
   28  0.007  0.001  0.000  0.008
   29  0.006  0.001  0.000  0.007
   30  0.006  0.001  0.000  0.007
   31  0.006  0.001  0.000  0.007
   32  0.006  0.001  0.000  0.007
   33  0.006  0.001  0.000  0.007
   34  0.006  0.001  0.000  0.007
   35  0.007  0.001  0.000  0.007
   36  0.007  0.001  0.000  0.008
   37  0.000  0.000  0.000  0.000
tot    0.565  0.017  0.001  0.583
 
band     2 # energy   -7.41056558 # occ.  2.00000000
 
ion      s      p      d    tot
    1  0.018  0.001  0.001  0.020
    2  0.018  0.001  0.001  0.019
    3  0.018  0.001  0.001  0.019
    4  0.018  0.001  0.001  0.019
    5  0.018  0.001  0.001  0.020
    6  0.018  0.001  0.001  0.019
    7  0.018  0.001  0.001  0.019
    8  0.018  0.001  0.001  0.019
    9  0.018  0.001  0.001  0.019
   10  0.009  0.002  0.001  0.012
   11  0.010  0.002  0.001  0.012
   12  0.009  0.002  0.001  0.012
   13  0.010  0.002  0.001  0.012
   14  0.010  0.002  0.001  0.012
   15  0.009  0.002  0.001  0.012
   16  0.009  0.002  0.001  0.012
   17  0.009  0.002  0.001  0.012
   18  0.009  0.002  0.001  0.012
   19  0.012  0.002  0.001  0.015
   20  0.010  0.002  0.001  0.012
   21  0.010  0.002  0.001  0.012
   22  0.012  0.002  0.001  0.014
   23  0.010  0.002  0.001  0.012
   24  0.012  0.002  0.001  0.014
   25  0.012  0.002  0.001  0.015
   26  0.012  0.002  0.001  0.015
   27  0.012  0.002  0.001  0.014
   28  0.020  0.001  0.000  0.021
   29  0.018  0.001  0.000  0.019
   30  0.018  0.001  0.000  0.019
   31  0.018  0.001  0.000  0.019
   32  0.018  0.001  0.000  0.019
   33  0.018  0.001  0.000  0.019
   34  0.018  0.001  0.000  0.019
   35  0.019  0.001  0.000  0.021
   36  0.018  0.001  0.000  0.019
   37  0.001  0.000  0.000  0.001
tot    0.511  0.054  0.019  0.584
 
band     3 # energy   -5.80234307 # occ.  2.00000000
 
ion      s      p      d    tot
    1  0.016  0.000  0.005  0.021
    2  0.013  0.000  0.006  0.020
    3  0.013  0.000  0.006  0.020
    4  0.013  0.000  0.006  0.020
    5  0.004  0.001  0.007  0.011
    6  0.013  0.000  0.006  0.020
    7  0.013  0.000  0.006  0.020
    8  0.013  0.000  0.006  0.020
    9  0.026  0.000  0.004  0.030
   10  0.003  0.003  0.004  0.010
   11  0.016  0.005  0.001  0.022
   12  0.003  0.003  0.004  0.010
   13  0.016  0.005  0.001  0.022
   14  0.015  0.005  0.001  0.022
   15  0.000  0.002  0.005  0.007
   16  0.003  0.003  0.004  0.010
   17  0.000  0.002  0.005  0.007
   18  0.000  0.002  0.005  0.007
   19  0.000  0.003  0.006  0.008
   20  0.020  0.005  0.002  0.027
   21  0.020  0.005  0.002  0.027
   22  0.000  0.004  0.003  0.008
   23  0.020  0.005  0.002  0.027
   24  0.000  0.004  0.003  0.008
   25  0.000  0.003  0.006  0.008
   26  0.000  0.003  0.006  0.008
   27  0.000  0.004  0.003  0.008
   28  0.021  0.000  0.004  0.026
   29  0.014  0.000  0.006  0.021
   30  0.015  0.000  0.006  0.021
   31  0.014  0.000  0.006  0.021
   32  0.015  0.000  0.006  0.021
   33  0.015  0.000  0.006  0.021
   34  0.015  0.000  0.006  0.021
   35  0.026  0.000  0.005  0.031
   36  0.002  0.002  0.020  0.023
   37  0.000  0.000  0.000  0.000
tot    0.379  0.074  0.180  0.633
 
band     4 # energy   -5.74922234 # occ.  2.00000000
 
ion      s      p      d    tot
    1  0.000  0.003  0.005  0.009
    2  0.008  0.002  0.002  0.013
    3  0.006  0.002  0.002  0.010
    4  0.008  0.002  0.002  0.013
    5  0.000  0.001  0.002  0.003
    6  0.000  0.001  0.002  0.003
    7  0.006  0.002  0.002  0.010
    8  0.000  0.001  0.002  0.003
    9  0.000  0.001  0.004  0.005
   10  0.057  0.003  0.005  0.065
   11  0.001  0.009  0.003  0.013
   12  0.014  0.006  0.009  0.029
   13  0.001  0.009  0.003  0.013
   14  0.004  0.000  0.006  0.010
   15  0.007  0.002  0.012  0.021
   16  0.014  0.006  0.009  0.029
   17  0.008  0.002  0.012  0.021
   18  0.031  0.004  0.002  0.038
   19  0.014  0.007  0.008  0.029
   20  0.040  0.005  0.003  0.048
   21  0.010  0.001  0.013  0.024
   22  0.000  0.009  0.003  0.013
   23  0.010  0.001  0.013  0.024
   24  0.002  0.001  0.005  0.008
   25  0.055  0.002  0.006  0.063
   26  0.014  0.007  0.008  0.029
   27  0.000  0.009  0.003  0.013
   28  0.000  0.004  0.005  0.009
   29  0.008  0.002  0.003  0.012
   30  0.009  0.002  0.003  0.014
   31  0.008  0.002  0.003  0.012
   32  0.000  0.001  0.003  0.004
   33  0.009  0.002  0.003  0.014
   34  0.000  0.001  0.003  0.004
   35  0.000  0.001  0.002  0.003
   36  0.000  0.002  0.011  0.012
   37  0.000  0.000  0.000  0.000
tot    0.346  0.114  0.183  0.643
 
band     5 # energy   -5.74900604 # occ.  2.00000000
 
ion      s      p      d    tot
    1  0.000  0.003  0.005  0.009
    2  0.001  0.001  0.002  0.004
    3  0.004  0.001  0.002  0.007
    4  0.001  0.001  0.002  0.004
    5  0.000  0.001  0.002  0.003
    6  0.010  0.002  0.002  0.014
    7  0.004  0.001  0.002  0.007
    8  0.010  0.002  0.002  0.014
    9  0.000  0.001  0.004  0.005
   10  0.000  0.007  0.010  0.017
   11  0.003  0.003  0.005  0.011
   12  0.042  0.004  0.007  0.053
   13  0.003  0.003  0.005  0.011
   14  0.000  0.012  0.002  0.014
   15  0.024  0.004  0.005  0.032
   16  0.043  0.004  0.007  0.053
   17  0.023  0.003  0.005  0.032
   18  0.000  0.001  0.015  0.016
   19  0.042  0.004  0.007  0.053
   20  0.000  0.000  0.016  0.017
   21  0.030  0.004  0.006  0.039
   22  0.001  0.003  0.005  0.009
   23  0.030  0.004  0.006  0.040
   24  0.000  0.012  0.003  0.014
   25  0.000  0.009  0.009  0.018
   26  0.042  0.004  0.007  0.052
   27  0.001  0.003  0.005  0.009
   28  0.000  0.004  0.005  0.009
   29  0.004  0.001  0.003  0.008
   30  0.002  0.001  0.002  0.006
   31  0.004  0.001  0.003  0.008
   32  0.011  0.003  0.003  0.017
   33  0.002  0.001  0.003  0.006
   34  0.011  0.003  0.003  0.017
   35  0.000  0.001  0.002  0.003
   36  0.000  0.002  0.011  0.012
   37  0.000  0.000  0.000  0.000
tot    0.346  0.114  0.183  0.643
 
band     6 # energy   -5.73292272 # occ.  2.00000000
 
ion      s      p      d    tot
    1  0.021  0.003  0.001  0.025
    2  0.000  0.002  0.004  0.006
    3  0.000  0.002  0.004  0.006
    4  0.000  0.002  0.004  0.006
    5  0.000  0.000  0.000  0.001
    6  0.000  0.002  0.004  0.006
    7  0.000  0.002  0.004  0.006
    8  0.000  0.002  0.004  0.006
    9  0.010  0.002  0.001  0.012
   10  0.027  0.005  0.007  0.039
   11  0.003  0.001  0.011  0.015
   12  0.028  0.005  0.007  0.039
   13  0.003  0.001  0.011  0.015
   14  0.003  0.001  0.011  0.015
   15  0.016  0.009  0.003  0.027
   16  0.028  0.005  0.007  0.039
   17  0.016  0.009  0.003  0.027
   18  0.016  0.009  0.003  0.027
   19  0.019  0.009  0.002  0.030
   20  0.000  0.002  0.011  0.012
   21  0.000  0.002  0.010  0.012
   22  0.028  0.003  0.008  0.040
   23  0.000  0.002  0.010  0.012
   24  0.027  0.003  0.008  0.039
   25  0.019  0.009  0.002  0.030
   26  0.019  0.009  0.002  0.030
   27  0.028  0.003  0.008  0.040
   28  0.019  0.002  0.000  0.022
   29  0.000  0.002  0.004  0.006
   30  0.000  0.002  0.004  0.006
   31  0.000  0.002  0.004  0.006
   32  0.000  0.002  0.004  0.006
   33  0.000  0.002  0.004  0.006
   34  0.000  0.002  0.004  0.006
   35  0.014  0.003  0.002  0.018
   36  0.000  0.000  0.000  0.000
   37  0.000  0.000  0.000  0.000
tot    0.347  0.116  0.176  0.639
 
band     7 # energy   -5.72745150 # occ.  2.00000000
 
ion      s      p      d    tot
    1  0.000  0.000  0.003  0.003
    2  0.009  0.002  0.003  0.014
    3  0.007  0.002  0.002  0.011
    4  0.009  0.002  0.003  0.013
    5  0.000  0.003  0.006  0.008
    6  0.000  0.001  0.002  0.003
    7  0.007  0.002  0.002  0.011
    8  0.000  0.001  0.002  0.003
    9  0.000  0.003  0.004  0.006
   10  0.000  0.006  0.009  0.015
   11  0.045  0.004  0.006  0.055
   12  0.004  0.003  0.005  0.012
   13  0.044  0.004  0.007  0.054
   14  0.000  0.001  0.016  0.018
   15  0.022  0.004  0.006  0.032
   16  0.004  0.003  0.005  0.012
   17  0.022  0.004  0.006  0.031
   18  0.000  0.013  0.003  0.016
   19  0.006  0.003  0.005  0.015
   20  0.000  0.014  0.002  0.016
   21  0.019  0.004  0.006  0.028
   22  0.046  0.004  0.007  0.056
   23  0.019  0.004  0.006  0.028
   24  0.000  0.002  0.016  0.018
   25  0.000  0.005  0.010  0.015
   26  0.006  0.003  0.005  0.015
   27  0.047  0.004  0.006  0.057
   28  0.000  0.000  0.003  0.003
   29  0.008  0.002  0.002  0.012
   30  0.007  0.002  0.003  0.012
   31  0.007  0.002  0.002  0.012
   32  0.000  0.001  0.002  0.003
   33  0.007  0.002  0.003  0.012
   34  0.000  0.001  0.002  0.003
   35  0.000  0.003  0.006  0.009
   36  0.000  0.003  0.008  0.011
   37  0.000  0.000  0.000  0.000
tot    0.344  0.117  0.182  0.642
 
band     8 # energy   -5.72724393 # occ.  2.00000000
 
ion      s      p      d    tot
    1  0.000  0.000  0.003  0.003
    2  0.002  0.001  0.002  0.005
    3  0.004  0.001  0.002  0.007
    4  0.002  0.001  0.002  0.005
    5  0.000  0.003  0.006  0.008
    6  0.010  0.002  0.002  0.015
    7  0.004  0.002  0.002  0.008
    8  0.010  0.003  0.002  0.015
    9  0.000  0.003  0.004  0.006
   10  0.005  0.003  0.004  0.011
   11  0.014  0.002  0.013  0.029
   12  0.001  0.005  0.007  0.014
   13  0.015  0.002  0.013  0.030
   14  0.059  0.005  0.003  0.067
   15  0.007  0.010  0.004  0.021
   16  0.001  0.005  0.008  0.014
   17  0.008  0.010  0.004  0.022
   18  0.029  0.000  0.007  0.037
   19  0.002  0.004  0.009  0.015
   20  0.025  0.000  0.007  0.032
   21  0.006  0.010  0.003  0.020
   22  0.015  0.003  0.012  0.031
   23  0.006  0.011  0.003  0.020
   24  0.062  0.004  0.003  0.070
   25  0.009  0.003  0.003  0.015
   26  0.002  0.004  0.008  0.015
   27  0.014  0.003  0.013  0.030
   28  0.000  0.000  0.003  0.003
   29  0.002  0.001  0.003  0.006
   30  0.003  0.001  0.002  0.006
   31  0.002  0.001  0.003  0.006
   32  0.010  0.003  0.003  0.015
   33  0.003  0.001  0.002  0.006
   34  0.010  0.003  0.003  0.015
   35  0.000  0.003  0.006  0.009
   36  0.000  0.003  0.008  0.011
   37  0.000  0.000  0.000  0.000
tot    0.344  0.117  0.182  0.642
 
band     9 # energy   -5.67505213 # occ.  2.00000000
 
ion      s      p      d    tot
    1  0.000  0.001  0.002  0.002
    2  0.003  0.002  0.006  0.011
    3  0.003  0.002  0.006  0.011
    4  0.003  0.002  0.006  0.011
    5  0.039  0.003  0.000  0.042
    6  0.003  0.002  0.006  0.011
    7  0.003  0.002  0.006  0.011
    8  0.003  0.002  0.006  0.011
    9  0.001  0.002  0.004  0.007
   10  0.006  0.005  0.007  0.018
   11  0.017  0.008  0.005  0.029
   12  0.006  0.005  0.007  0.018
   13  0.017  0.008  0.005  0.029
   14  0.017  0.008  0.005  0.029
   15  0.023  0.002  0.010  0.034
   16  0.006  0.005  0.007  0.018
   17  0.023  0.002  0.010  0.034
   18  0.023  0.002  0.010  0.034
   19  0.013  0.002  0.008  0.023
   20  0.016  0.006  0.004  0.026
   21  0.016  0.006  0.004  0.026
   22  0.006  0.006  0.005  0.016
   23  0.016  0.006  0.004  0.026
   24  0.006  0.006  0.005  0.016
   25  0.013  0.002  0.008  0.023
   26  0.013  0.002  0.008  0.023
   27  0.006  0.006  0.005  0.016
   28  0.000  0.001  0.004  0.005
   29  0.004  0.001  0.003  0.007
   30  0.004  0.001  0.003  0.007
   31  0.004  0.001  0.003  0.007
   32  0.004  0.001  0.003  0.007
   33  0.004  0.001  0.003  0.007
   34  0.004  0.001  0.003  0.007
   35  0.000  0.000  0.002  0.003
   36  0.033  0.001  0.003  0.037
   37  0.005  0.000  0.000  0.005
tot    0.362  0.103  0.183  0.648
 
band    10 # energy   -4.99902485 # occ.  2.00000000
 
ion      s      p      d    tot
    1  0.008  0.000  0.007  0.015
    2  0.004  0.001  0.009  0.014
    3  0.004  0.001  0.009  0.014
    4  0.004  0.001  0.009  0.014
    5  0.002  0.003  0.008  0.013
    6  0.004  0.001  0.009  0.014
    7  0.004  0.001  0.009  0.014
    8  0.004  0.001  0.009  0.014
    9  0.018  0.000  0.005  0.023
   10  0.005  0.000  0.024  0.029
   11  0.014  0.001  0.018  0.034
   12  0.005  0.000  0.024  0.029
   13  0.014  0.001  0.018  0.034
   14  0.014  0.001  0.018  0.034
   15  0.000  0.001  0.019  0.020
   16  0.005  0.000  0.024  0.029
   17  0.000  0.001  0.019  0.020
   18  0.000  0.001  0.019  0.020
   19  0.002  0.000  0.017  0.019
   20  0.013  0.002  0.025  0.039
   21  0.013  0.002  0.025  0.039
   22  0.002  0.000  0.020  0.022
   23  0.013  0.002  0.025  0.039
   24  0.002  0.000  0.020  0.022
   25  0.002  0.000  0.017  0.019
   26  0.002  0.000  0.017  0.019
   27  0.002  0.000  0.020  0.022
   28  0.006  0.000  0.005  0.011
   29  0.003  0.001  0.007  0.011
   30  0.003  0.001  0.007  0.011
   31  0.003  0.001  0.007  0.011
   32  0.003  0.001  0.007  0.011
   33  0.003  0.001  0.007  0.011
   34  0.003  0.001  0.007  0.011
   35  0.012  0.000  0.005  0.017
   36  0.004  0.001  0.047  0.052
   37  0.007  0.000  0.000  0.007
tot    0.207  0.027  0.542  0.776
 
band    11 # energy   -4.99261324 # occ.  2.00000000
 
ion      s      p      d    tot
    1  0.000  0.004  0.011  0.015
    2  0.018  0.003  0.005  0.026
    3  0.000  0.002  0.005  0.007
    4  0.017  0.003  0.005  0.025
    5  0.000  0.000  0.011  0.011
    6  0.013  0.003  0.005  0.022
    7  0.000  0.002  0.005  0.007
    8  0.014  0.003  0.005  0.023
    9  0.000  0.005  0.008  0.013
   10  0.000  0.004  0.022  0.026
   11  0.002  0.002  0.010  0.014
   12  0.007  0.002  0.010  0.019
   13  0.002  0.002  0.010  0.014
   14  0.000  0.002  0.014  0.017
   15  0.017  0.004  0.010  0.031
   16  0.007  0.002  0.010  0.019
   17  0.018  0.004  0.009  0.032
   18  0.000  0.000  0.022  0.022
   19  0.012  0.004  0.010  0.026
   20  0.000  0.003  0.014  0.017
   21  0.001  0.001  0.011  0.013
   22  0.008  0.003  0.009  0.020
   23  0.001  0.001  0.011  0.013
   24  0.000  0.002  0.028  0.030
   25  0.000  0.000  0.018  0.018
   26  0.012  0.005  0.010  0.027
   27  0.008  0.003  0.010  0.021
   28  0.000  0.004  0.008  0.012
   29  0.019  0.003  0.006  0.029
   30  0.000  0.002  0.006  0.008
   31  0.018  0.003  0.006  0.028
   32  0.017  0.003  0.006  0.026
   33  0.000  0.002  0.006  0.008
   34  0.018  0.003  0.006  0.027
   35  0.000  0.005  0.010  0.015
   36  0.000  0.000  0.026  0.026
   37  0.000  0.000  0.000  0.000
tot    0.230  0.093  0.382  0.705
 
band    12 # energy   -4.99260684 # occ.  2.00000000
 
ion      s      p      d    tot
    1  0.000  0.004  0.011  0.015
    2  0.003  0.002  0.005  0.010
    3  0.021  0.004  0.005  0.030
    4  0.004  0.002  0.005  0.011
    5  0.000  0.000  0.011  0.011
    6  0.008  0.002  0.005  0.015
    7  0.020  0.004  0.005  0.030
    8  0.007  0.002  0.005  0.014
    9  0.000  0.005  0.008  0.013
   10  0.009  0.001  0.006  0.017
   11  0.001  0.002  0.013  0.016
   12  0.002  0.003  0.018  0.024
   13  0.001  0.002  0.013  0.016
   14  0.003  0.001  0.009  0.013
   15  0.006  0.002  0.018  0.026
   16  0.003  0.003  0.018  0.023
   17  0.005  0.001  0.018  0.025
   18  0.024  0.005  0.006  0.035
   19  0.004  0.002  0.015  0.021
   20  0.001  0.001  0.010  0.012
   21  0.000  0.002  0.013  0.016
   22  0.002  0.002  0.022  0.027
   23  0.000  0.002  0.013  0.016
   24  0.011  0.003  0.004  0.017
   25  0.016  0.006  0.008  0.030
   26  0.004  0.001  0.015  0.020
   27  0.003  0.002  0.021  0.027
   28  0.000  0.004  0.008  0.012
   29  0.005  0.002  0.006  0.013
   30  0.024  0.003  0.006  0.034
   31  0.006  0.002  0.006  0.014
   32  0.007  0.002  0.006  0.016
   33  0.024  0.003  0.006  0.034
   34  0.006  0.002  0.006  0.015
   35  0.000  0.005  0.010  0.015
   36  0.000  0.000  0.026  0.026
   37  0.000  0.000  0.000  0.000
tot    0.230  0.093  0.382  0.705
 
band    13 # energy   -4.96735457 # occ.  2.00000000
 
ion      s      p      d    tot
    1  0.035  0.003  0.000  0.038
    2  0.000  0.003  0.010  0.013
    3  0.000  0.003  0.010  0.013
    4  0.000  0.003  0.010  0.013
    5  0.000  0.000  0.000  0.001
    6  0.000  0.003  0.010  0.013
    7  0.000  0.003  0.010  0.013
    8  0.000  0.003  0.010  0.013
    9  0.029  0.004  0.001  0.034
   10  0.008  0.004  0.010  0.022
   11  0.001  0.000  0.015  0.016
   12  0.008  0.004  0.010  0.022
   13  0.001  0.000  0.015  0.016
   14  0.001  0.000  0.015  0.016
   15  0.007  0.003  0.018  0.028
   16  0.008  0.004  0.010  0.022
   17  0.007  0.003  0.018  0.028
   18  0.007  0.003  0.018  0.028
   19  0.004  0.004  0.019  0.027
   20  0.000  0.000  0.014  0.014
   21  0.000  0.000  0.014  0.014
   22  0.012  0.004  0.010  0.026
   23  0.000  0.000  0.014  0.014
   24  0.012  0.004  0.010  0.026
   25  0.005  0.004  0.019  0.027
   26  0.004  0.004  0.019  0.027
   27  0.012  0.004  0.010  0.026
   28  0.037  0.003  0.000  0.040
   29  0.000  0.003  0.010  0.013
   30  0.000  0.003  0.010  0.013
   31  0.000  0.003  0.010  0.013
   32  0.000  0.003  0.010  0.013
   33  0.000  0.003  0.010  0.013
   34  0.000  0.003  0.010  0.013
   35  0.028  0.004  0.001  0.033
   36  0.000  0.000  0.000  0.000
   37  0.000  0.000  0.000  0.000
tot    0.230  0.094  0.381  0.704
 
band    14 # energy   -4.94572907 # occ.  2.00000000
 
ion      s      p      d    tot
    1  0.000  0.002  0.010  0.012
    2  0.019  0.004  0.006  0.028
    3  0.000  0.002  0.005  0.007
    4  0.019  0.003  0.006  0.028
    5  0.000  0.006  0.009  0.016
    6  0.013  0.003  0.006  0.022
    7  0.001  0.002  0.005  0.008
    8  0.014  0.003  0.006  0.023
    9  0.000  0.001  0.013  0.014
   10  0.013  0.005  0.010  0.028
   11  0.005  0.002  0.023  0.030
   12  0.003  0.001  0.015  0.020
   13  0.004  0.002  0.024  0.030
   14  0.018  0.004  0.005  0.027
   15  0.000  0.003  0.017  0.020
   16  0.004  0.002  0.015  0.020
   17  0.000  0.003  0.017  0.020
   18  0.000  0.000  0.008  0.009
   19  0.001  0.003  0.017  0.021
   20  0.022  0.005  0.004  0.031
   21  0.005  0.002  0.023  0.030
   22  0.002  0.001  0.014  0.018
   23  0.006  0.002  0.022  0.030
   24  0.010  0.003  0.009  0.023
   25  0.002  0.000  0.008  0.010
   26  0.000  0.003  0.018  0.021
   27  0.003  0.002  0.014  0.018
   28  0.000  0.002  0.011  0.013
   29  0.015  0.003  0.006  0.024
   30  0.000  0.001  0.005  0.006
   31  0.014  0.003  0.006  0.023
   32  0.012  0.003  0.006  0.021
   33  0.000  0.001  0.005  0.006
   34  0.013  0.003  0.006  0.022
   35  0.000  0.001  0.009  0.010
   36  0.000  0.008  0.017  0.024
   37  0.000  0.000  0.000  0.000
tot    0.220  0.094  0.398  0.713
 
band    15 # energy   -4.94569962 # occ.  2.00000000
 
ion      s      p      d    tot
    1  0.000  0.002  0.010  0.012
    2  0.003  0.002  0.006  0.010
    3  0.022  0.004  0.006  0.031
    4  0.003  0.002  0.006  0.011
    5  0.000  0.006  0.009  0.016
    6  0.009  0.002  0.005  0.017
    7  0.021  0.004  0.006  0.031
    8  0.008  0.002  0.005  0.016
    9  0.000  0.001  0.013  0.014
   10  0.000  0.000  0.017  0.017
   11  0.013  0.004  0.011  0.028
   12  0.010  0.004  0.011  0.025
   13  0.014  0.004  0.010  0.028
   14  0.000  0.002  0.029  0.031
   15  0.000  0.001  0.012  0.013
   16  0.010  0.003  0.012  0.025
   17  0.000  0.001  0.011  0.012
   18  0.000  0.004  0.020  0.024
   19  0.002  0.001  0.011  0.014
   20  0.000  0.001  0.028  0.029
   21  0.017  0.004  0.010  0.031
   22  0.008  0.003  0.011  0.021
   23  0.016  0.004  0.011  0.031
   24  0.000  0.001  0.016  0.017
   25  0.000  0.004  0.021  0.024
   26  0.002  0.001  0.011  0.013
   27  0.007  0.003  0.011  0.021
   28  0.000  0.002  0.011  0.013
   29  0.003  0.002  0.005  0.010
   30  0.018  0.004  0.006  0.028
   31  0.004  0.002  0.005  0.011
   32  0.006  0.002  0.005  0.013
   33  0.018  0.004  0.006  0.028
   34  0.005  0.002  0.005  0.012
   35  0.000  0.001  0.009  0.010
   36  0.000  0.008  0.017  0.024
   37  0.000  0.000  0.000  0.000
tot    0.220  0.094  0.398  0.713
 
band    16 # energy   -4.88273382 # occ.  2.00000000
 
ion      s      p      d    tot
    1  0.006  0.002  0.002  0.010
    2  0.001  0.002  0.010  0.013
    3  0.001  0.002  0.010  0.013
    4  0.001  0.002  0.010  0.013
    5  0.041  0.002  0.001  0.044
    6  0.001  0.002  0.010  0.013
    7  0.001  0.002  0.010  0.013
    8  0.001  0.002  0.010  0.013
    9  0.002  0.001  0.003  0.006
   10  0.004  0.001  0.020  0.025
   11  0.002  0.003  0.017  0.022
   12  0.003  0.001  0.020  0.025
   13  0.002  0.003  0.017  0.022
   14  0.002  0.003  0.017  0.022
   15  0.007  0.001  0.014  0.022
   16  0.003  0.001  0.020  0.025
   17  0.007  0.001  0.014  0.022
   18  0.007  0.001  0.014  0.022
   19  0.013  0.001  0.020  0.034
   20  0.003  0.004  0.016  0.023
   21  0.003  0.004  0.016  0.023
   22  0.004  0.001  0.018  0.023
   23  0.003  0.004  0.016  0.023
   24  0.004  0.001  0.018  0.023
   25  0.013  0.001  0.020  0.034
   26  0.013  0.001  0.020  0.034
   27  0.004  0.001  0.018  0.023
   28  0.001  0.002  0.008  0.011
   29  0.002  0.002  0.007  0.010
   30  0.002  0.002  0.007  0.010
   31  0.002  0.002  0.007  0.010
   32  0.002  0.002  0.007  0.010
   33  0.002  0.002  0.007  0.010
   34  0.002  0.002  0.007  0.010
   35  0.000  0.001  0.004  0.006
   36  0.057  0.000  0.011  0.069
   37  0.016  0.000  0.000  0.016
tot    0.240  0.064  0.441  0.744
 
band    17 # energy   -4.32469691 # occ.  2.00000000
 
ion      s      p      d    tot
    1  0.000  0.001  0.031  0.032
    2  0.014  0.001  0.009  0.025
    3  0.007  0.001  0.008  0.016
    4  0.014  0.001  0.009  0.024
    5  0.000  0.001  0.014  0.015
    6  0.001  0.001  0.009  0.011
    7  0.007  0.001  0.008  0.016
    8  0.001  0.001  0.009  0.011
    9  0.000  0.003  0.004  0.007
   10  0.000  0.000  0.061  0.061
   11  0.000  0.003  0.017  0.021
   12  0.000  0.000  0.019  0.019
   13  0.000  0.003  0.017  0.020
   14  0.000  0.000  0.009  0.009
   15  0.001  0.005  0.016  0.021
   16  0.000  0.000  0.019  0.019
   17  0.001  0.005  0.016  0.021
   18  0.000  0.000  0.027  0.027
   19  0.002  0.004  0.016  0.022
   20  0.000  0.000  0.056  0.056
   21  0.000  0.000  0.021  0.022
   22  0.002  0.003  0.016  0.021
   23  0.000  0.000  0.021  0.021
   24  0.000  0.000  0.028  0.028
   25  0.000  0.000  0.013  0.013
   26  0.002  0.004  0.016  0.022
   27  0.002  0.003  0.016  0.020
   28  0.000  0.001  0.007  0.008
   29  0.011  0.001  0.015  0.026
   30  0.000  0.001  0.012  0.013
   31  0.011  0.001  0.015  0.026
   32  0.012  0.000  0.013  0.025
   33  0.000  0.001  0.012  0.013
   34  0.012  0.000  0.013  0.025
   35  0.000  0.002  0.009  0.011
   36  0.000  0.000  0.057  0.057
   37  0.000  0.000  0.000  0.000
tot    0.099  0.048  0.659  0.806
 
band    18 # energy   -4.32458660 # occ.  2.00000000
 
ion      s      p      d    tot
    1  0.000  0.001  0.031  0.032
    2  0.001  0.001  0.008  0.010
    3  0.008  0.001  0.009  0.018
    4  0.001  0.001  0.008  0.010
    5  0.000  0.001  0.014  0.015
    6  0.014  0.001  0.009  0.024
    7  0.008  0.001  0.009  0.018
    8  0.014  0.001  0.009  0.024
    9  0.000  0.003  0.004  0.007
   10  0.000  0.000  0.005  0.005
   11  0.000  0.001  0.012  0.013
   12  0.000  0.000  0.047  0.047
   13  0.000  0.001  0.012  0.013
   14  0.000  0.004  0.019  0.024
   15  0.000  0.002  0.023  0.025
   16  0.000  0.000  0.047  0.047
   17  0.000  0.002  0.023  0.025
   18  0.001  0.006  0.012  0.019
   19  0.001  0.001  0.014  0.016
   20  0.000  0.000  0.010  0.010
   21  0.000  0.000  0.044  0.045
   22  0.001  0.001  0.024  0.025
   23  0.000  0.000  0.045  0.045
   24  0.002  0.004  0.012  0.018
   25  0.003  0.005  0.017  0.024
   26  0.001  0.001  0.014  0.016
   27  0.001  0.001  0.024  0.026
   28  0.000  0.001  0.006  0.008
   29  0.004  0.001  0.012  0.017
   30  0.015  0.000  0.014  0.030
   31  0.004  0.001  0.012  0.017
   32  0.003  0.001  0.014  0.018
   33  0.015  0.000  0.014  0.030
   34  0.003  0.001  0.014  0.018
   35  0.000  0.002  0.009  0.011
   36  0.000  0.000  0.057  0.057
   37  0.000  0.000  0.000  0.000
tot    0.099  0.048  0.659  0.806
 
band    19 # energy   -4.30168846 # occ.  2.00000000
 
ion      s      p      d    tot
    1  0.020  0.001  0.001  0.022
    2  0.000  0.001  0.012  0.013
    3  0.000  0.001  0.012  0.013
    4  0.000  0.001  0.012  0.013
    5  0.001  0.000  0.000  0.001
    6  0.000  0.001  0.012  0.013
    7  0.000  0.001  0.012  0.013
    8  0.000  0.001  0.012  0.013
    9  0.012  0.001  0.000  0.013
   10  0.001  0.003  0.030  0.034
   11  0.000  0.001  0.004  0.005
   12  0.001  0.003  0.030  0.034
   13  0.000  0.001  0.004  0.005
   14  0.000  0.001  0.004  0.005
   15  0.000  0.001  0.017  0.018
   16  0.001  0.003  0.030  0.034
   17  0.000  0.001  0.017  0.018
   18  0.000  0.001  0.017  0.018
   19  0.000  0.003  0.033  0.035
   20  0.000  0.001  0.038  0.040
   21  0.000  0.001  0.038  0.040
   22  0.001  0.001  0.013  0.015
   23  0.000  0.001  0.038  0.040
   24  0.001  0.001  0.013  0.015
   25  0.000  0.003  0.033  0.035
   26  0.000  0.003  0.033  0.035
   27  0.001  0.001  0.013  0.015
   28  0.016  0.001  0.001  0.017
   29  0.000  0.001  0.010  0.011
   30  0.000  0.001  0.010  0.011
   31  0.000  0.001  0.010  0.011
   32  0.000  0.001  0.010  0.011
   33  0.000  0.001  0.010  0.011
   34  0.000  0.001  0.010  0.011
   35  0.009  0.000  0.002  0.012
   36  0.021  0.002  0.093  0.116
   37  0.039  0.001  0.000  0.040
tot    0.124  0.049  0.638  0.812
 
band    20 # energy   -4.25105151 # occ.  2.00000000
 
ion      s      p      d    tot
    1  0.000  0.002  0.001  0.004
    2  0.014  0.001  0.011  0.026
    3  0.008  0.001  0.010  0.019
    4  0.014  0.001  0.011  0.026
    5  0.000  0.002  0.022  0.024
    6  0.001  0.001  0.010  0.012
    7  0.008  0.001  0.010  0.019
    8  0.001  0.001  0.010  0.012
    9  0.000  0.000  0.034  0.034
   10  0.001  0.007  0.021  0.030
   11  0.000  0.001  0.040  0.041
   12  0.000  0.002  0.013  0.015
   13  0.000  0.001  0.040  0.041
   14  0.001  0.002  0.005  0.008
   15  0.000  0.000  0.032  0.033
   16  0.000  0.002  0.013  0.015
   17  0.000  0.000  0.032  0.033
   18  0.000  0.001  0.012  0.014
   19  0.000  0.000  0.049  0.050
   20  0.001  0.007  0.019  0.027
   21  0.000  0.002  0.014  0.016
   22  0.000  0.001  0.023  0.024
   23  0.000  0.002  0.014  0.016
   24  0.000  0.003  0.016  0.019
   25  0.000  0.001  0.003  0.005
   26  0.000  0.000  0.050  0.050
   27  0.000  0.001  0.023  0.024
   28  0.000  0.002  0.030  0.032
   29  0.012  0.001  0.010  0.023
   30  0.000  0.001  0.009  0.009
   31  0.012  0.001  0.010  0.023
   32  0.010  0.001  0.010  0.021
   33  0.000  0.001  0.009  0.009
   34  0.011  0.001  0.010  0.021
   35  0.000  0.000  0.026  0.026
   36  0.000  0.003  0.001  0.004
   37  0.000  0.000  0.000  0.000
tot    0.096  0.053  0.654  0.803
 
band    21 # energy   -4.25093697 # occ.  2.00000000
 
ion      s      p      d    tot
    1  0.000  0.002  0.001  0.004
    2  0.001  0.001  0.010  0.012
    3  0.007  0.001  0.011  0.019
    4  0.001  0.001  0.010  0.012
    5  0.000  0.002  0.022  0.024
    6  0.015  0.001  0.010  0.026
    7  0.007  0.001  0.011  0.019
    8  0.014  0.001  0.010  0.026
    9  0.000  0.000  0.034  0.034
   10  0.000  0.000  0.010  0.010
   11  0.001  0.002  0.017  0.019
   12  0.001  0.005  0.018  0.025
   13  0.001  0.002  0.017  0.019
   14  0.000  0.000  0.052  0.052
   15  0.000  0.001  0.019  0.020
   16  0.001  0.005  0.018  0.025
   17  0.000  0.001  0.019  0.020
   18  0.000  0.000  0.039  0.039
   19  0.000  0.001  0.019  0.020
   20  0.000  0.000  0.013  0.013
   21  0.001  0.005  0.017  0.023
   22  0.000  0.002  0.019  0.021
   23  0.001  0.005  0.017  0.023
   24  0.000  0.000  0.025  0.025
   25  0.000  0.000  0.065  0.065
   26  0.000  0.001  0.018  0.020
   27  0.000  0.002  0.019  0.021
   28  0.000  0.002  0.030  0.032
   29  0.003  0.001  0.009  0.013
   30  0.015  0.001  0.011  0.027
   31  0.003  0.001  0.009  0.013
   32  0.004  0.001  0.009  0.014
   33  0.015  0.001  0.011  0.027
   34  0.004  0.001  0.009  0.014
   35  0.000  0.000  0.026  0.026
   36  0.000  0.003  0.001  0.004