PROCAR new format
# of k-points:   10         # of bands:  252         # of ions:   39

 k-point     1 :    0.00000000 0.00000000 0.00000000     weight = 0.01562500

band     1 # energy  -24.02326354 # occ.  2.00000000
 
ion      s      p      d    tot
    1  0.000  0.000  0.000  0.000
    2  0.000  0.000  0.000  0.000
    3  0.000  0.000  0.000  0.000
    4  0.000  0.000  0.000  0.000
    5  0.000  0.000  0.000  0.000
    6  0.000  0.000  0.000  0.000
    7  0.000  0.000  0.000  0.000
    8  0.000  0.000  0.000  0.000
    9  0.000  0.000  0.000  0.000
   10  0.000  0.000  0.000  0.000
   11  0.000  0.000  0.000  0.000
   12  0.000  0.000  0.000  0.000
   13  0.000  0.000  0.000  0.000
   14  0.000  0.000  0.000  0.000
   15  0.000  0.000  0.000  0.000
   16  0.000  0.000  0.000  0.000
   17  0.000  0.000  0.000  0.000
   18  0.000  0.000  0.000  0.000
   19  0.000  0.000  0.000  0.000
   20  0.000  0.000  0.000  0.000
   21  0.000  0.000  0.000  0.000
   22  0.000  0.000  0.000  0.000
   23  0.000  0.000  0.000  0.000
   24  0.000  0.000  0.000  0.000
   25  0.000  0.000  0.000  0.000
   26  0.000  0.000  0.000  0.000
   27  0.000  0.000  0.000  0.000
   28  0.000  0.000  0.000  0.000
   29  0.000  0.000  0.000  0.000
   30  0.000  0.000  0.000  0.000
   31  0.000  0.000  0.000  0.000
   32  0.000  0.000  0.000  0.000
   33  0.000  0.000  0.000  0.000
   34  0.000  0.000  0.000  0.000
   35  0.000  0.000  0.000  0.000
   36  0.000  0.000  0.000  0.000
   37  0.078  0.058  0.000  0.136
   38  0.727  0.007  0.000  0.734
   39  0.062  0.013  0.000  0.075
tot    0.867  0.079  0.000  0.946
 
band     2 # energy  -14.67830152 # occ.  2.00000000
 
ion      s      p      d    tot
    1  0.000  0.000  0.000  0.000
    2  0.000  0.000  0.000  0.000
    3  0.000  0.000  0.000  0.000
    4  0.000  0.000  0.000  0.000
    5  0.000  0.000  0.000  0.000
    6  0.000  0.000  0.000  0.000
    7  0.000  0.000  0.000  0.000
    8  0.000  0.000  0.000  0.000
    9  0.000  0.000  0.000  0.000
   10  0.000  0.000  0.000  0.000
   11  0.000  0.000  0.000  0.000
   12  0.000  0.000  0.000  0.000
   13  0.000  0.000  0.000  0.000
   14  0.000  0.000  0.000  0.000
   15  0.000  0.000  0.000  0.000
   16  0.000  0.000  0.000  0.000
   17  0.000  0.000  0.000  0.000
   18  0.000  0.000  0.000  0.000
   19  0.000  0.000  0.000  0.000
   20  0.000  0.000  0.000  0.000
   21  0.000  0.000  0.000  0.000
   22  0.000  0.000  0.000  0.000
   23  0.000  0.000  0.000  0.000
   24  0.000  0.000  0.000  0.000
   25  0.000  0.000  0.000  0.000
   26  0.000  0.000  0.000  0.000
   27  0.000  0.000  0.000  0.000
   28  0.000  0.000  0.000  0.000
   29  0.000  0.000  0.000  0.000
   30  0.000  0.000  0.000  0.000
   31  0.000  0.000  0.000  0.000
   32  0.000  0.000  0.000  0.000
   33  0.000  0.000  0.000  0.000
   34  0.000  0.000  0.000  0.000
   35  0.000  0.000  0.000  0.000
   36  0.002  0.001  0.002  0.004
   37  0.152  0.055  0.000  0.207
   38  0.017  0.533  0.000  0.549
   39  0.203  0.033  0.000  0.236
tot    0.374  0.622  0.002  0.997
 
band     3 # energy   -8.56489761 # occ.  2.00000000
 
ion      s      p      d    tot
    1  0.007  0.001  0.000  0.007
    2  0.006  0.001  0.000  0.007
    3  0.007  0.001  0.000  0.007
    4  0.006  0.001  0.000  0.007
    5  0.007  0.001  0.000  0.007
    6  0.006  0.001  0.000  0.007
    7  0.007  0.001  0.000  0.007
    8  0.006  0.001  0.000  0.007
    9  0.006  0.001  0.000  0.007
   10  0.026  0.000  0.000  0.027
   11  0.027  0.000  0.000  0.027
   12  0.026  0.000  0.000  0.027
   13  0.027  0.000  0.000  0.027
   14  0.027  0.000  0.000  0.027
   15  0.026  0.000  0.000  0.026
   16  0.026  0.000  0.000  0.027
   17  0.026  0.000  0.000  0.026
   18  0.026  0.000  0.000  0.026
   19  0.023  0.000  0.000  0.024
   20  0.027  0.000  0.000  0.027
   21  0.027  0.000  0.000  0.027
   22  0.024  0.000  0.000  0.024
   23  0.027  0.000  0.000  0.027
   24  0.024  0.000  0.000  0.024
   25  0.023  0.000  0.000  0.024
   26  0.023  0.000  0.000  0.024
   27  0.024  0.000  0.000  0.024
   28  0.005  0.000  0.000  0.005
   29  0.005  0.000  0.000  0.005
   30  0.005  0.000  0.000  0.005
   31  0.005  0.000  0.000  0.005
   32  0.005  0.000  0.000  0.005
   33  0.005  0.000  0.000  0.005
   34  0.005  0.000  0.000  0.005
   35  0.005  0.000  0.000  0.005
   36  0.009  0.000  0.001  0.010
   37  0.001  0.001  0.000  0.002
   38  0.000  0.000  0.000  0.001
   39  0.000  0.000  0.000  0.000
tot    0.566  0.012  0.004  0.583
 
band     4 # energy   -7.43203853 # occ.  2.00000000
 
ion      s      p      d    tot
    1  0.015  0.000  0.001  0.017
    2  0.015  0.000  0.001  0.017
    3  0.015  0.000  0.001  0.017
    4  0.015  0.000  0.001  0.017
    5  0.015  0.000  0.001  0.016
    6  0.015  0.000  0.001  0.017
    7  0.015  0.000  0.001  0.017
    8  0.015  0.000  0.001  0.017
    9  0.016  0.000  0.001  0.017
   10  0.011  0.001  0.002  0.014
   11  0.010  0.001  0.002  0.014
   12  0.011  0.001  0.002  0.014
   13  0.010  0.001  0.002  0.014
   14  0.010  0.001  0.002  0.014
   15  0.011  0.001  0.002  0.014
   16  0.011  0.001  0.002  0.014
   17  0.011  0.001  0.002  0.014
   18  0.011  0.001  0.002  0.014
   19  0.011  0.001  0.003  0.014
   20  0.014  0.001  0.003  0.019
   21  0.014  0.001  0.003  0.019
   22  0.011  0.001  0.003  0.014
   23  0.014  0.001  0.003  0.019
   24  0.011  0.001  0.003  0.014
   25  0.011  0.001  0.003  0.014
   26  0.011  0.001  0.003  0.014
   27  0.011  0.001  0.003  0.014
   28  0.013  0.000  0.001  0.014
   29  0.015  0.000  0.001  0.016
   30  0.015  0.000  0.001  0.016
   31  0.015  0.000  0.001  0.016
   32  0.015  0.000  0.001  0.016
   33  0.015  0.000  0.001  0.016
   34  0.015  0.000  0.001  0.016
   35  0.013  0.000  0.001  0.014
   36  0.033  0.001  0.005  0.039
   37  0.012  0.011  0.000  0.022
   38  0.001  0.004  0.000  0.005
   39  0.001  0.000  0.000  0.001
tot    0.502  0.044  0.066  0.612
 
band     5 # energy   -6.70720595 # occ.  2.00000000
 
ion      s      p      d    tot
    1  0.000  0.000  0.000  0.000
    2  0.000  0.000  0.000  0.000
    3  0.000  0.000  0.000  0.000
    4  0.000  0.000  0.000  0.000
    5  0.000  0.000  0.000  0.000
    6  0.000  0.000  0.000  0.000
    7  0.000  0.000  0.000  0.000
    8  0.000  0.000  0.000  0.000
    9  0.000  0.000  0.000  0.000
   10  0.000  0.000  0.000  0.000
   11  0.000  0.000  0.000  0.000
   12  0.000  0.000  0.000  0.000
   13  0.000  0.000  0.000  0.000
   14  0.000  0.000  0.000  0.000
   15  0.000  0.000  0.000  0.000
   16  0.000  0.000  0.000  0.000
   17  0.000  0.000  0.000  0.000
   18  0.000  0.000  0.000  0.000
   19  0.000  0.000  0.000  0.000
   20  0.000  0.000  0.000  0.000
   21  0.000  0.000  0.000  0.000
   22  0.000  0.000  0.000  0.000
   23  0.000  0.000  0.000  0.000
   24  0.000  0.000  0.000  0.000
   25  0.000  0.000  0.000  0.000
   26  0.000  0.000  0.000  0.000
   27  0.000  0.000  0.000  0.000
   28  0.000  0.000  0.000  0.000
   29  0.001  0.000  0.001  0.002
   30  0.000  0.000  0.000  0.000
   31  0.001  0.000  0.001  0.002
   32  0.001  0.000  0.001  0.002
   33  0.000  0.000  0.000  0.000
   34  0.001  0.000  0.001  0.002
   35  0.000  0.000  0.000  0.000
   36  0.000  0.002  0.006  0.009
   37  0.000  0.105  0.000  0.105
   38  0.000  0.550  0.000  0.550
   39  0.000  0.008  0.000  0.008
tot    0.005  0.666  0.012  0.683
 
band     6 # energy   -6.70706324 # occ.  2.00000000
 
ion      s      p      d    tot
    1  0.000  0.000  0.000  0.000
    2  0.000  0.000  0.000  0.000
    3  0.000  0.000  0.000  0.000
    4  0.000  0.000  0.000  0.000
    5  0.000  0.000  0.000  0.000
    6  0.000  0.000  0.000  0.000
    7  0.000  0.000  0.000  0.000
    8  0.000  0.000  0.000  0.000
    9  0.000  0.000  0.000  0.000
   10  0.000  0.000  0.000  0.000
   11  0.000  0.000  0.000  0.000
   12  0.000  0.000  0.000  0.000
   13  0.000  0.000  0.000  0.000
   14  0.000  0.000  0.000  0.000
   15  0.000  0.000  0.000  0.000
   16  0.000  0.000  0.000  0.000
   17  0.000  0.000  0.000  0.000
   18  0.000  0.000  0.000  0.000
   19  0.000  0.000  0.000  0.000
   20  0.000  0.000  0.000  0.000
   21  0.000  0.000  0.000  0.000
   22  0.000  0.000  0.000  0.000
   23  0.000  0.000  0.000  0.000
   24  0.000  0.000  0.000  0.000
   25  0.000  0.000  0.000  0.000
   26  0.000  0.000  0.000  0.000
   27  0.000  0.000  0.000  0.000
   28  0.000  0.000  0.000  0.000
   29  0.000  0.000  0.001  0.001
   30  0.001  0.000  0.001  0.002
   31  0.000  0.000  0.001  0.001
   32  0.000  0.000  0.000  0.001
   33  0.001  0.000  0.001  0.002
   34  0.000  0.000  0.000  0.001
   35  0.000  0.000  0.000  0.000
   36  0.000  0.002  0.006  0.009
   37  0.000  0.105  0.000  0.105
   38  0.000  0.550  0.000  0.550
   39  0.000  0.008  0.000  0.008
tot    0.005  0.666  0.012  0.683
 
band     7 # energy   -6.64477378 # occ.  2.00000000
 
ion      s      p      d    tot
    1  0.010  0.000  0.001  0.011
    2  0.005  0.000  0.002  0.007
    3  0.005  0.000  0.002  0.007
    4  0.005  0.000  0.002  0.007
    5  0.005  0.000  0.002  0.007
    6  0.005  0.000  0.002  0.007
    7  0.005  0.000  0.002  0.007
    8  0.005  0.000  0.002  0.007
    9  0.002  0.000  0.003  0.004
   10  0.001  0.000  0.003  0.004
   11  0.000  0.001  0.002  0.002
   12  0.001  0.000  0.003  0.004
   13  0.000  0.001  0.002  0.002
   14  0.000  0.001  0.002  0.002
   15  0.003  0.001  0.000  0.005
   16  0.001  0.000  0.003  0.004
   17  0.003  0.001  0.000  0.005
   18  0.003  0.001  0.000  0.005
   19  0.006  0.000  0.009  0.015
   20  0.000  0.001  0.018  0.019
   21  0.000  0.001  0.018  0.019
   22  0.018  0.001  0.004  0.023
   23  0.000  0.001  0.018  0.019
   24  0.018  0.001  0.004  0.023
   25  0.006  0.000  0.009  0.015
   26  0.006  0.000  0.009  0.015
   27  0.018  0.001  0.004  0.023
   28  0.001  0.000  0.005  0.006
   29  0.005  0.001  0.007  0.012
   30  0.005  0.001  0.007  0.012
   31  0.005  0.001  0.007  0.012
   32  0.005  0.001  0.007  0.012
   33  0.005  0.001  0.007  0.012
   34  0.005  0.001  0.007  0.012
   35  0.000  0.000  0.005  0.005
   36  0.097  0.031  0.052  0.180
   37  0.100  0.081  0.000  0.182
   38  0.008  0.025  0.000  0.033
   39  0.007  0.000  0.000  0.008
tot    0.373  0.156  0.233  0.762
 
band     8 # energy   -6.43970464 # occ.  2.00000000
 
ion      s      p      d    tot
    1  0.005  0.001  0.019  0.025
    2  0.014  0.000  0.015  0.028
    3  0.014  0.000  0.015  0.028
    4  0.014  0.000  0.015  0.028
    5  0.009  0.000  0.012  0.021
    6  0.014  0.000  0.015  0.028
    7  0.014  0.000  0.015  0.028
    8  0.014  0.000  0.015  0.028
    9  0.034  0.000  0.009  0.043
   10  0.015  0.001  0.019  0.035
   11  0.014  0.002  0.016  0.032
   12  0.015  0.001  0.019  0.035
   13  0.014  0.002  0.016  0.032
   14  0.014  0.002  0.016  0.032
   15  0.001  0.001  0.021  0.023
   16  0.015  0.001  0.019  0.035
   17  0.001  0.001  0.021  0.023
   18  0.001  0.001  0.021  0.023
   19  0.000  0.001  0.009  0.009
   20  0.009  0.001  0.010  0.020
   21  0.009  0.001  0.010  0.020
   22  0.007  0.001  0.001  0.009
   23  0.009  0.001  0.010  0.020
   24  0.007  0.001  0.001  0.009
   25  0.000  0.001  0.009  0.009
   26  0.000  0.001  0.009  0.009
   27  0.007  0.001  0.001  0.009
   28  0.005  0.000  0.000  0.005
   29  0.003  0.000  0.003  0.006
   30  0.003  0.000  0.003  0.006
   31  0.003  0.000  0.003  0.006
   32  0.003  0.000  0.003  0.006
   33  0.003  0.000  0.003  0.006
   34  0.003  0.000  0.003  0.006
   35  0.011  0.000  0.001  0.011
   36  0.001  0.001  0.003  0.004
   37  0.000  0.000  0.000  0.001
   38  0.000  0.000  0.000  0.000
   39  0.000  0.000  0.000  0.000
tot    0.304  0.024  0.376  0.704
 
band     9 # energy   -6.41665359 # occ.  2.00000000
 
ion      s      p      d    tot
    1  0.000  0.000  0.008  0.008
    2  0.004  0.001  0.004  0.009
    3  0.006  0.001  0.003  0.011
    4  0.004  0.001  0.004  0.009
    5  0.000  0.001  0.007  0.008
    6  0.000  0.000  0.003  0.003
    7  0.006  0.001  0.003  0.011
    8  0.000  0.000  0.003  0.003
    9  0.000  0.000  0.001  0.001
   10  0.000  0.000  0.036  0.036
   11  0.040  0.001  0.015  0.057
   12  0.025  0.002  0.012  0.039
   13  0.041  0.001  0.015  0.057
   14  0.000  0.003  0.026  0.029
   15  0.002  0.001  0.011  0.014
   16  0.025  0.002  0.012  0.039
   17  0.002  0.001  0.011  0.014
   18  0.000  0.004  0.004  0.007
   19  0.006  0.001  0.011  0.018
   20  0.000  0.002  0.035  0.038
   21  0.045  0.002  0.016  0.062
   22  0.014  0.001  0.011  0.026
   23  0.044  0.002  0.016  0.062
   24  0.000  0.000  0.028  0.029
   25  0.000  0.004  0.003  0.007
   26  0.006  0.001  0.011  0.018
   27  0.014  0.001  0.011  0.026
   28  0.000  0.000  0.001  0.001
   29  0.000  0.000  0.002  0.002
   30  0.005  0.001  0.003  0.008
   31  0.000  0.000  0.002  0.002
   32  0.004  0.001  0.004  0.009
   33  0.005  0.001  0.003  0.008
   34  0.004  0.001  0.004  0.009
   35  0.000  0.000  0.004  0.005
   36  0.000  0.003  0.004  0.006
   37  0.000  0.000  0.000  0.000
   38  0.000  0.000  0.000  0.000
   39  0.000  0.000  0.000  0.000
tot    0.305  0.044  0.344  0.693
 
band    10 # energy   -6.41662578 # occ.  2.00000000
 
ion      s      p      d    tot
    1  0.000  0.000  0.008  0.008
    2  0.003  0.001  0.003  0.006
    3  0.001  0.000  0.003  0.005
    4  0.003  0.001  0.003  0.006
    5  0.000  0.001  0.007  0.008
    6  0.007  0.001  0.004  0.012
    7  0.001  0.000  0.003  0.005
    8  0.007  0.001  0.004  0.012
    9  0.000  0.000  0.001  0.001
   10  0.034  0.002  0.004  0.040
   11  0.014  0.003  0.022  0.039
   12  0.008  0.001  0.029  0.037
   13  0.013  0.003  0.022  0.038
   14  0.054  0.001  0.011  0.066
   15  0.001  0.003  0.006  0.010
   16  0.009  0.001  0.028  0.037
   17  0.001  0.003  0.006  0.009
   18  0.002  0.000  0.013  0.016
   19  0.002  0.003  0.006  0.011
   20  0.059  0.001  0.009  0.070
   21  0.015  0.002  0.029  0.046
   22  0.005  0.001  0.022  0.028
   23  0.015  0.002  0.029  0.046
   24  0.019  0.002  0.005  0.025
   25  0.008  0.000  0.013  0.022
   26  0.002  0.003  0.005  0.010
   27  0.005  0.001  0.022  0.028
   28  0.000  0.000  0.001  0.001
   29  0.006  0.001  0.003  0.011
   30  0.001  0.000  0.003  0.005
   31  0.006  0.001  0.003  0.011
   32  0.002  0.000  0.002  0.004
   33  0.001  0.000  0.003  0.005
   34  0.002  0.000  0.002  0.004
   35  0.000  0.000  0.004  0.005
   36  0.000  0.003  0.004  0.006
   37  0.000  0.000  0.000  0.000
   38  0.000  0.000  0.000  0.000
   39  0.000  0.000  0.000  0.000
tot    0.305  0.044  0.344  0.693
 
band    11 # energy   -6.40402497 # occ.  2.00000000
 
ion      s      p      d    tot
    1  0.009  0.000  0.003  0.012
    2  0.004  0.000  0.008  0.013
    3  0.004  0.000  0.008  0.013
    4  0.004  0.000  0.008  0.013
    5  0.013  0.000  0.005  0.018
    6  0.004  0.000  0.008  0.013
    7  0.004  0.000  0.008  0.013
    8  0.004  0.000  0.008  0.013
    9  0.000  0.001  0.010  0.011
   10  0.001  0.000  0.027  0.028
   11  0.001  0.001  0.019  0.021
   12  0.001  0.000  0.027  0.028
   13  0.001  0.001  0.019  0.021
   14  0.001  0.001  0.019  0.021
   15  0.026  0.001  0.012  0.039
   16  0.001  0.000  0.027  0.028
   17  0.026  0.001  0.012  0.039
   18  0.026  0.001  0.012  0.039
   19  0.000  0.000  0.025  0.026
   20  0.025  0.001  0.014  0.040
   21  0.025  0.001  0.014  0.040
   22  0.000  0.001  0.017  0.019
   23  0.025  0.001  0.014  0.040
   24  0.000  0.001  0.017  0.019
   25  0.000  0.000  0.025  0.026
   26  0.000  0.000  0.025  0.026
   27  0.000  0.001  0.017  0.019
   28  0.008  0.000  0.002  0.010
   29  0.004  0.000  0.007  0.011
   30  0.004  0.000  0.007  0.011
   31  0.004  0.000  0.007  0.011
   32  0.004  0.000  0.007  0.011
   33  0.004  0.000  0.007  0.011
   34  0.004  0.000  0.007  0.011
   35  0.009  0.000  0.004  0.013
   36  0.000  0.006  0.000  0.007
   37  0.002  0.002  0.000  0.004
   38  0.000  0.001  0.000  0.001
   39  0.000  0.000  0.000  0.000
tot    0.253  0.025  0.457  0.735
 
band    12 # energy   -6.39133553 # occ.  2.00000000
 
ion      s      p      d    tot
    1  0.012  0.001  0.000  0.013
    2  0.000  0.001  0.006  0.007
    3  0.000  0.001  0.006  0.007
    4  0.000  0.001  0.006  0.007
    5  0.011  0.002  0.003  0.015
    6  0.000  0.001  0.006  0.007
    7  0.000  0.001  0.006  0.007
    8  0.000  0.001  0.006  0.007
    9  0.000  0.000  0.000  0.001
   10  0.020  0.003  0.005  0.028
   11  0.024  0.001  0.019  0.044
   12  0.020  0.003  0.005  0.028
   13  0.024  0.001  0.019  0.044
   14  0.025  0.001  0.019  0.044
   15  0.000  0.001  0.023  0.024
   16  0.020  0.003  0.005  0.028
   17  0.000  0.001  0.023  0.024
   18  0.000  0.001  0.023  0.024
   19  0.031  0.003  0.003  0.036
   20  0.002  0.002  0.021  0.025
   21  0.002  0.002  0.021  0.025
   22  0.007  0.000  0.027  0.034
   23  0.002  0.002  0.021  0.025
   24  0.007  0.000  0.027  0.034
   25  0.031  0.003  0.003  0.036
   26  0.031  0.003  0.003  0.036
   27  0.007  0.000  0.027  0.034
   28  0.007  0.001  0.002  0.010
   29  0.000  0.000  0.004  0.005
   30  0.000  0.000  0.004  0.005
   31  0.000  0.000  0.004  0.005
   32  0.000  0.000  0.004  0.005
   33  0.000  0.000  0.004  0.005
   34  0.000  0.000  0.004  0.005
   35  0.009  0.001  0.000  0.010
   36  0.002  0.000  0.000  0.002
   37  0.001  0.000  0.000  0.001
   38  0.000  0.000  0.000  0.000
   39  0.000  0.000  0.000  0.000
tot    0.298  0.040  0.358  0.697
 
band    13 # energy   -6.36472368 # occ.  2.00000000
 
ion      s      p      d    tot
    1  0.000  0.001  0.004  0.005
    2  0.005  0.001  0.004  0.010
    3  0.008  0.001  0.004  0.013
    4  0.005  0.001  0.004  0.010
    5  0.000  0.000  0.004  0.004
    6  0.000  0.000  0.003  0.004
    7  0.008  0.001  0.004  0.013
    8  0.000  0.000  0.003  0.004
    9  0.000  0.001  0.011  0.012
   10  0.029  0.000  0.017  0.046
   11  0.002  0.002  0.019  0.022
   12  0.007  0.004  0.008  0.019
   13  0.002  0.002  0.019  0.022
   14  0.006  0.001  0.008  0.016
   15  0.016  0.001  0.034  0.051
   16  0.008  0.004  0.008  0.019
   17  0.015  0.001  0.035  0.051
   18  0.062  0.002  0.005  0.069
   19  0.011  0.001  0.028  0.039
   20  0.001  0.001  0.012  0.014
   21  0.000  0.002  0.012  0.014
   22  0.008  0.003  0.013  0.024
   23  0.000  0.002  0.012  0.014
   24  0.032  0.001  0.012  0.045
   25  0.042  0.002  0.003  0.047
   26  0.010  0.001  0.028  0.039
   27  0.008  0.003  0.013  0.025
   28  0.000  0.000  0.006  0.007
   29  0.000  0.000  0.002  0.002
   30  0.003  0.001  0.002  0.005
   31  0.000  0.000  0.002  0.002
   32  0.004  0.001  0.002  0.007
   33  0.002  0.001  0.002  0.005
   34  0.003  0.001  0.003  0.007
   35  0.000  0.001  0.003  0.004
   36  0.000  0.000  0.000  0.000
   37  0.000  0.000  0.000  0.000
   38  0.000  0.002  0.000  0.002
   39  0.000  0.000  0.000  0.000
tot    0.297  0.044  0.352  0.693
 
band    14 # energy   -6.36469524 # occ.  2.00000000
 
ion      s      p      d    tot
    1  0.000  0.001  0.004  0.005
    2  0.004  0.001  0.003  0.008
    3  0.001  0.000  0.004  0.005
    4  0.004  0.001  0.003  0.008
    5  0.000  0.000  0.004  0.004
    6  0.008  0.001  0.004  0.014
    7  0.001  0.000  0.004  0.005
    8  0.008  0.001  0.004  0.014
    9  0.000  0.001  0.011  0.012
   10  0.000  0.005  0.005  0.010
   11  0.005  0.001  0.012  0.018
   12  0.022  0.001  0.014  0.037
   13  0.005  0.001  0.012  0.018
   14  0.000  0.002  0.023  0.025
   15  0.046  0.001  0.015  0.062
   16  0.022  0.001  0.014  0.037
   17  0.047  0.001  0.014  0.063
   18  0.000  0.001  0.044  0.045
   19  0.031  0.002  0.012  0.045
   20  0.000  0.002  0.013  0.014
   21  0.001  0.001  0.012  0.014
   22  0.025  0.001  0.012  0.038
   23  0.001  0.001  0.012  0.014
   24  0.000  0.004  0.014  0.018
   25  0.000  0.000  0.036  0.037
   26  0.032  0.002  0.011  0.045
   27  0.024  0.001  0.012  0.038
   28  0.000  0.000  0.006  0.007
   29  0.004  0.001  0.002  0.007
   30  0.002  0.000  0.002  0.004
   31  0.004  0.001  0.002  0.007
   32  0.001  0.000  0.001  0.002
   33  0.002  0.000  0.002  0.004
   34  0.001  0.000  0.001  0.002
   35  0.000  0.001  0.003  0.004
   36  0.000  0.000  0.000  0.000
   37  0.000  0.000  0.000  0.000
   38  0.000  0.002  0.000  0.002
   39  0.000  0.000  0.000  0.000
tot    0.297  0.044  0.352  0.693
 
band    15 # energy   -6.13252217 # occ.  2.00000000
 
ion      s      p      d    tot
    1  0.002  0.000  0.000  0.002
    2  0.000  0.000  0.003  0.004
    3  0.000  0.000  0.003  0.004
    4  0.000  0.000  0.003  0.004
    5  0.005  0.000  0.000  0.006
    6  0.000  0.000  0.003  0.004
    7  0.000  0.000  0.003  0.004
    8  0.000  0.000  0.003  0.004
    9  0.004  0.001  0.002  0.007
   10  0.001  0.000  0.015  0.016
   11  0.002  0.001  0.002  0.006
   12  0.001  0.000  0.015  0.016
   13  0.002  0.001  0.002  0.006
   14  0.002  0.001  0.002  0.006
   15  0.014  0.001  0.005  0.020
   16  0.001  0.000  0.015  0.016
   17  0.014  0.001  0.005  0.020
   18  0.014  0.001  0.005  0.020
   19  0.000  0.001  0.004  0.006
   20  0.001  0.001  0.022  0.023
   21  0.001  0.001  0.022  0.023
   22  0.005  0.002  0.012  0.019
   23  0.001  0.001  0.022  0.023
   24  0.005  0.002  0.012  0.019
   25  0.000  0.001  0.004  0.006
   26  0.000  0.001  0.004  0.006
   27  0.005  0.002  0.012  0.019
   28  0.028  0.000  0.009  0.037
   29  0.011  0.001  0.016  0.028
   30  0.011  0.001  0.016  0.028
   31  0.011  0.001  0.016  0.028
   32  0.011  0.001  0.016  0.028
   33  0.011  0.001  0.016  0.028
   34  0.011  0.001  0.016  0.028
   35  0.020  0.000  0.013  0.033
   36  0.018  0.014  0.061  0.092
   37  0.054  0.041  0.000  0.096
   38  0.004  0.011  0.000  0.015
   39  0.003  0.000  0.000  0.004
tot    0.278  0.091  0.382  0.750
 
band    16 # energy   -5.94097541 # occ.  2.00000000
 
ion      s      p      d    tot
    1  0.013  0.002  0.002  0.017
    2  0.000  0.001  0.008  0.009
    3  0.000  0.001  0.008  0.009
    4  0.000  0.001  0.008  0.009
    5  0.000  0.000  0.002  0.002
    6  0.000  0.001  0.008  0.009
    7  0.000  0.001  0.008  0.009
    8  0.000  0.001  0.008  0.009
    9  0.017  0.001  0.000  0.018
   10  0.010  0.001  0.013  0.025
   11  0.002  0.000  0.044  0.046
   12  0.010  0.001  0.013  0.025
   13  0.002  0.000  0.044  0.046
   14  0.002  0.000  0.044  0.046
   15  0.003  0.001  0.021  0.026
   16  0.010  0.001  0.013  0.025
   17  0.003  0.001  0.021  0.026
   18  0.004  0.001  0.021  0.026
   19  0.004  0.001  0.014  0.018
   20  0.001  0.000  0.054  0.056
   21  0.002  0.000  0.054  0.056
   22  0.011  0.001  0.017  0.030
   23  0.002  0.000  0.054  0.056
   24  0.011  0.001  0.017  0.030
   25  0.004  0.001  0.014  0.019
   26  0.004  0.001  0.014  0.018
   27  0.011  0.001  0.017  0.030
   28  0.012  0.001  0.000  0.013
   29  0.000  0.000  0.006  0.006
   30  0.000  0.000  0.006  0.006
   31  0.000  0.000  0.006  0.006
   32  0.000  0.000  0.006  0.006
   33  0.000  0.000  0.006  0.006
   34  0.000  0.000  0.006  0.006
   35  0.008  0.001  0.003  0.012
   36  0.000  0.000  0.000  0.001
   37  0.000  0.000  0.000  0.000
   38  0.000  0.000  0.000  0.000
   39  0.000  0.000  0.000  0.000
tot    0.148  0.027  0.580  0.755
 
band    17 # energy   -5.93786640 # occ.  2.00000000
 
ion      s      p      d    tot
    1  0.000  0.001  0.004  0.005
    2  0.009  0.001  0.004  0.014
    3  0.001  0.000  0.004  0.006
    4  0.009  0.001  0.004  0.014
    5  0.000  0.001  0.011  0.012
    6  0.004  0.001  0.005  0.010
    7  0.001  0.000  0.004  0.006
    8  0.004  0.001  0.005  0.010
    9  0.000  0.000  0.008  0.008
   10  0.010  0.002  0.008  0.020
   11  0.005  0.000  0.038  0.044
   12  0.002  0.001  0.041  0.044
   13  0.005  0.000  0.039  0.044
   14  0.020  0.001  0.011  0.033
   15  0.000  0.001  0.014  0.015
   16  0.003  0.001  0.040  0.044
   17  0.000  0.001  0.013  0.015
   18  0.002  0.000  0.022  0.023
   19  0.002  0.001  0.015  0.018
   20  0.023  0.001  0.006  0.030
   21  0.005  0.000  0.061  0.067
   22  0.001  0.001  0.027  0.029
   23  0.006  0.000  0.059  0.066
   24  0.003  0.001  0.015  0.019
   25  0.008  0.000  0.021  0.029
   26  0.002  0.001  0.015  0.018
   27  0.001  0.001  0.027  0.029
   28  0.000  0.000  0.008  0.009
   29  0.007  0.001  0.004  0.012
   30  0.000  0.000  0.004  0.005
   31  0.007  0.001  0.004  0.012
   32  0.007  0.001  0.004  0.012
   33  0.000  0.000  0.004  0.005
   34  0.007  0.001  0.004  0.012
   35  0.000  0.000  0.003  0.004
   36  0.000  0.003  0.003  0.007
   37  0.000  0.000  0.000  0.000
   38  0.000  0.000  0.000  0.000
   39  0.000  0.000  0.000  0.000
tot    0.156  0.032  0.563  0.750
 
band    18 # energy   -5.93786593 # occ.  2.00000000
 
ion      s      p      d    tot
    1  0.000  0.001  0.004  0.005
    2  0.000  0.000  0.005  0.006
    3  0.009  0.001  0.005  0.014
    4  0.000  0.001  0.005  0.006
    5  0.000  0.001  0.011  0.012
    6  0.006  0.001  0.004  0.010
    7  0.008  0.001  0.005  0.014
    8  0.005  0.001  0.004  0.010
    9  0.000  0.000  0.008  0.008
   10  0.000  0.001  0.051  0.052
   11  0.015  0.001  0.021  0.037
   12  0.008  0.002  0.018  0.028
   13  0.016  0.001  0.020  0.037
   14  0.000  0.000  0.048  0.048
   15  0.001  0.000  0.019  0.021
   16  0.008  0.002  0.019  0.028
   17  0.001  0.000  0.019  0.021
   18  0.000  0.001  0.011  0.012
   19  0.006  0.000  0.019  0.026
   20  0.000  0.000  0.078  0.078
   21  0.017  0.001  0.023  0.042
   22  0.002  0.001  0.018  0.022
   23  0.017  0.001  0.025  0.043
   24  0.000  0.001  0.031  0.032
   25  0.000  0.001  0.013  0.014
   26  0.006  0.000  0.019  0.026
   27  0.002  0.001  0.019  0.022
   28  0.000  0.000  0.008  0.009
   29  0.002  0.001  0.004  0.007
   30  0.009  0.001  0.004  0.015
   31  0.002  0.001  0.004  0.007
   32  0.003  0.001  0.004  0.008
   33  0.009  0.001  0.004  0.015
   34  0.003  0.001  0.004  0.007
   35  0.000  0.000  0.003  0.004
   36  0.000  0.003  0.003  0.007
   37  0.000  0.000  0.000  0.000
   38  0.000  0.000  0.000  0.000
   39  0.000  0.000  0.000  0.000
tot    0.156  0.032  0.563  0.750
 
band    19 # energy   -5.87589529 # occ.  2.00000000
 
ion      s      p      d    tot
    1  0.000  0.001  0.015  0.016
    2  0.010  0.001  0.005  0.016
    3  0.002  0.000  0.005  0.008
    4  0.010  0.001  0.005  0.016
    5  0.000  0.000  0.005  0.005
    6  0.003  0.001  0.006  0.009
    7  0.002  0.000  0.005  0.008
    8  0.003  0.001  0.006  0.010
    9  0.000  0.001  0.008  0.009
   10  0.000  0.001  0.028  0.029
   11  0.001  0.001  0.020  0.022
   12  0.006  0.000  0.023  0.029
   13  0.001  0.001  0.020  0.022
   14  0.000  0.001  0.020  0.021
   15  0.011  0.002  0.021  0.034
   16  0.006  0.000  0.023  0.029
   17  0.011  0.002  0.021  0.033
   18  0.000  0.000  0.064  0.064
   19  0.012  0.001  0.020  0.033
   20  0.000  0.002  0.018  0.020
   21  0.000  0.001  0.023  0.024
   22  0.018  0.001  0.020  0.039
   23  0.000  0.001  0.023  0.024
   24  0.000  0.000  0.034  0.034
   25  0.000  0.000  0.067  0.067
   26  0.013  0.001  0.020  0.033
   27  0.018  0.001  0.020  0.039
   28  0.000  0.001  0.005  0.005
   29  0.005  0.001  0.004  0.010
   30  0.000  0.000  0.004  0.005
   31  0.005  0.001  0.004  0.010
   32  0.003  0.001  0.002  0.006
   33  0.000  0.000  0.004  0.005
   34  0.003  0.001  0.002  0.006
   35  0.000  0.001  0.008  0.009
   36  0.000  0.000  0.001  0.001
   37  0.000  0.000  0.000  0.000
   38  0.000  0.000  0.000  0.000
   39  0.000  0.000  0.000  0.000
tot    0.147  0.028  0.576  0.751
 
band    20 # energy   -5.87587813 # occ.  2.00000000
 
ion      s      p      d    tot
    1  0.000  0.001  0.015  0.016
    2  0.000  0.000  0.006  0.006
    3  0.008  0.001  0.005  0.015
    4  0.000  0.000  0.006  0.006
    5  0.000  0.000  0.005  0.005
    6  0.007  0.001  0.005  0.013
    7  0.008  0.001  0.005  0.015
    8  0.007  0.001  0.005  0.013
    9  0.000  0.001  0.008  0.009
   10  0.009  0.000  0.021  0.030
   11  0.000  0.001  0.020  0.021
   12  0.002  0.001  0.026  0.029
   13  0.000  0.001  0.020  0.021
   14  0.001  0.001  0.019  0.022
   15  0.004  0.001  0.050  0.054
   16  0.002  0.001  0.026  0.029
   17  0.004  0.001  0.050  0.054
   18  0.015  0.002  0.006  0.023
   19  0.004  0.001  0.051  0.056
   20  0.000  0.000  0.024  0.025
   21  0.000  0.001  0.020  0.021
   22  0.006  0.000  0.029  0.036
   23  0.000  0.001  0.020  0.021
   24  0.024  0.001  0.016  0.041
   25  0.017  0.001  0.004  0.022
   26  0.004  0.001  0.051  0.056
   27  0.006  0.000  0.029  0.036
   28  0.000  0.001  0.005  0.005
   29  0.001  0.000  0.003  0.004
   30  0.006  0.001  0.002  0.009
   31  0.001  0.000  0.003  0.004
   32  0.003  0.001  0.004  0.008
   33  0.006  0.001  0.002  0.009
   34  0.003  0.001  0.005  0.008
   35  0.000  0.001  0.008  0.009
   36  0.000  0.000  0.001  0.001
   37  0.000  0.000  0.000  0.000
   38  0.000  0.000  0.000  0.000
   39  0.000  0.000  0.000  0.000