PROCAR new format
# of k-points:   10         # of bands:  252         # of ions:   36

 k-point     1 :    0.00000000 0.00000000 0.00000000     weight = 0.01562500

band     1 # energy   -8.73814022 # occ.  2.00000000
 
ion      s      p      d    tot
    1  0.006  0.001  0.000  0.007
    2  0.006  0.001  0.000  0.007
    3  0.006  0.001  0.000  0.007
    4  0.006  0.001  0.000  0.007
    5  0.006  0.001  0.000  0.007
    6  0.006  0.001  0.000  0.007
    7  0.006  0.001  0.000  0.007
    8  0.006  0.001  0.000  0.007
    9  0.006  0.001  0.000  0.007
   10  0.024  0.000  0.000  0.024
   11  0.024  0.000  0.000  0.024
   12  0.024  0.000  0.000  0.024
   13  0.024  0.000  0.000  0.024
   14  0.024  0.000  0.000  0.024
   15  0.023  0.000  0.000  0.023
   16  0.024  0.000  0.000  0.024
   17  0.023  0.000  0.000  0.023
   18  0.023  0.000  0.000  0.023
   19  0.024  0.000  0.000  0.025
   20  0.026  0.000  0.000  0.027
   21  0.026  0.000  0.000  0.027
   22  0.024  0.000  0.000  0.024
   23  0.026  0.000  0.000  0.027
   24  0.024  0.000  0.000  0.024
   25  0.024  0.000  0.000  0.025
   26  0.024  0.000  0.000  0.025
   27  0.024  0.000  0.000  0.024
   28  0.007  0.001  0.000  0.008
   29  0.007  0.001  0.000  0.008
   30  0.007  0.001  0.000  0.008
   31  0.007  0.001  0.000  0.008
   32  0.007  0.001  0.000  0.008
   33  0.007  0.001  0.000  0.008
   34  0.007  0.001  0.000  0.008
   35  0.007  0.001  0.000  0.008
   36  0.017  0.002  0.000  0.019
tot    0.568  0.016  0.001  0.586
 
band     2 # energy   -7.49267247 # occ.  2.00000000
 
ion      s      p      d    tot
    1  0.017  0.001  0.000  0.019
    2  0.017  0.001  0.000  0.018
    3  0.017  0.001  0.000  0.018
    4  0.017  0.001  0.000  0.018
    5  0.017  0.001  0.000  0.018
    6  0.017  0.001  0.000  0.018
    7  0.017  0.001  0.000  0.018
    8  0.017  0.001  0.000  0.018
    9  0.017  0.001  0.000  0.019
   10  0.011  0.002  0.001  0.014
   11  0.011  0.002  0.001  0.013
   12  0.011  0.002  0.001  0.014
   13  0.011  0.002  0.001  0.013
   14  0.011  0.002  0.001  0.013
   15  0.011  0.002  0.001  0.014
   16  0.011  0.002  0.001  0.014
   17  0.011  0.002  0.001  0.014
   18  0.011  0.002  0.001  0.014
   19  0.008  0.002  0.000  0.011
   20  0.009  0.003  0.000  0.011
   21  0.009  0.003  0.000  0.011
   22  0.008  0.002  0.000  0.011
   23  0.009  0.003  0.000  0.011
   24  0.008  0.002  0.000  0.011
   25  0.008  0.002  0.000  0.011
   26  0.008  0.002  0.000  0.011
   27  0.008  0.002  0.000  0.011
   28  0.018  0.001  0.001  0.019
   29  0.019  0.001  0.001  0.021
   30  0.019  0.001  0.001  0.021
   31  0.019  0.001  0.001  0.021
   32  0.019  0.001  0.001  0.021
   33  0.019  0.001  0.001  0.021
   34  0.019  0.001  0.001  0.021
   35  0.017  0.001  0.001  0.019
   36  0.040  0.001  0.002  0.044
tot    0.521  0.053  0.021  0.594
 
band     3 # energy   -5.90368918 # occ.  2.00000000
 
ion      s      p      d    tot
    1  0.015  0.000  0.006  0.021
    2  0.017  0.000  0.005  0.022
    3  0.017  0.000  0.005  0.022
    4  0.017  0.000  0.005  0.022
    5  0.015  0.000  0.005  0.021
    6  0.017  0.000  0.005  0.022
    7  0.017  0.000  0.005  0.022
    8  0.017  0.000  0.005  0.022
    9  0.019  0.000  0.005  0.024
   10  0.004  0.004  0.001  0.009
   11  0.003  0.004  0.001  0.008
   12  0.004  0.004  0.001  0.009
   13  0.003  0.004  0.001  0.008
   14  0.003  0.004  0.001  0.008
   15  0.001  0.004  0.002  0.006
   16  0.004  0.004  0.001  0.009
   17  0.001  0.004  0.002  0.006
   18  0.001  0.004  0.002  0.006
   19  0.007  0.003  0.003  0.014
   20  0.008  0.003  0.006  0.017
   21  0.008  0.003  0.006  0.017
   22  0.004  0.003  0.004  0.010
   23  0.008  0.003  0.006  0.017
   24  0.004  0.003  0.004  0.010
   25  0.007  0.003  0.003  0.013
   26  0.007  0.003  0.003  0.014
   27  0.004  0.003  0.004  0.010
   28  0.013  0.000  0.007  0.020
   29  0.018  0.000  0.009  0.027
   30  0.018  0.000  0.009  0.027
   31  0.018  0.000  0.009  0.027
   32  0.018  0.000  0.009  0.027
   33  0.018  0.000  0.009  0.027
   34  0.018  0.000  0.009  0.027
   35  0.016  0.000  0.006  0.022
   36  0.029  0.001  0.021  0.052
tot    0.397  0.062  0.185  0.645
 
band     4 # energy   -5.77071335 # occ.  2.00000000
 
ion      s      p      d    tot
    1  0.000  0.002  0.005  0.007
    2  0.009  0.002  0.002  0.013
    3  0.002  0.001  0.002  0.005
    4  0.009  0.002  0.002  0.013
    5  0.000  0.002  0.003  0.005
    6  0.003  0.001  0.002  0.006
    7  0.001  0.001  0.002  0.004
    8  0.002  0.001  0.002  0.006
    9  0.000  0.000  0.002  0.002
   10  0.057  0.005  0.004  0.065
   11  0.005  0.010  0.004  0.019
   12  0.016  0.003  0.011  0.030
   13  0.007  0.009  0.004  0.020
   14  0.024  0.000  0.006  0.031
   15  0.001  0.004  0.007  0.013
   16  0.012  0.002  0.012  0.026
   17  0.002  0.004  0.007  0.013
   18  0.006  0.003  0.003  0.012
   19  0.006  0.010  0.004  0.020
   20  0.067  0.004  0.006  0.077
   21  0.019  0.002  0.015  0.037
   22  0.001  0.005  0.007  0.013
   23  0.014  0.002  0.016  0.033
   24  0.005  0.003  0.003  0.011
   25  0.029  0.000  0.007  0.036
   26  0.008  0.009  0.004  0.022
   27  0.001  0.005  0.007  0.014
   28  0.000  0.003  0.004  0.007
   29  0.011  0.003  0.004  0.017
   30  0.005  0.001  0.003  0.010
   31  0.010  0.003  0.004  0.017
   32  0.001  0.001  0.004  0.006
   33  0.004  0.001  0.003  0.009
   34  0.001  0.001  0.003  0.005
   35  0.000  0.000  0.003  0.003
   36  0.000  0.006  0.017  0.023
tot    0.343  0.113  0.194  0.649
 
band     5 # energy   -5.77050970 # occ.  2.00000000
 
ion      s      p      d    tot
    1  0.000  0.002  0.005  0.007
    2  0.000  0.001  0.002  0.003
    3  0.007  0.002  0.002  0.011
    4  0.000  0.001  0.002  0.003
    5  0.000  0.002  0.003  0.005
    6  0.006  0.002  0.002  0.009
    7  0.007  0.002  0.002  0.011
    8  0.006  0.002  0.002  0.010
    9  0.000  0.000  0.002  0.002
   10  0.000  0.002  0.014  0.016
   11  0.019  0.003  0.006  0.028
   12  0.040  0.004  0.007  0.051
   13  0.017  0.004  0.005  0.027
   14  0.000  0.013  0.003  0.016
   15  0.005  0.003  0.004  0.012
   16  0.044  0.004  0.006  0.054
   17  0.005  0.003  0.004  0.012
   18  0.000  0.005  0.009  0.013
   19  0.023  0.003  0.006  0.032
   20  0.000  0.001  0.019  0.020
   21  0.048  0.003  0.010  0.061
   22  0.004  0.004  0.005  0.012
   23  0.053  0.003  0.009  0.065
   24  0.000  0.006  0.009  0.014
   25  0.000  0.013  0.003  0.016
   26  0.021  0.004  0.006  0.030
   27  0.004  0.003  0.004  0.012
   28  0.000  0.003  0.004  0.007
   29  0.000  0.001  0.003  0.004
   30  0.006  0.002  0.004  0.012
   31  0.001  0.001  0.003  0.004
   32  0.010  0.002  0.003  0.015
   33  0.007  0.002  0.004  0.013
   34  0.010  0.003  0.003  0.016
   35  0.000  0.000  0.003  0.003
   36  0.000  0.006  0.017  0.023
tot    0.343  0.113  0.194  0.649
 
band     6 # energy   -5.73924713 # occ.  2.00000000
 
ion      s      p      d    tot
    1  0.002  0.000  0.000  0.002
    2  0.000  0.002  0.004  0.005
    3  0.000  0.002  0.004  0.005
    4  0.000  0.002  0.004  0.005
    5  0.020  0.003  0.001  0.023
    6  0.000  0.002  0.004  0.005
    7  0.000  0.002  0.004  0.005
    8  0.000  0.002  0.004  0.005
    9  0.006  0.001  0.001  0.009
   10  0.002  0.005  0.007  0.014
   11  0.027  0.008  0.003  0.038
   12  0.002  0.005  0.007  0.014
   13  0.027  0.008  0.003  0.038
   14  0.027  0.008  0.003  0.038
   15  0.016  0.001  0.010  0.027
   16  0.002  0.005  0.007  0.014
   17  0.016  0.001  0.010  0.027
   18  0.016  0.001  0.010  0.027
   19  0.014  0.000  0.012  0.025
   20  0.030  0.009  0.004  0.042
   21  0.030  0.009  0.004  0.042
   22  0.006  0.006  0.005  0.017
   23  0.030  0.009  0.004  0.042
   24  0.006  0.006  0.005  0.017
   25  0.013  0.000  0.011  0.025
   26  0.014  0.000  0.011  0.025
   27  0.006  0.006  0.005  0.017
   28  0.006  0.001  0.001  0.008
   29  0.000  0.002  0.005  0.007
   30  0.000  0.002  0.005  0.007
   31  0.000  0.002  0.005  0.007
   32  0.000  0.002  0.005  0.007
   33  0.000  0.002  0.005  0.007
   34  0.000  0.002  0.005  0.007
   35  0.005  0.001  0.000  0.006
   36  0.042  0.006  0.002  0.050
tot    0.364  0.119  0.178  0.661
 
band     7 # energy   -5.71311637 # occ.  2.00000000
 
ion      s      p      d    tot
    1  0.000  0.001  0.002  0.003
    2  0.009  0.002  0.002  0.014
    3  0.003  0.001  0.002  0.006
    4  0.009  0.002  0.002  0.014
    5  0.000  0.001  0.004  0.005
    6  0.003  0.001  0.002  0.007
    7  0.001  0.001  0.002  0.004
    8  0.002  0.001  0.002  0.005
    9  0.000  0.003  0.005  0.008
   10  0.000  0.011  0.003  0.014
   11  0.029  0.004  0.004  0.037
   12  0.001  0.004  0.005  0.009
   13  0.024  0.003  0.006  0.034
   14  0.000  0.000  0.015  0.016
   15  0.041  0.003  0.006  0.050
   16  0.001  0.003  0.005  0.009
   17  0.034  0.004  0.006  0.044
   18  0.000  0.008  0.008  0.016
   19  0.028  0.004  0.005  0.036
   20  0.000  0.013  0.001  0.015
   21  0.002  0.005  0.005  0.012
   22  0.039  0.004  0.006  0.049
   23  0.003  0.003  0.005  0.011
   24  0.000  0.008  0.009  0.017
   25  0.000  0.001  0.016  0.017
   26  0.023  0.003  0.007  0.033
   27  0.047  0.003  0.006  0.056
   28  0.000  0.001  0.005  0.006
   29  0.013  0.003  0.003  0.019
   30  0.004  0.002  0.004  0.010
   31  0.013  0.003  0.003  0.018
   32  0.004  0.001  0.003  0.008
   33  0.003  0.002  0.004  0.008
   34  0.002  0.001  0.003  0.006
   35  0.000  0.004  0.006  0.010
   36  0.000  0.002  0.009  0.011
tot    0.341  0.116  0.181  0.638
 
band     8 # energy   -5.71289168 # occ.  2.00000000
 
ion      s      p      d    tot
    1  0.000  0.001  0.002  0.003
    2  0.000  0.001  0.002  0.003
    3  0.007  0.002  0.002  0.011
    4  0.000  0.001  0.002  0.003
    5  0.000  0.001  0.004  0.005
    6  0.006  0.002  0.002  0.010
    7  0.008  0.002  0.002  0.012
    8  0.007  0.002  0.002  0.012
    9  0.000  0.003  0.005  0.008
   10  0.001  0.001  0.005  0.007
   11  0.007  0.001  0.013  0.020
   12  0.000  0.008  0.004  0.012
   13  0.011  0.002  0.011  0.024
   14  0.036  0.004  0.002  0.042
   15  0.009  0.007  0.008  0.024
   16  0.000  0.009  0.003  0.013
   17  0.016  0.006  0.007  0.029
   18  0.051  0.002  0.005  0.058
   19  0.006  0.001  0.014  0.021
   20  0.003  0.001  0.006  0.010
   21  0.001  0.009  0.003  0.013
   22  0.019  0.006  0.008  0.032
   23  0.001  0.011  0.002  0.014
   24  0.057  0.003  0.005  0.064
   25  0.034  0.004  0.002  0.040
   26  0.011  0.002  0.012  0.024
   27  0.011  0.007  0.008  0.026
   28  0.000  0.001  0.005  0.006
   29  0.000  0.001  0.003  0.004
   30  0.008  0.002  0.003  0.013
   31  0.000  0.001  0.004  0.005
   32  0.009  0.003  0.003  0.015
   33  0.010  0.002  0.003  0.015
   34  0.011  0.003  0.003  0.017
   35  0.000  0.004  0.006  0.010
   36  0.000  0.002  0.009  0.011
tot    0.341  0.116  0.181  0.638
 
band     9 # energy   -5.70095192 # occ.  2.00000000
 
ion      s      p      d    tot
    1  0.021  0.003  0.001  0.025
    2  0.000  0.002  0.004  0.006
    3  0.000  0.002  0.004  0.006
    4  0.000  0.002  0.004  0.006
    5  0.000  0.000  0.000  0.001
    6  0.000  0.002  0.004  0.006
    7  0.000  0.002  0.004  0.006
    8  0.000  0.002  0.004  0.006
    9  0.011  0.002  0.001  0.013
   10  0.027  0.004  0.007  0.039
   11  0.003  0.001  0.011  0.015
   12  0.028  0.004  0.007  0.039
   13  0.003  0.001  0.011  0.015
   14  0.003  0.001  0.011  0.015
   15  0.016  0.009  0.002  0.027
   16  0.028  0.004  0.007  0.039
   17  0.016  0.009  0.002  0.027
   18  0.016  0.009  0.002  0.027
   19  0.017  0.009  0.002  0.029
   20  0.000  0.002  0.013  0.014
   21  0.000  0.002  0.013  0.015
   22  0.028  0.003  0.007  0.039
   23  0.000  0.002  0.013  0.015
   24  0.028  0.003  0.007  0.039
   25  0.018  0.009  0.002  0.029
   26  0.017  0.009  0.002  0.029
   27  0.028  0.003  0.007  0.039
   28  0.017  0.002  0.000  0.020
   29  0.000  0.002  0.004  0.006
   30  0.000  0.002  0.004  0.006
   31  0.000  0.002  0.004  0.006
   32  0.000  0.002  0.004  0.006
   33  0.000  0.002  0.004  0.006
   34  0.000  0.002  0.004  0.006
   35  0.014  0.003  0.001  0.018
   36  0.000  0.000  0.000  0.000
tot    0.343  0.113  0.184  0.639
 
band    10 # energy   -5.03854965 # occ.  2.00000000
 
ion      s      p      d    tot
    1  0.000  0.003  0.009  0.012
    2  0.015  0.003  0.004  0.023
    3  0.003  0.002  0.004  0.008
    4  0.018  0.003  0.004  0.026
    5  0.000  0.000  0.009  0.009
    6  0.012  0.003  0.005  0.019
    7  0.000  0.001  0.004  0.006
    8  0.007  0.002  0.004  0.014
    9  0.000  0.005  0.008  0.013
   10  0.000  0.005  0.013  0.018
   11  0.006  0.002  0.007  0.015
   12  0.004  0.002  0.009  0.015
   13  0.004  0.002  0.009  0.016
   14  0.000  0.002  0.015  0.016
   15  0.023  0.004  0.006  0.032
   16  0.006  0.001  0.007  0.014
   17  0.017  0.003  0.010  0.029
   18  0.000  0.001  0.019  0.020
   19  0.007  0.005  0.009  0.021
   20  0.000  0.003  0.024  0.027
   21  0.000  0.001  0.016  0.018
   22  0.006  0.003  0.011  0.021
   23  0.000  0.001  0.013  0.014
   24  0.000  0.001  0.026  0.028
   25  0.000  0.000  0.010  0.010
   26  0.005  0.004  0.009  0.018
   27  0.009  0.004  0.006  0.018
   28  0.000  0.003  0.008  0.012
   29  0.021  0.003  0.011  0.035
   30  0.002  0.003  0.011  0.017
   31  0.026  0.003  0.010  0.039
   32  0.020  0.002  0.011  0.032
   33  0.000  0.002  0.012  0.014
   34  0.012  0.002  0.011  0.025
   35  0.000  0.006  0.008  0.014
   36  0.000  0.001  0.042  0.043
tot    0.225  0.089  0.396  0.710
 
band    11 # energy   -5.03846779 # occ.  2.00000000
 
ion      s      p      d    tot
    1  0.000  0.003  0.009  0.012
    2  0.003  0.002  0.004  0.009
    3  0.016  0.003  0.005  0.024
    4  0.000  0.001  0.004  0.006
    5  0.000  0.000  0.009  0.009
    6  0.006  0.002  0.004  0.013
    7  0.018  0.003  0.005  0.026
    8  0.011  0.003  0.004  0.018
    9  0.000  0.005  0.008  0.013
   10  0.007  0.000  0.006  0.014
   11  0.001  0.002  0.013  0.016
   12  0.002  0.003  0.010  0.016
   13  0.003  0.002  0.012  0.016
   14  0.007  0.002  0.006  0.015
   15  0.004  0.001  0.017  0.022
   16  0.001  0.004  0.012  0.017
   17  0.010  0.002  0.014  0.026
   18  0.026  0.004  0.004  0.034
   19  0.001  0.001  0.010  0.012
   20  0.000  0.000  0.012  0.012
   21  0.000  0.002  0.020  0.021
   22  0.004  0.002  0.018  0.024
   23  0.000  0.002  0.022  0.025
   24  0.010  0.004  0.003  0.017
   25  0.008  0.006  0.009  0.022
   26  0.003  0.002  0.009  0.015
   27  0.001  0.002  0.023  0.026
   28  0.000  0.003  0.008  0.012
   29  0.006  0.002  0.011  0.019
   30  0.025  0.002  0.010  0.038
   31  0.001  0.002  0.012  0.015
   32  0.008  0.003  0.011  0.022
   33  0.027  0.003  0.010  0.040
   34  0.015  0.003  0.011  0.029
   35  0.000  0.006  0.008  0.014
   36  0.000  0.001  0.042  0.043
tot    0.225  0.089  0.396  0.710
 
band    12 # energy   -5.02746327 # occ.  2.00000000
 
ion      s      p      d    tot
    1  0.001  0.001  0.011  0.013
    2  0.006  0.001  0.010  0.017
    3  0.006  0.001  0.010  0.017
    4  0.006  0.001  0.010  0.017
    5  0.014  0.000  0.008  0.022
    6  0.006  0.001  0.010  0.017
    7  0.006  0.001  0.010  0.017
    8  0.006  0.001  0.010  0.017
    9  0.008  0.000  0.009  0.018
   10  0.012  0.000  0.023  0.036
   11  0.003  0.000  0.023  0.026
   12  0.012  0.000  0.023  0.036
   13  0.003  0.000  0.023  0.026
   14  0.003  0.000  0.023  0.026
   15  0.007  0.000  0.022  0.030
   16  0.012  0.000  0.023  0.036
   17  0.007  0.000  0.022  0.030
   18  0.007  0.000  0.022  0.030
   19  0.009  0.001  0.017  0.027
   20  0.004  0.000  0.030  0.034
   21  0.004  0.000  0.030  0.034
   22  0.003  0.000  0.015  0.018
   23  0.004  0.000  0.030  0.034
   24  0.003  0.000  0.015  0.018
   25  0.009  0.001  0.017  0.027
   26  0.009  0.001  0.017  0.027
   27  0.003  0.000  0.015  0.018
   28  0.000  0.001  0.005  0.007
   29  0.003  0.001  0.009  0.012
   30  0.003  0.001  0.009  0.012
   31  0.003  0.001  0.009  0.013
   32  0.003  0.001  0.009  0.013
   33  0.003  0.001  0.009  0.012
   34  0.003  0.001  0.009  0.012
   35  0.002  0.000  0.004  0.007
   36  0.015  0.000  0.014  0.030
tot    0.208  0.017  0.559  0.784
 
band    13 # energy   -4.97999309 # occ.  2.00000000
 
ion      s      p      d    tot
    1  0.024  0.001  0.000  0.026
    2  0.000  0.003  0.010  0.013
    3  0.000  0.003  0.010  0.013
    4  0.000  0.003  0.010  0.013
    5  0.029  0.005  0.002  0.036
    6  0.000  0.003  0.010  0.013
    7  0.000  0.003  0.010  0.013
    8  0.000  0.003  0.010  0.013
    9  0.005  0.000  0.000  0.005
   10  0.001  0.002  0.020  0.023
   11  0.016  0.004  0.009  0.030
   12  0.001  0.002  0.020  0.023
   13  0.016  0.004  0.009  0.030
   14  0.016  0.004  0.009  0.030
   15  0.001  0.000  0.011  0.013
   16  0.001  0.002  0.020  0.023
   17  0.001  0.000  0.011  0.013
   18  0.001  0.000  0.012  0.013
   19  0.004  0.002  0.009  0.015
   20  0.010  0.005  0.024  0.039
   21  0.010  0.005  0.024  0.039
   22  0.000  0.000  0.016  0.016
   23  0.010  0.005  0.024  0.039
   24  0.000  0.000  0.016  0.016
   25  0.004  0.002  0.009  0.015
   26  0.004  0.002  0.009  0.015
   27  0.000  0.000  0.016  0.016
   28  0.026  0.002  0.000  0.028
   29  0.000  0.003  0.011  0.015
   30  0.000  0.003  0.011  0.015
   31  0.000  0.003  0.011  0.015
   32  0.000  0.003  0.011  0.015
   33  0.000  0.003  0.011  0.015
   34  0.000  0.003  0.011  0.015
   35  0.005  0.000  0.001  0.006
   36  0.054  0.008  0.003  0.065
tot    0.246  0.092  0.402  0.740
 
band    14 # energy   -4.97238089 # occ.  2.00000000
 
ion      s      p      d    tot
    1  0.000  0.004  0.009  0.013
    2  0.020  0.004  0.005  0.029
    3  0.003  0.002  0.005  0.010
    4  0.022  0.004  0.006  0.031
    5  0.000  0.006  0.010  0.016
    6  0.011  0.003  0.006  0.020
    7  0.001  0.002  0.005  0.008
    8  0.008  0.003  0.006  0.016
    9  0.000  0.000  0.012  0.012
   10  0.020  0.005  0.008  0.033
   11  0.003  0.003  0.022  0.028
   12  0.006  0.002  0.017  0.025
   13  0.006  0.003  0.019  0.028
   14  0.018  0.003  0.005  0.026
   15  0.000  0.003  0.015  0.018
   16  0.004  0.001  0.019  0.023
   17  0.000  0.003  0.014  0.016
   18  0.000  0.000  0.009  0.009
   19  0.001  0.002  0.020  0.023
   20  0.019  0.006  0.005  0.030
   21  0.006  0.002  0.024  0.033
   22  0.002  0.002  0.011  0.014
   23  0.004  0.002  0.028  0.033
   24  0.005  0.003  0.010  0.017
   25  0.004  0.001  0.006  0.010
   26  0.001  0.002  0.018  0.021
   27  0.001  0.001  0.011  0.013
   28  0.000  0.003  0.011  0.013
   29  0.016  0.003  0.007  0.026
   30  0.002  0.001  0.005  0.009
   31  0.017  0.004  0.007  0.028
   32  0.011  0.003  0.007  0.021
   33  0.000  0.001  0.005  0.007
   34  0.008  0.002  0.007  0.017
   35  0.000  0.000  0.010  0.011
   36  0.000  0.010  0.015  0.024
tot    0.219  0.096  0.398  0.713
 
band    15 # energy   -4.97229314 # occ.  2.00000000
 
ion      s      p      d    tot
    1  0.000  0.004  0.009  0.013
    2  0.002  0.002  0.005  0.009
    3  0.019  0.004  0.006  0.028
    4  0.000  0.002  0.005  0.007
    5  0.000  0.006  0.010  0.016
    6  0.011  0.003  0.005  0.018
    7  0.021  0.004  0.006  0.030
    8  0.014  0.003  0.005  0.022
    9  0.000  0.000  0.012  0.012
   10  0.000  0.000  0.021  0.021
   11  0.014  0.003  0.009  0.026
   12  0.014  0.003  0.012  0.029
   13  0.012  0.003  0.012  0.027
   14  0.000  0.003  0.026  0.029
   15  0.000  0.001  0.010  0.011
   16  0.017  0.004  0.010  0.031
   17  0.000  0.001  0.011  0.012
   18  0.000  0.004  0.016  0.019
   19  0.003  0.001  0.009  0.013
   20  0.000  0.000  0.033  0.034
   21  0.013  0.004  0.014  0.031
   22  0.003  0.002  0.010  0.016
   23  0.016  0.005  0.010  0.031
   24  0.000  0.001  0.011  0.013
   25  0.000  0.003  0.023  0.026
   26  0.002  0.001  0.011  0.015
   27  0.004  0.002  0.010  0.016
   28  0.000  0.003  0.011  0.013
   29  0.002  0.002  0.006  0.010
   30  0.016  0.003  0.008  0.027
   31  0.001  0.001  0.006  0.008
   32  0.007  0.002  0.006  0.015
   33  0.018  0.004  0.008  0.029
   34  0.010  0.003  0.006  0.019
   35  0.000  0.000  0.010  0.011
   36  0.000  0.010  0.015  0.024
tot    0.219  0.096  0.398  0.713
 
band    16 # energy   -4.95442168 # occ.  2.00000000
 
ion      s      p      d    tot
    1  0.021  0.002  0.000  0.023
    2  0.000  0.003  0.010  0.013
    3  0.000  0.003  0.010  0.013
    4  0.000  0.003  0.010  0.013
    5  0.006  0.000  0.000  0.006
    6  0.000  0.003  0.010  0.013
    7  0.000  0.003  0.010  0.013
    8  0.000  0.003  0.010  0.013
    9  0.036  0.005  0.001  0.042
   10  0.006  0.002  0.010  0.018
   11  0.000  0.000  0.017  0.018
   12  0.006  0.002  0.010  0.018
   13  0.000  0.000  0.017  0.018
   14  0.000  0.000  0.017  0.018
   15  0.011  0.004  0.014  0.030
   16  0.006  0.002  0.010  0.018
   17  0.011  0.004  0.014  0.030
   18  0.011  0.004  0.014  0.030
   19  0.002  0.002  0.018  0.022
   20  0.001  0.000  0.013  0.014
   21  0.001  0.000  0.013  0.014
   22  0.012  0.004  0.011  0.028
   23  0.001  0.000  0.013  0.014
   24  0.012  0.004  0.011  0.028
   25  0.002  0.002  0.018  0.022
   26  0.002  0.002  0.018  0.022
   27  0.012  0.004  0.011  0.028
   28  0.024  0.002  0.000  0.026
   29  0.000  0.003  0.012  0.015
   30  0.000  0.003  0.012  0.015
   31  0.000  0.003  0.012  0.015
   32  0.000  0.003  0.012  0.015
   33  0.000  0.003  0.012  0.015
   34  0.000  0.003  0.012  0.015
   35  0.037  0.004  0.001  0.043
   36  0.005  0.000  0.000  0.006
tot    0.228  0.090  0.390  0.708
 
band    17 # energy   -4.42230607 # occ.  2.00000000
 
ion      s      p      d    tot
    1  0.000  0.001  0.026  0.026
    2  0.015  0.002  0.007  0.024
    3  0.007  0.001  0.007  0.016
    4  0.015  0.002  0.007  0.024
    5  0.000  0.001  0.012  0.013
    6  0.002  0.001  0.007  0.010
    7  0.006  0.001  0.007  0.014
    8  0.001  0.001  0.007  0.009
    9  0.000  0.003  0.004  0.008
   10  0.000  0.000  0.058  0.058
   11  0.000  0.004  0.015  0.019
   12  0.000  0.000  0.021  0.022
   13  0.000  0.003  0.014  0.017
   14  0.000  0.000  0.003  0.003
   15  0.000  0.005  0.014  0.019
   16  0.000  0.000  0.016  0.017
   17  0.000  0.004  0.015  0.020
   18  0.000  0.000  0.028  0.028
   19  0.006  0.002  0.011  0.019
   20  0.000  0.000  0.068  0.068
   21  0.000  0.000  0.032  0.032
   22  0.003  0.001  0.014  0.019
   23  0.000  0.000  0.027  0.028
   24  0.000  0.000  0.010  0.010
   25  0.000  0.000  0.020  0.021
   26  0.005  0.002  0.012  0.019
   27  0.004  0.002  0.015  0.020
   28  0.000  0.001  0.005  0.006
   29  0.006  0.000  0.023  0.030
   30  0.000  0.001  0.018  0.019
   31  0.008  0.000  0.023  0.031
   32  0.010  0.000  0.022  0.032
   33  0.000  0.001  0.018  0.020
   34  0.009  0.000  0.021  0.030
   35  0.000  0.001  0.008  0.009
   36  0.000  0.000  0.059  0.059
tot    0.099  0.042  0.676  0.817
 
band    18 # energy   -4.42219192 # occ.  2.00000000
 
ion      s      p      d    tot
    1  0.000  0.001  0.026  0.026
    2  0.000  0.001  0.007  0.008
    3  0.008  0.001  0.007  0.017
    4  0.001  0.001  0.007  0.009
    5  0.000  0.001  0.012  0.013
    6  0.013  0.001  0.007  0.022
    7  0.010  0.001  0.007  0.018
    8  0.014  0.002  0.007  0.023
    9  0.000  0.003  0.004  0.008
   10  0.000  0.000  0.006  0.006
   11  0.000  0.001  0.006  0.007
   12  0.000  0.000  0.043  0.043
   13  0.000  0.001  0.008  0.009
   14  0.000  0.004  0.018  0.023
   15  0.000  0.001  0.025  0.026
   16  0.000  0.000  0.047  0.047
   17  0.000  0.002  0.023  0.025
   18  0.000  0.006  0.010  0.016
   19  0.002  0.001  0.018  0.020
   20  0.000  0.000  0.017  0.018
   21  0.000  0.000  0.053  0.053
   22  0.001  0.001  0.012  0.014
   23  0.000  0.000  0.057  0.058
   24  0.005  0.002  0.016  0.022
   25  0.008  0.003  0.008  0.019
   26  0.002  0.001  0.017  0.020
   27  0.001  0.001  0.011  0.013
   28  0.000  0.001  0.005  0.006
   29  0.005  0.001  0.019  0.024
   30  0.011  0.000  0.024  0.035
   31  0.004  0.001  0.019  0.023
   32  0.001  0.001  0.020  0.022
   33  0.011  0.000  0.024  0.034
   34  0.002  0.001  0.021  0.024
   35  0.000  0.001  0.008  0.009
   36  0.000  0.000  0.059  0.059
tot    0.099  0.042  0.676  0.817
 
band    19 # energy   -4.31645986 # occ.  2.00000000
 
ion      s      p      d    tot
    1  0.023  0.001  0.000  0.024
    2  0.000  0.001  0.016  0.017
    3  0.000  0.001  0.016  0.017
    4  0.000  0.001  0.016  0.017
    5  0.022  0.001  0.002  0.024
    6  0.000  0.001  0.016  0.017
    7  0.000  0.001  0.016  0.017
    8  0.000  0.001  0.016  0.017
    9  0.000  0.000  0.000  0.000
   10  0.000  0.002  0.028  0.030
   11  0.000  0.003  0.032  0.036
   12  0.000  0.002  0.028  0.030
   13  0.000  0.003  0.032  0.036
   14  0.000  0.003  0.032  0.036
   15  0.000  0.001  0.003  0.004
   16  0.000  0.002  0.028  0.030
   17  0.000  0.001  0.003  0.004
   18  0.000  0.001  0.003  0.004
   19  0.001  0.001  0.013  0.016
   20  0.001  0.003  0.040  0.044
   21  0.001  0.003  0.040  0.044
   22  0.000  0.001  0.015  0.016
   23  0.001  0.003  0.040  0.044
   24  0.000  0.001  0.015  0.016
   25  0.001  0.001  0.013  0.016
   26  0.001  0.001  0.013  0.016
   27  0.000  0.001  0.015  0.016
   28  0.004  0.000  0.004  0.008
   29  0.000  0.001  0.027  0.028
   30  0.000  0.001  0.027  0.028
   31  0.000  0.001  0.027  0.028
   32  0.000  0.001  0.027  0.028
   33  0.000  0.001  0.027  0.028
   34  0.000  0.001  0.027  0.028
   35  0.017  0.000  0.001  0.019
   36  0.034  0.000  0.005  0.040
tot    0.109  0.051  0.661  0.821
 
band    20 # energy   -4.28194460 # occ.  2.00000000
 
ion      s      p      d    tot
    1  0.008  0.000  0.001  0.009
    2  0.000  0.001  0.016  0.017
    3  0.000  0.001  0.015  0.017
    4  0.000  0.001  0.016  0.017
    5  0.005  0.000  0.000  0.006
    6  0.000  0.001  0.015  0.017
    7  0.000  0.001  0.015  0.017
    8  0.000  0.001  0.015  0.017
    9  0.027  0.001  0.001  0.029
   10  0.000  0.002  0.015  0.017
   11  0.000  0.000  0.010  0.010
   12  0.000  0.002  0.015  0.017
   13  0.000  0.000  0.010  0.010
   14  0.000  0.000  0.010  0.010
   15  0.000  0.003  0.035  0.038
   16  0.000  0.002  0.015  0.017
   17  0.000  0.003  0.035  0.038
   18  0.000  0.003  0.035  0.038
   19  0.000  0.002  0.030  0.032
   20  0.000  0.000  0.015  0.016
   21  0.000  0.000  0.015  0.016
   22  0.001  0.003  0.026  0.031
   23  0.000  0.000  0.015  0.016
   24  0.001  0.003  0.027  0.031
   25  0.000  0.002  0.030  0.032
   26  0.000  0.002  0.030  0.032
   27  0.001  0.003  0.026  0.031
   28  0.025  0.001  0.002  0.028
   29  0.000  0.001  0.028  0.029
   30  0.000  0.001  0.028  0.029
   31  0.000  0.001  0.028  0.029
   32  0.000  0.001  0.028  0.029
   33  0.000  0.001  0.028  0.029
   34  0.000  0.001  0.028  0.029
   35  0.020  0.000  0.005  0.026
   36  0.001  0.000  0.002  0.003
tot    0.095  0.047  0.664  0.806
 
band    21 # energy   -4.27265119 # occ.  2.00000000
 
ion      s      p      d    tot
    1  0.000  0.002  0.002  0.004
    2  0.015  0.001  0.009  0.025
    3  0.008  0.001  0.009  0.018
    4  0.014  0.001  0.009  0.024
    5  0.000  0.002  0.019  0.021
    6  0.002  0.001  0.009  0.011
    7  0.006  0.001  0.009  0.016
    8  0.001  0.001  0.009  0.010
    9  0.000  0.000  0.030  0.030
   10  0.001  0.007  0.021  0.029
   11  0.000  0.000  0.042  0.042
   12  0.000  0.002  0.011  0.013
   13  0.000  0.001  0.036  0.037
   14  0.001  0.003  0.004  0.007
   15  0.000  0.000  0.030  0.031
   16  0.000  0.002  0.009  0.010
   17  0.000  0.000  0.027  0.028
   18  0.000  0.001  0.011  0.012
   19  0.000  0.000  0.047  0.048
   20  0.002  0.006  0.024  0.033
   21  0.001  0.002  0.018  0.021
   22  0.000  0.001  0.022  0.023
   23  0.000  0.001  0.017  0.019
   24  0.000  0.003  0.014  0.016
   25  0.001  0.001  0.004  0.005
   26  0.000  0.000  0.041  0.041
   27  0.000  0.001  0.023  0.024
   28  0.000  0.001  0.034  0.035
   29  0.012  0.001  0.014  0.027
   30  0.000  0.001  0.013  0.014
   31  0.013  0.001  0.014  0.028
   32  0.012  0.001  0.013  0.026
   33  0.000  0.001  0.012  0.013
   34  0.010  0.001  0.013  0.024
   35  0.000  0.000  0.032  0.032
   36  0.000  0.004  0.000  0.004
tot    0.099  0.053  0.649  0.801
 
band    22 # energy   -4.27252042 # occ.  2.00000000
 
ion      s      p      d    tot
    1  0.000  0.002  0.002  0.004
    2  0.000  0.001  0.009  0.010
    3  0.007  0.001  0.009  0.017
    4  0.001  0.001  0.009  0.011
    5  0.000  0.002  0.019  0.021
    6  0.013  0.001  0.009  0.023
    7  0.009  0.001  0.009  0.019
    8  0.014  0.001  0.009  0.025
    9  0.000  0.000  0.030  0.030
   10  0.000  0.000  0.006  0.006
   11  0.001  0.002  0.013  0.016
   12  0.001  0.005  0.016  0.022
   13  0.000  0.002  0.018  0.021
   14  0.000  0.000  0.051  0.051
   15  0.000  0.001  0.015  0.016
   16  0.001  0.006  0.018  0.025