PROCAR new format
# of k-points:   10         # of bands:  252         # of ions:   37

 k-point     1 :    0.00000000 0.00000000 0.00000000     weight = 0.01562500

band     1 # energy   -8.69454041 # occ.  2.00000000
 
ion      s      p      d    tot
    1  0.006  0.001  0.000  0.007
    2  0.006  0.001  0.000  0.007
    3  0.006  0.001  0.000  0.007
    4  0.006  0.001  0.000  0.007
    5  0.006  0.001  0.000  0.007
    6  0.006  0.001  0.000  0.007
    7  0.006  0.001  0.000  0.007
    8  0.006  0.001  0.000  0.007
    9  0.006  0.001  0.000  0.007
   10  0.023  0.000  0.000  0.023
   11  0.023  0.000  0.000  0.023
   12  0.023  0.000  0.000  0.023
   13  0.023  0.000  0.000  0.023
   14  0.023  0.000  0.000  0.023
   15  0.023  0.000  0.000  0.023
   16  0.023  0.000  0.000  0.023
   17  0.023  0.000  0.000  0.023
   18  0.023  0.000  0.000  0.023
   19  0.025  0.000  0.000  0.025
   20  0.027  0.000  0.000  0.027
   21  0.027  0.000  0.000  0.027
   22  0.025  0.000  0.000  0.025
   23  0.027  0.000  0.000  0.027
   24  0.025  0.000  0.000  0.025
   25  0.025  0.000  0.000  0.025
   26  0.025  0.000  0.000  0.025
   27  0.025  0.000  0.000  0.025
   28  0.007  0.001  0.000  0.008
   29  0.008  0.001  0.000  0.009
   30  0.008  0.001  0.000  0.009
   31  0.008  0.001  0.000  0.009
   32  0.008  0.001  0.000  0.009
   33  0.008  0.001  0.000  0.009
   34  0.008  0.001  0.000  0.009
   35  0.007  0.001  0.000  0.008
   36  0.021  0.001  0.000  0.022
   37  0.001  0.000  0.000  0.001
tot    0.572  0.016  0.001  0.589
 
band     2 # energy   -7.45763877 # occ.  2.00000000
 
ion      s      p      d    tot
    1  0.017  0.001  0.000  0.019
    2  0.017  0.001  0.000  0.018
    3  0.017  0.001  0.000  0.018
    4  0.017  0.001  0.000  0.018
    5  0.017  0.001  0.000  0.018
    6  0.017  0.001  0.000  0.018
    7  0.017  0.001  0.000  0.018
    8  0.017  0.001  0.000  0.018
    9  0.017  0.001  0.000  0.019
   10  0.012  0.002  0.001  0.014
   11  0.011  0.002  0.001  0.014
   12  0.012  0.002  0.001  0.014
   13  0.011  0.002  0.001  0.014
   14  0.011  0.002  0.001  0.014
   15  0.012  0.002  0.001  0.014
   16  0.012  0.002  0.001  0.014
   17  0.012  0.002  0.001  0.014
   18  0.012  0.002  0.001  0.014
   19  0.006  0.002  0.000  0.009
   20  0.009  0.003  0.000  0.012
   21  0.009  0.003  0.000  0.012
   22  0.007  0.002  0.000  0.009
   23  0.009  0.003  0.000  0.012
   24  0.007  0.002  0.000  0.009
   25  0.006  0.002  0.000  0.009
   26  0.006  0.002  0.000  0.009
   27  0.007  0.002  0.000  0.009
   28  0.016  0.001  0.001  0.017
   29  0.018  0.001  0.001  0.020
   30  0.018  0.001  0.001  0.020
   31  0.018  0.001  0.001  0.020
   32  0.018  0.001  0.001  0.020
   33  0.018  0.001  0.001  0.020
   34  0.018  0.001  0.001  0.020
   35  0.015  0.001  0.001  0.017
   36  0.056  0.000  0.000  0.056
   37  0.004  0.000  0.000  0.005
tot    0.527  0.052  0.018  0.596
 
band     3 # energy   -5.96743598 # occ.  2.00000000
 
ion      s      p      d    tot
    1  0.003  0.000  0.001  0.004
    2  0.004  0.000  0.002  0.006
    3  0.004  0.000  0.002  0.006
    4  0.004  0.000  0.002  0.006
    5  0.015  0.001  0.000  0.016
    6  0.004  0.000  0.002  0.006
    7  0.004  0.000  0.002  0.006
    8  0.004  0.000  0.002  0.006
    9  0.000  0.000  0.002  0.003
   10  0.001  0.002  0.003  0.006
   11  0.005  0.003  0.002  0.009
   12  0.001  0.002  0.003  0.006
   13  0.005  0.003  0.002  0.009
   14  0.005  0.003  0.002  0.009
   15  0.009  0.002  0.002  0.013
   16  0.001  0.002  0.003  0.006
   17  0.009  0.002  0.002  0.013
   18  0.009  0.002  0.002  0.013
   19  0.018  0.000  0.006  0.024
   20  0.011  0.009  0.009  0.029
   21  0.011  0.009  0.009  0.029
   22  0.014  0.004  0.002  0.020
   23  0.011  0.009  0.009  0.029
   24  0.014  0.004  0.002  0.020
   25  0.018  0.000  0.006  0.024
   26  0.018  0.000  0.006  0.024
   27  0.014  0.004  0.002  0.020
   28  0.003  0.001  0.001  0.005
   29  0.001  0.003  0.004  0.007
   30  0.001  0.003  0.004  0.007
   31  0.001  0.003  0.004  0.007
   32  0.001  0.003  0.004  0.007
   33  0.001  0.003  0.004  0.007
   34  0.001  0.003  0.004  0.007
   35  0.004  0.001  0.001  0.006
   36  0.148  0.000  0.076  0.224
   37  0.054  0.002  0.000  0.056
tot    0.425  0.085  0.189  0.699
 
band     4 # energy   -5.81510802 # occ.  2.00000000
 
ion      s      p      d    tot
    1  0.014  0.000  0.004  0.018
    2  0.013  0.000  0.004  0.017
    3  0.013  0.000  0.004  0.017
    4  0.013  0.000  0.004  0.017
    5  0.006  0.000  0.005  0.011
    6  0.013  0.000  0.004  0.017
    7  0.013  0.000  0.004  0.017
    8  0.013  0.000  0.004  0.017
    9  0.022  0.000  0.003  0.025
   10  0.002  0.003  0.002  0.007
   11  0.009  0.005  0.001  0.015
   12  0.002  0.003  0.002  0.007
   13  0.009  0.005  0.001  0.015
   14  0.009  0.005  0.001  0.015
   15  0.000  0.002  0.003  0.005
   16  0.002  0.003  0.002  0.007
   17  0.000  0.002  0.003  0.005
   18  0.000  0.002  0.003  0.005
   19  0.001  0.003  0.005  0.009
   20  0.020  0.004  0.005  0.029
   21  0.020  0.004  0.005  0.029
   22  0.001  0.003  0.004  0.008
   23  0.020  0.004  0.005  0.029
   24  0.001  0.003  0.004  0.008
   25  0.001  0.003  0.005  0.009
   26  0.001  0.003  0.005  0.009
   27  0.001  0.003  0.004  0.008
   28  0.018  0.000  0.005  0.023
   29  0.016  0.000  0.007  0.023
   30  0.016  0.000  0.007  0.023
   31  0.016  0.000  0.007  0.023
   32  0.016  0.000  0.007  0.023
   33  0.016  0.000  0.007  0.023
   34  0.016  0.000  0.007  0.023
   35  0.023  0.000  0.005  0.028
   36  0.003  0.001  0.087  0.091
   37  0.004  0.000  0.000  0.004
tot    0.361  0.063  0.239  0.663
 
band     5 # energy   -5.71443977 # occ.  2.00000000
 
ion      s      p      d    tot
    1  0.000  0.002  0.005  0.007
    2  0.008  0.002  0.002  0.012
    3  0.002  0.001  0.002  0.005
    4  0.008  0.002  0.002  0.012
    5  0.000  0.002  0.003  0.004
    6  0.002  0.001  0.002  0.005
    7  0.002  0.001  0.002  0.005
    8  0.002  0.001  0.002  0.005
    9  0.000  0.000  0.002  0.002
   10  0.055  0.004  0.004  0.063
   11  0.005  0.009  0.003  0.018
   12  0.014  0.003  0.011  0.027
   13  0.005  0.009  0.003  0.018
   14  0.019  0.000  0.006  0.025
   15  0.002  0.003  0.007  0.013
   16  0.014  0.003  0.011  0.027
   17  0.002  0.003  0.007  0.013
   18  0.009  0.003  0.003  0.014
   19  0.008  0.010  0.004  0.022
   20  0.065  0.004  0.006  0.075
   21  0.016  0.002  0.014  0.032
   22  0.001  0.006  0.007  0.013
   23  0.016  0.002  0.014  0.032
   24  0.003  0.002  0.003  0.009
   25  0.034  0.000  0.007  0.041
   26  0.009  0.010  0.004  0.022
   27  0.001  0.006  0.007  0.013
   28  0.000  0.003  0.004  0.007
   29  0.012  0.003  0.004  0.018
   30  0.006  0.002  0.003  0.011
   31  0.012  0.003  0.004  0.018
   32  0.001  0.001  0.003  0.005
   33  0.006  0.002  0.003  0.011
   34  0.001  0.001  0.003  0.005
   35  0.000  0.000  0.003  0.003
   36  0.000  0.005  0.034  0.039
   37  0.000  0.000  0.000  0.000
tot    0.340  0.112  0.202  0.654
 
band     6 # energy   -5.71439046 # occ.  2.00000000
 
ion      s      p      d    tot
    1  0.000  0.002  0.005  0.007
    2  0.000  0.001  0.002  0.002
    3  0.006  0.002  0.002  0.010
    4  0.000  0.001  0.002  0.002
    5  0.000  0.002  0.003  0.004
    6  0.006  0.002  0.002  0.010
    7  0.006  0.002  0.002  0.010
    8  0.006  0.002  0.002  0.010
    9  0.000  0.000  0.002  0.002
   10  0.000  0.002  0.013  0.015
   11  0.014  0.003  0.005  0.023
   12  0.041  0.004  0.006  0.051
   13  0.014  0.003  0.005  0.023
   14  0.000  0.012  0.003  0.015
   15  0.007  0.003  0.004  0.014
   16  0.041  0.004  0.006  0.051
   17  0.007  0.003  0.004  0.014
   18  0.000  0.004  0.009  0.013
   19  0.026  0.004  0.006  0.035
   20  0.000  0.001  0.017  0.018
   21  0.049  0.003  0.008  0.060
   22  0.002  0.003  0.005  0.010
   23  0.049  0.003  0.008  0.061
   24  0.000  0.007  0.008  0.015
   25  0.000  0.013  0.003  0.016
   26  0.026  0.004  0.006  0.035
   27  0.002  0.003  0.005  0.010
   28  0.000  0.003  0.004  0.007
   29  0.001  0.001  0.003  0.005
   30  0.006  0.002  0.004  0.012
   31  0.001  0.001  0.003  0.005
   32  0.012  0.003  0.003  0.018
   33  0.006  0.002  0.004  0.012
   34  0.012  0.003  0.003  0.018
   35  0.000  0.000  0.003  0.003
   36  0.000  0.005  0.034  0.039
   37  0.000  0.000  0.000  0.000
tot    0.340  0.112  0.202  0.654
 
band     7 # energy   -5.67391913 # occ.  2.00000000
 
ion      s      p      d    tot
    1  0.000  0.000  0.002  0.002
    2  0.009  0.002  0.002  0.013
    3  0.003  0.001  0.002  0.005
    4  0.009  0.002  0.002  0.013
    5  0.000  0.001  0.004  0.005
    6  0.002  0.001  0.002  0.005
    7  0.002  0.001  0.002  0.005
    8  0.002  0.001  0.002  0.005
    9  0.000  0.003  0.004  0.007
   10  0.000  0.010  0.003  0.013
   11  0.029  0.004  0.005  0.038
   12  0.000  0.003  0.004  0.008
   13  0.028  0.003  0.006  0.037
   14  0.000  0.000  0.015  0.015
   15  0.036  0.003  0.006  0.045
   16  0.000  0.003  0.004  0.008
   17  0.034  0.004  0.006  0.044
   18  0.000  0.009  0.007  0.016
   19  0.023  0.004  0.005  0.032
   20  0.000  0.014  0.001  0.015
   21  0.004  0.004  0.004  0.013
   22  0.045  0.004  0.006  0.056
   23  0.005  0.004  0.005  0.013
   24  0.000  0.007  0.010  0.017
   25  0.000  0.001  0.016  0.017
   26  0.022  0.003  0.006  0.031
   27  0.048  0.004  0.006  0.058
   28  0.000  0.001  0.005  0.006
   29  0.013  0.003  0.003  0.019
   30  0.005  0.002  0.003  0.010
   31  0.013  0.003  0.003  0.019
   32  0.003  0.001  0.003  0.007
   33  0.004  0.002  0.003  0.010
   34  0.002  0.001  0.003  0.006
   35  0.000  0.004  0.006  0.010
   36  0.000  0.002  0.018  0.020
   37  0.000  0.000  0.000  0.000
tot    0.342  0.116  0.185  0.643
 
band     8 # energy   -5.67388246 # occ.  2.00000000
 
ion      s      p      d    tot
    1  0.000  0.000  0.002  0.002
    2  0.000  0.001  0.002  0.003
    3  0.006  0.002  0.002  0.010
    4  0.000  0.001  0.002  0.003
    5  0.000  0.001  0.004  0.005
    6  0.007  0.002  0.002  0.010
    7  0.007  0.002  0.002  0.011
    8  0.007  0.002  0.002  0.011
    9  0.000  0.003  0.004  0.007
   10  0.000  0.001  0.005  0.006
   11  0.009  0.001  0.012  0.022
   12  0.000  0.008  0.004  0.011
   13  0.010  0.001  0.011  0.023
   14  0.038  0.005  0.002  0.045
   15  0.011  0.007  0.007  0.025
   16  0.000  0.008  0.004  0.012
   17  0.013  0.007  0.007  0.026
   18  0.047  0.002  0.006  0.055
   19  0.007  0.002  0.012  0.021
   20  0.006  0.000  0.006  0.012
   21  0.002  0.011  0.002  0.014
   22  0.017  0.006  0.009  0.031
   23  0.001  0.011  0.002  0.014
   24  0.062  0.003  0.005  0.070
   25  0.030  0.004  0.002  0.037
   26  0.008  0.002  0.012  0.022
   27  0.014  0.006  0.009  0.030
   28  0.000  0.001  0.005  0.006
   29  0.000  0.001  0.003  0.004
   30  0.009  0.002  0.003  0.013
   31  0.000  0.001  0.003  0.005
   32  0.011  0.003  0.003  0.017
   33  0.009  0.002  0.003  0.014
   34  0.011  0.003  0.003  0.017
   35  0.000  0.004  0.006  0.010
   36  0.000  0.002  0.018  0.020
   37  0.000  0.000  0.000  0.000
tot    0.342  0.116  0.185  0.643
 
band     9 # energy   -5.65305329 # occ.  2.00000000
 
ion      s      p      d    tot
    1  0.021  0.003  0.001  0.025
    2  0.000  0.002  0.004  0.006
    3  0.000  0.002  0.004  0.006
    4  0.000  0.002  0.004  0.006
    5  0.001  0.000  0.000  0.002
    6  0.000  0.002  0.004  0.006
    7  0.000  0.002  0.004  0.006
    8  0.000  0.002  0.004  0.006
    9  0.009  0.002  0.000  0.011
   10  0.029  0.005  0.006  0.040
   11  0.005  0.000  0.011  0.016
   12  0.029  0.005  0.006  0.040
   13  0.005  0.000  0.011  0.016
   14  0.005  0.000  0.011  0.016
   15  0.013  0.008  0.003  0.024
   16  0.029  0.005  0.006  0.040
   17  0.013  0.008  0.003  0.024
   18  0.013  0.008  0.003  0.024
   19  0.022  0.009  0.002  0.033
   20  0.000  0.003  0.010  0.012
   21  0.000  0.003  0.010  0.012
   22  0.025  0.003  0.009  0.037
   23  0.000  0.003  0.010  0.012
   24  0.026  0.003  0.009  0.037
   25  0.022  0.009  0.002  0.033
   26  0.022  0.009  0.002  0.033
   27  0.025  0.003  0.009  0.037
   28  0.021  0.003  0.000  0.024
   29  0.000  0.002  0.004  0.006
   30  0.000  0.002  0.004  0.006
   31  0.000  0.002  0.004  0.006
   32  0.000  0.002  0.004  0.006
   33  0.000  0.002  0.004  0.006
   34  0.000  0.002  0.004  0.006
   35  0.013  0.002  0.001  0.017
   36  0.000  0.000  0.000  0.000
   37  0.000  0.000  0.000  0.000
tot    0.348  0.117  0.175  0.639
 
band    10 # energy   -5.28581957 # occ.  2.00000000
 
ion      s      p      d    tot
    1  0.006  0.000  0.000  0.006
    2  0.000  0.003  0.007  0.010
    3  0.000  0.003  0.007  0.010
    4  0.000  0.003  0.007  0.010
    5  0.030  0.005  0.002  0.036
    6  0.000  0.003  0.007  0.010
    7  0.000  0.003  0.007  0.010
    8  0.000  0.003  0.007  0.010
    9  0.016  0.002  0.000  0.019
   10  0.001  0.003  0.009  0.013
   11  0.028  0.007  0.001  0.037
   12  0.001  0.003  0.009  0.013
   13  0.028  0.007  0.001  0.037
   14  0.028  0.007  0.001  0.037
   15  0.014  0.001  0.014  0.029
   16  0.001  0.003  0.009  0.013
   17  0.014  0.001  0.014  0.029
   18  0.014  0.001  0.014  0.029
   19  0.000  0.001  0.001  0.002
   20  0.001  0.003  0.024  0.027
   21  0.001  0.003  0.024  0.027
   22  0.001  0.002  0.007  0.009
   23  0.001  0.003  0.024  0.027
   24  0.001  0.002  0.007  0.009
   25  0.000  0.001  0.001  0.002
   26  0.000  0.001  0.001  0.002
   27  0.001  0.002  0.007  0.009
   28  0.003  0.000  0.001  0.004
   29  0.001  0.000  0.001  0.002
   30  0.001  0.000  0.001  0.002
   31  0.001  0.000  0.001  0.002
   32  0.001  0.000  0.001  0.002
   33  0.001  0.000  0.001  0.002
   34  0.001  0.000  0.001  0.002
   35  0.001  0.000  0.000  0.002
   36  0.025  0.004  0.158  0.187
   37  0.055  0.002  0.000  0.056
tot    0.277  0.081  0.380  0.738
 
band    11 # energy   -4.99852351 # occ.  2.00000000
 
ion      s      p      d    tot
    1  0.000  0.003  0.008  0.011
    2  0.016  0.003  0.004  0.023
    3  0.001  0.001  0.004  0.006
    4  0.016  0.003  0.004  0.023
    5  0.000  0.000  0.008  0.008
    6  0.010  0.003  0.004  0.017
    7  0.001  0.001  0.004  0.006
    8  0.010  0.003  0.004  0.017
    9  0.000  0.005  0.008  0.012
   10  0.000  0.005  0.011  0.016
   11  0.004  0.002  0.008  0.014
   12  0.006  0.002  0.008  0.016
   13  0.004  0.002  0.008  0.014
   14  0.000  0.002  0.014  0.016
   15  0.021  0.003  0.007  0.032
   16  0.006  0.002  0.008  0.016
   17  0.021  0.003  0.007  0.032
   18  0.000  0.001  0.019  0.019
   19  0.005  0.004  0.008  0.018
   20  0.000  0.002  0.019  0.021
   21  0.000  0.001  0.012  0.013
   22  0.005  0.003  0.008  0.017
   23  0.000  0.001  0.012  0.013
   24  0.000  0.001  0.027  0.028
   25  0.000  0.000  0.009  0.009
   26  0.005  0.004  0.008  0.018
   27  0.005  0.003  0.008  0.017
   28  0.000  0.003  0.006  0.009
   29  0.023  0.003  0.010  0.035
   30  0.000  0.002  0.010  0.013
   31  0.023  0.003  0.010  0.035
   32  0.018  0.002  0.010  0.029
   33  0.000  0.002  0.010  0.013
   34  0.018  0.002  0.010  0.029
   35  0.000  0.005  0.007  0.012
   36  0.000  0.000  0.093  0.093
   37  0.000  0.000  0.000  0.000
tot    0.220  0.085  0.416  0.721
 
band    12 # energy   -4.99849749 # occ.  2.00000000
 
ion      s      p      d    tot
    1  0.000  0.003  0.008  0.011
    2  0.002  0.002  0.004  0.008
    3  0.017  0.003  0.004  0.025
    4  0.002  0.002  0.004  0.008
    5  0.000  0.000  0.008  0.008
    6  0.007  0.002  0.004  0.013
    7  0.017  0.003  0.004  0.025
    8  0.007  0.002  0.004  0.013
    9  0.000  0.005  0.008  0.012
   10  0.009  0.000  0.006  0.015
   11  0.001  0.002  0.012  0.016
   12  0.002  0.004  0.010  0.016
   13  0.001  0.002  0.012  0.016
   14  0.006  0.002  0.005  0.013
   15  0.007  0.001  0.015  0.023
   16  0.002  0.004  0.010  0.016
   17  0.007  0.001  0.015  0.023
   18  0.028  0.004  0.004  0.036
   19  0.002  0.002  0.009  0.012
   20  0.000  0.001  0.010  0.011
   21  0.000  0.002  0.017  0.019
   22  0.002  0.002  0.021  0.024
   23  0.000  0.002  0.017  0.018
   24  0.007  0.004  0.002  0.013
   25  0.007  0.006  0.008  0.021
   26  0.002  0.001  0.009  0.012
   27  0.002  0.002  0.021  0.024
   28  0.000  0.003  0.006  0.009
   29  0.004  0.002  0.010  0.016
   30  0.027  0.002  0.010  0.039
   31  0.005  0.002  0.010  0.016
   32  0.010  0.003  0.010  0.022
   33  0.027  0.002  0.010  0.039
   34  0.009  0.003  0.010  0.022
   35  0.000  0.005  0.007  0.012
   36  0.000  0.000  0.093  0.093
   37  0.000  0.000  0.000  0.000
tot    0.220  0.085  0.416  0.721
 
band    13 # energy   -4.96785778 # occ.  2.00000000
 
ion      s      p      d    tot
    1  0.001  0.001  0.010  0.013
    2  0.006  0.001  0.010  0.017
    3  0.006  0.001  0.010  0.017
    4  0.006  0.001  0.010  0.017
    5  0.018  0.000  0.007  0.025
    6  0.006  0.001  0.010  0.017
    7  0.006  0.001  0.010  0.017
    8  0.006  0.001  0.010  0.017
    9  0.005  0.001  0.010  0.016
   10  0.011  0.000  0.022  0.034
   11  0.002  0.000  0.022  0.025
   12  0.011  0.000  0.022  0.034
   13  0.002  0.000  0.022  0.025
   14  0.002  0.000  0.022  0.025
   15  0.010  0.000  0.023  0.032
   16  0.011  0.000  0.022  0.034
   17  0.010  0.000  0.023  0.032
   18  0.010  0.000  0.023  0.032
   19  0.008  0.001  0.017  0.026
   20  0.003  0.000  0.023  0.025
   21  0.003  0.000  0.023  0.025
   22  0.004  0.000  0.015  0.020
   23  0.003  0.000  0.023  0.025
   24  0.004  0.000  0.015  0.020
   25  0.008  0.001  0.017  0.026
   26  0.008  0.001  0.017  0.026
   27  0.004  0.000  0.015  0.020
   28  0.000  0.001  0.005  0.006
   29  0.002  0.001  0.009  0.012
   30  0.002  0.001  0.009  0.012
   31  0.002  0.001  0.009  0.012
   32  0.002  0.001  0.009  0.012
   33  0.002  0.001  0.009  0.012
   34  0.002  0.001  0.009  0.012
   35  0.000  0.001  0.004  0.005
   36  0.023  0.000  0.039  0.062
   37  0.000  0.000  0.000  0.000
tot    0.210  0.021  0.550  0.782
 
band    14 # energy   -4.92284154 # occ.  2.00000000
 
ion      s      p      d    tot
    1  0.000  0.003  0.010  0.013
    2  0.021  0.004  0.006  0.030
    3  0.001  0.002  0.005  0.008
    4  0.021  0.004  0.006  0.030
    5  0.000  0.006  0.010  0.016
    6  0.012  0.003  0.006  0.020
    7  0.001  0.002  0.005  0.008
    8  0.012  0.003  0.006  0.021
    9  0.000  0.001  0.012  0.013
   10  0.021  0.005  0.008  0.034
   11  0.006  0.003  0.020  0.028
   12  0.005  0.001  0.018  0.024
   13  0.005  0.003  0.020  0.028
   14  0.022  0.003  0.005  0.030
   15  0.000  0.003  0.014  0.017
   16  0.005  0.001  0.018  0.025
   17  0.000  0.003  0.014  0.018
   18  0.000  0.000  0.009  0.009
   19  0.001  0.002  0.018  0.020
   20  0.017  0.007  0.003  0.027
   21  0.004  0.002  0.023  0.029
   22  0.001  0.001  0.010  0.012
   23  0.004  0.002  0.022  0.029
   24  0.005  0.003  0.010  0.018
   25  0.002  0.000  0.005  0.008
   26  0.001  0.002  0.018  0.021
   27  0.001  0.001  0.010  0.012
   28  0.000  0.002  0.009  0.011
   29  0.014  0.003  0.006  0.024
   30  0.000  0.001  0.004  0.006
   31  0.014  0.003  0.006  0.023
   32  0.009  0.003  0.006  0.018
   33  0.001  0.001  0.004  0.006
   34  0.010  0.003  0.006  0.018
   35  0.000  0.000  0.008  0.008
   36  0.000  0.009  0.044  0.053
   37  0.000  0.000  0.000  0.000
tot    0.217  0.096  0.402  0.715
 
band    15 # energy   -4.92278664 # occ.  2.00000000
 
ion      s      p      d    tot
    1  0.000  0.003  0.010  0.013
    2  0.002  0.002  0.005  0.009
    3  0.021  0.004  0.006  0.031
    4  0.002  0.002  0.005  0.009
    5  0.000  0.006  0.010  0.016
    6  0.011  0.003  0.005  0.019
    7  0.021  0.004  0.006  0.031
    8  0.011  0.003  0.005  0.019
    9  0.000  0.001  0.012  0.013
   10  0.000  0.000  0.021  0.022
   11  0.016  0.003  0.010  0.029
   12  0.016  0.004  0.011  0.031
   13  0.016  0.003  0.010  0.029
   14  0.000  0.003  0.025  0.027
   15  0.000  0.001  0.011  0.012
   16  0.016  0.004  0.011  0.030
   17  0.000  0.001  0.010  0.012
   18  0.000  0.004  0.016  0.020
   19  0.002  0.001  0.010  0.012
   20  0.000  0.001  0.029  0.030
   21  0.013  0.005  0.009  0.028
   22  0.004  0.002  0.010  0.016
   23  0.013  0.005  0.010  0.028
   24  0.000  0.001  0.010  0.011
   25  0.000  0.002  0.023  0.025
   26  0.002  0.001  0.009  0.012
   27  0.004  0.002  0.010  0.016
   28  0.000  0.002  0.009  0.011
   29  0.002  0.001  0.005  0.008
   30  0.016  0.004  0.006  0.026
   31  0.002  0.001  0.005  0.008
   32  0.007  0.002  0.005  0.014
   33  0.016  0.004  0.006  0.025
   34  0.007  0.002  0.005  0.013
   35  0.000  0.000  0.008  0.008
   36  0.000  0.009  0.044  0.053
   37  0.000  0.000  0.000  0.000
tot    0.217  0.096  0.402  0.715
 
band    16 # energy   -4.88527212 # occ.  2.00000000
 
ion      s      p      d    tot
    1  0.034  0.003  0.000  0.038
    2  0.000  0.003  0.010  0.013
    3  0.000  0.003  0.010  0.013
    4  0.000  0.003  0.010  0.013
    5  0.000  0.000  0.000  0.001
    6  0.000  0.003  0.010  0.013
    7  0.000  0.003  0.010  0.013
    8  0.000  0.003  0.010  0.013
    9  0.030  0.004  0.001  0.034
   10  0.008  0.004  0.011  0.023
   11  0.001  0.000  0.015  0.016
   12  0.008  0.004  0.011  0.023
   13  0.001  0.000  0.015  0.016
   14  0.001  0.000  0.015  0.016
   15  0.007  0.004  0.017  0.028
   16  0.008  0.004  0.011  0.023
   17  0.007  0.004  0.017  0.028
   18  0.007  0.004  0.017  0.028
   19  0.004  0.003  0.019  0.027
   20  0.000  0.000  0.013  0.014
   21  0.000  0.000  0.013  0.014
   22  0.011  0.004  0.010  0.025
   23  0.000  0.000  0.013  0.014
   24  0.011  0.004  0.010  0.025
   25  0.004  0.003  0.019  0.027
   26  0.004  0.003  0.019  0.027
   27  0.011  0.004  0.010  0.025
   28  0.037  0.003  0.000  0.040
   29  0.000  0.003  0.010  0.013
   30  0.000  0.003  0.010  0.013
   31  0.000  0.003  0.010  0.013
   32  0.000  0.003  0.010  0.013
   33  0.000  0.003  0.010  0.013
   34  0.000  0.003  0.010  0.013
   35  0.030  0.004  0.001  0.035
   36  0.000  0.000  0.000  0.000
   37  0.000  0.000  0.000  0.000
tot    0.230  0.094  0.380  0.704
 
band    17 # energy   -4.60539920 # occ.  2.00000000
 
ion      s      p      d    tot
    1  0.012  0.000  0.001  0.013
    2  0.000  0.001  0.007  0.008
    3  0.000  0.001  0.007  0.008
    4  0.000  0.001  0.007  0.008
    5  0.017  0.002  0.001  0.021
    6  0.000  0.001  0.007  0.008
    7  0.000  0.001  0.007  0.008
    8  0.000  0.001  0.007  0.008
    9  0.003  0.000  0.000  0.004
   10  0.000  0.000  0.021  0.022
   11  0.003  0.003  0.018  0.024
   12  0.000  0.000  0.021  0.021
   13  0.003  0.003  0.018  0.024
   14  0.003  0.003  0.018  0.024
   15  0.000  0.000  0.004  0.005
   16  0.000  0.000  0.021  0.021
   17  0.000  0.000  0.004  0.005
   18  0.000  0.000  0.004  0.005
   19  0.001  0.000  0.018  0.019
   20  0.014  0.000  0.003  0.018
   21  0.014  0.000  0.003  0.018
   22  0.000  0.002  0.022  0.024
   23  0.014  0.000  0.003  0.018
   24  0.000  0.002  0.022  0.024
   25  0.001  0.000  0.018  0.019
   26  0.001  0.000  0.018  0.019
   27  0.000  0.002  0.022  0.024
   28  0.005  0.000  0.000  0.006
   29  0.000  0.003  0.015  0.018
   30  0.000  0.003  0.015  0.018
   31  0.000  0.003  0.015  0.018
   32  0.000  0.003  0.015  0.018
   33  0.000  0.003  0.015  0.018
   34  0.000  0.003  0.015  0.018
   35  0.020  0.001  0.001  0.022
   36  0.001  0.020  0.166  0.188
   37  0.048  0.001  0.000  0.049
tot    0.164  0.071  0.561  0.796
 
band    18 # energy   -4.40083557 # occ.  2.00000000
 
ion      s      p      d    tot
    1  0.000  0.001  0.022  0.023
    2  0.015  0.002  0.006  0.023
    3  0.005  0.001  0.006  0.013
    4  0.015  0.002  0.006  0.023
    5  0.000  0.001  0.012  0.012
    6  0.003  0.001  0.006  0.010
    7  0.005  0.001  0.006  0.012
    8  0.002  0.001  0.006  0.010
    9  0.000  0.003  0.004  0.007
   10  0.000  0.000  0.056  0.056
   11  0.000  0.003  0.014  0.017
   12  0.000  0.000  0.018  0.018
   13  0.000  0.003  0.014  0.017
   14  0.000  0.000  0.003  0.003
   15  0.000  0.005  0.014  0.019
   16  0.000  0.000  0.017  0.017
   17  0.000  0.005  0.015  0.020
   18  0.000  0.000  0.027  0.027
   19  0.009  0.002  0.009  0.020
   20  0.000  0.000  0.049  0.049
   21  0.000  0.000  0.022  0.022
   22  0.004  0.001  0.015  0.020
   23  0.000  0.000  0.021  0.021
   24  0.000  0.001  0.005  0.006
   25  0.000  0.000  0.024  0.024
   26  0.009  0.002  0.010  0.020
   27  0.005  0.001  0.015  0.021
   28  0.000  0.000  0.005  0.005
   29  0.005  0.001  0.021  0.026
   30  0.000  0.001  0.015  0.016
   31  0.005  0.001  0.021  0.026
   32  0.006  0.001  0.019  0.025
   33  0.000  0.001  0.015  0.016
   34  0.006  0.001  0.019  0.025
   35  0.000  0.000  0.004  0.004
   36  0.000  0.000  0.145  0.145
   37  0.000  0.000  0.000  0.000
tot    0.094  0.041  0.684  0.819
 
band    19 # energy   -4.40079826 # occ.  2.00000000
 
ion      s      p      d    tot
    1  0.000  0.001  0.022  0.023
    2  0.000  0.001  0.006  0.007
    3  0.010  0.001  0.006  0.017
    4  0.000  0.001  0.006  0.007
    5  0.000  0.001  0.012  0.012
    6  0.013  0.002  0.006  0.020
    7  0.010  0.001  0.006  0.018
    8  0.013  0.002  0.006  0.020
    9  0.000  0.003  0.004  0.007
   10  0.000  0.000  0.005  0.005
   11  0.000  0.001  0.006  0.007
   12  0.000  0.000  0.043  0.043
   13  0.000  0.001  0.007  0.008
   14  0.000  0.004  0.018  0.022
   15  0.000  0.002  0.023  0.025
   16  0.000  0.000  0.044  0.044
   17  0.000  0.002  0.023  0.024
   18  0.000  0.007  0.010  0.017
   19  0.003  0.001  0.020  0.023
   20  0.000  0.000  0.012  0.013
   21  0.000  0.000  0.039  0.040
   22  0.002  0.001  0.009  0.011
   23  0.000  0.000  0.040  0.040
   24  0.006  0.001  0.018  0.025
   25  0.012  0.002  0.005  0.019
   26  0.003  0.001  0.019  0.023
   27  0.001  0.001  0.008  0.011
   28  0.000  0.000  0.005  0.005
   29  0.003  0.001  0.015  0.019
   30  0.007  0.000  0.021  0.029
   31  0.002  0.001  0.015  0.019
   32  0.001  0.001  0.017  0.019
   33  0.007  0.000  0.021  0.029
   34  0.001  0.001  0.018  0.020
   35  0.000  0.000  0.004  0.004
   36  0.000  0.000  0.145  0.145
   37  0.000  0.000  0.000  0.000
tot    0.094  0.041  0.684  0.819
 
band    20 # energy   -4.23816480 # occ.  2.00000000
 
ion      s      p      d    tot
    1  0.018  0.001  0.000  0.019
    2  0.000  0.001  0.014  0.015
    3  0.000  0.001  0.014  0.015
    4  0.000  0.001  0.014  0.015
    5  0.019  0.001  0.002  0.022
    6  0.000  0.001  0.014  0.015
    7  0.000  0.001  0.014  0.015
    8  0.000  0.001  0.014  0.015
    9  0.000  0.000  0.000  0.000
   10  0.000  0.001  0.027  0.028
   11  0.000  0.003  0.027  0.030
   12  0.000  0.001  0.027  0.028
   13  0.000  0.003  0.027  0.030
   14  0.000  0.003  0.027  0.030
   15  0.000  0.001  0.005  0.005
   16  0.000  0.001  0.027  0.028
   17  0.000  0.001  0.005  0.005
   18  0.000  0.001  0.005  0.005
   19  0.002  0.001  0.015  0.019
   20  0.001  0.002  0.025  0.029
   21  0.001  0.002  0.025  0.029
   22  0.000  0.001  0.023  0.024
   23  0.001  0.002  0.025  0.029
   24  0.000  0.001  0.023  0.024
   25  0.002  0.001  0.015  0.019
   26  0.002  0.001  0.015  0.019
   27  0.000  0.001  0.023  0.024
   28  0.006  0.000  0.007  0.013
   29  0.000  0.002  0.026  0.028
   30  0.000  0.002  0.026  0.028
   31  0.000  0.002  0.026  0.028
   32  0.000  0.002  0.026  0.028
   33  0.000  0.002  0.026  0.028
   34  0.000  0.002  0.026  0.028
   35  0.024  0.000  0.002  0.026
   36  0.032  0.000  0.039  0.071
   37  0.000  0.000  0.000  0.000
tot    0.112  0.051  0.653  0.816
 
band    21 # energy   -4.18134495 # occ.  2.00000000
 
ion      s      p      d    tot
    1  0.000  0.002  0.001  0.004
    2  0.015  0.001  0.011  0.027
    3  0.008  0.001  0.010  0.019
    4  0.015  0.001  0.011  0.027
    5  0.000  0.002  0.023  0.025
    6  0.001  0.001  0.010  0.012
    7  0.008  0.001  0.010  0.019
    8  0.001  0.001  0.010  0.012
    9  0.000  0.000  0.033  0.033
   10  0.001  0.007  0.021  0.030
   11  0.000  0.001  0.042  0.043
   12  0.000  0.002  0.013  0.015
   13  0.000  0.001  0.042  0.043
   14  0.001  0.002  0.005  0.008
   15  0.000  0.000  0.033  0.034
   16  0.000  0.002  0.013  0.015
   17  0.000  0.000  0.033  0.034
   18  0.000  0.001  0.014  0.016
   19  0.000  0.000  0.044  0.045
   20  0.001  0.008  0.017  0.026
   21  0.000  0.002  0.015  0.017
   22  0.000  0.001  0.027  0.027
   23  0.000  0.002  0.015  0.017
   24  0.000  0.002  0.016  0.018
   25  0.001  0.001  0.004  0.007
   26  0.000  0.000  0.044  0.045
   27  0.000  0.001  0.026  0.027
   28  0.000  0.001  0.025  0.027
   29  0.011  0.001  0.009  0.021
   30  0.000  0.001  0.009  0.010
   31  0.011  0.001  0.009  0.021
   32  0.009  0.001  0.008  0.019
   33  0.000  0.001  0.009  0.010
   34  0.009  0.001  0.008  0.019
   35  0.000  0.000  0.024  0.024
   36  0.000  0.004  0.005  0.009