 vasp.6.2.0 18Jan21 (build Jun 12 2021 23:27:24) complex                        
  
 executed on             LinuxIFC date 2022.05.26  20:01:38
 running on   28 total cores
 distrk:  each k-point on   28 cores,    1 groups
 distr:  one band on NCORE=   1 cores,   28 groups


--------------------------------------------------------------------------------------------------------


 INCAR:
   ISMEAR = -5
   SIGMA = 0.1
   ISPIN = 1
   EDIFF = 1.d-5
   EDIFFG = -0.01
   NSW = 0
   NELM = 150
   ENCUT = 500
   ISIF = 2
   IBRION = 2
   LREAL = Auto
   ALGO = Fast
   ICHARG = 11
   LORBIT = 10
   LCHARG = .F.
   LWAVE = .F.

 POTCAR:    PAW_PBE Cu 22Jun2005                  
 POTCAR:    PAW_PBE Mo 08Apr2002                  
 POTCAR:    PAW_PBE O 08Apr2002                   
 -----------------------------------------------------------------------------
|                                                                             |
|           W    W    AA    RRRRR   N    N  II  N    N   GGGG   !!!           |
|           W    W   A  A   R    R  NN   N  II  NN   N  G    G  !!!           |
|           W    W  A    A  R    R  N N  N  II  N N  N  G       !!!           |
|           W WW W  AAAAAA  RRRRR   N  N N  II  N  N N  G  GGG   !            |
|           WW  WW  A    A  R   R   N   NN  II  N   NN  G    G                |
|           W    W  A    A  R    R  N    N  II  N    N   GGGG   !!!           |
|                                                                             |
|     For optimal performance we recommend to set                             |
|       NCORE = 2 up to number-of-cores-per-socket                            |
|     NCORE specifies how many cores store one orbital (NPAR=cpu/NCORE).      |
|     This setting can greatly improve the performance of VASP for DFT.       |
|     The default, NCORE=1 might be grossly inefficient on modern             |
|     multi-core architectures or massively parallel machines. Do your        |
|     own testing! More info at https://www.vasp.at/wiki/index.php/NCORE      |
|     Unfortunately you need to use the default for GW and RPA                |
|     calculations (for HF NCORE is supported but not extensively tested      |
|     yet).                                                                   |
|                                                                             |
 -----------------------------------------------------------------------------

 POTCAR:    PAW_PBE Cu 22Jun2005                  
   VRHFIN =Cu: d10 p1                                                                               
   LEXCH  = PE                                                                                      
   EATOM  =  1390.9808 eV,  102.2342 Ry                                                             
                                                                                                    
   TITEL  = PAW_PBE Cu 22Jun2005                                                                    
   LULTRA =        F    use ultrasoft PP ?                                                          
   IUNSCR =        1    unscreen: 0-lin 1-nonlin 2-no                                               
   RPACOR =    2.000    partial core radius                                                         
   POMASS =   63.546; ZVAL   =   11.000    mass and valenz                                          
   RCORE  =    2.300    outmost cutoff radius                                                       
   RWIGS  =    2.200; RWIGS  =    1.164    wigner-seitz radius (au A)                               
   ENMAX  =  295.446; ENMIN  =  221.585 eV                                                          
   ICORE  =        3    local potential                                                             
   LCOR   =        T    correct aug charges                                                         
   LPAW   =        T    paw PP                                                                      
   EAUG   =  586.980                                                                                
   DEXC   =    0.000                                                                                
   RMAX   =    2.344    core radius for proj-oper                                                   
   RAUG   =    1.300    factor for augmentation sphere                                              
   RDEP   =    2.302    radius for radial grids                                                     
   RDEPT  =    1.771    core radius for aug-charge                                                  
                                                                                                    
   Atomic configuration                                                                             
    9 entries                                                                                       
     n  l   j            E        occ.                                                              
     1  0  0.50     -8850.2468   2.0000                                                             
     2  0  0.50     -1062.3498   2.0000                                                             
     2  1  1.50      -916.8226   6.0000                                                             
     3  0  0.50      -114.6929   2.0000                                                             
     3  1  1.50       -72.1325   6.0000                                                             
     3  2  2.50        -5.0394  10.0000                                                             
     4  0  0.50        -4.6097   1.0000                                                             
     4  1  0.50        -4.0817   0.0000                                                             
     4  3  2.50        -1.3606   0.0000                                                             
   Description                                                                                      
     l       E           TYP  RCUT    TYP  RCUT                                                     
     2     -5.0393973     23  2.200                                                                 
     2     10.8846608     23  2.200                                                                 
     0     -4.6097109     23  2.200                                                                 
     0      8.2520465     23  2.200                                                                 
     1     -2.7211652     23  2.200                                                                 
     1     21.7055443     23  2.200                                                                 
     3      2.7211652     23  2.300                                                                 
  local pseudopotential read in
  partial core-charges read in
  partial kinetic energy density read in
  atomic valenz-charges read in
  non local Contribution for L=           2  read in
    real space projection operators read in
  non local Contribution for L=           2  read in
    real space projection operators read in
  non local Contribution for L=           0  read in
    real space projection operators read in
  non local Contribution for L=           0  read in
    real space projection operators read in
  non local Contribution for L=           1  read in
    real space projection operators read in
  non local Contribution for L=           1  read in
    real space projection operators read in
    PAW grid and wavefunctions read in
 
   number of l-projection  operators is LMAX  =           6
   number of lm-projection operators is LMMAX =          18
 
 POTCAR:    PAW_PBE Mo 08Apr2002                  
   VRHFIN =Mo: 4p5s4d                                                                               
   LEXCH  = PE                                                                                      
   EATOM  =   217.5176 eV,   15.9871 Ry                                                             
                                                                                                    
   TITEL  = PAW_PBE Mo 08Apr2002                                                                    
   LULTRA =        F    use ultrasoft PP ?                                                          
   IUNSCR =        1    unscreen: 0-lin 1-nonlin 2-no                                               
   RPACOR =    2.200    partial core radius                                                         
   POMASS =   95.940; ZVAL   =    6.000    mass and valenz                                          
   RCORE  =    2.750    outmost cutoff radius                                                       
   RWIGS  =    2.750; RWIGS  =    1.455    wigner-seitz radius (au A)                               
   ENMAX  =  224.584; ENMIN  =  168.438 eV                                                          
   RCLOC  =    2.111    cutoff for local pot                                                        
   LCOR   =        T    correct aug charges                                                         
   LPAW   =        T    paw PP                                                                      
   EAUG   =  345.278                                                                                
   DEXC   =    0.000                                                                                
   RMAX   =    2.821    core radius for proj-oper                                                   
   RAUG   =    1.300    factor for augmentation sphere                                              
   RDEP   =    2.815    radius for radial grids                                                     
   RDEPT  =    2.211    core radius for aug-charge                                                  
                                                                                                    
   Atomic configuration                                                                             
   12 entries                                                                                       
     n  l   j            E        occ.                                                              
     1  0  0.50    -19819.0341   2.0000                                                             
     2  0  0.50     -2799.0127   2.0000                                                             
     2  1  1.50     -2502.0276   6.0000                                                             
     3  0  0.50      -476.4448   2.0000                                                             
     3  1  1.50      -379.1496   6.0000                                                             
     3  2  2.50      -220.9367  10.0000                                                             
     4  0  0.50       -64.3378   2.0000                                                             
     4  1  1.50       -38.4773   6.0000                                                             
     4  2  2.50        -3.7535   5.0000                                                             
     5  0  0.50        -4.0862   1.0000                                                             
     5  1  0.50        -2.7701   0.0000                                                             
     4  3  2.50        -1.3606   0.0000                                                             
   Description                                                                                      
     l       E           TYP  RCUT    TYP  RCUT                                                     
     2     -3.7534765     23  2.500                                                                 
     2     -5.1140591     23  2.500                                                                 
     0     -4.0861560     23  2.600                                                                 
     0     13.6058260     23  2.600                                                                 
     1      5.4423304     23  2.750                                                                 
     1     27.2116520     23  2.750                                                                 
  local pseudopotential read in
  partial core-charges read in
  partial kinetic energy density read in
  atomic valenz-charges read in
  non local Contribution for L=           2  read in
    real space projection operators read in
  non local Contribution for L=           2  read in
    real space projection operators read in
  non local Contribution for L=           0  read in
    real space projection operators read in
  non local Contribution for L=           0  read in
    real space projection operators read in
  non local Contribution for L=           1  read in
    real space projection operators read in
  non local Contribution for L=           1  read in
    real space projection operators read in
    PAW grid and wavefunctions read in
 
   number of l-projection  operators is LMAX  =           6
   number of lm-projection operators is LMMAX =          18
 
 POTCAR:    PAW_PBE O 08Apr2002                   
   VRHFIN =O: s2p4                                                                                  
   LEXCH  = PE                                                                                      
   EATOM  =   432.3788 eV,   31.7789 Ry                                                             
                                                                                                    
   TITEL  = PAW_PBE O 08Apr2002                                                                     
   LULTRA =        F    use ultrasoft PP ?                                                          
   IUNSCR =        1    unscreen: 0-lin 1-nonlin 2-no                                               
   RPACOR =    1.200    partial core radius                                                         
   POMASS =   16.000; ZVAL   =    6.000    mass and valenz                                          
   RCORE  =    1.520    outmost cutoff radius                                                       
   RWIGS  =    1.550; RWIGS  =    0.820    wigner-seitz radius (au A)                               
   ENMAX  =  400.000; ENMIN  =  300.000 eV                                                          
   ICORE  =        2    local potential                                                             
   LCOR   =        T    correct aug charges                                                         
   LPAW   =        T    paw PP                                                                      
   EAUG   =  605.392                                                                                
   DEXC   =    0.000                                                                                
   RMAX   =    1.553    core radius for proj-oper                                                   
   RAUG   =    1.300    factor for augmentation sphere                                              
   RDEP   =    1.550    radius for radial grids                                                     
   RDEPT  =    1.329    core radius for aug-charge                                                  
                                                                                                    
   Atomic configuration                                                                             
    4 entries                                                                                       
     n  l   j            E        occ.                                                              
     1  0  0.50      -514.6923   2.0000                                                             
     2  0  0.50       -23.9615   2.0000                                                             
     2  1  0.50        -9.0305   4.0000                                                             
     3  2  1.50        -9.5241   0.0000                                                             
   Description                                                                                      
     l       E           TYP  RCUT    TYP  RCUT                                                     
     0    -23.9615318     23  1.200                                                                 
     0     -9.5240782     23  1.200                                                                 
     1     -9.0304911     23  1.520                                                                 
     1      8.1634956     23  1.520                                                                 
     2     -9.5240782      7  1.500                                                                 
  local pseudopotential read in
  partial core-charges read in
  partial kinetic energy density read in
  kinetic energy density of atom read in
  atomic valenz-charges read in
  non local Contribution for L=           0  read in
    real space projection operators read in
  non local Contribution for L=           0  read in
    real space projection operators read in
  non local Contribution for L=           1  read in
    real space projection operators read in
  non local Contribution for L=           1  read in
    real space projection operators read in
    PAW grid and wavefunctions read in
 
   number of l-projection  operators is LMAX  =           4
   number of lm-projection operators is LMMAX =           8
 
 Optimization of the real space projectors (new method)

 maximal supplied QI-value         = 16.25
 optimisation between [QCUT,QGAM] = [ 11.38, 22.75] = [ 36.24,144.96] Ry 
 Optimized for a Real-space Cutoff    1.52 Angstroem

   l    n(q)    QCUT    max X(q) W(low)/X(q) W(high)/X(q)  e(spline) 
   2      9    11.376     4.610    0.21E-03    0.10E-03    0.26E-06
   2      9    11.376     8.522    0.33E-03    0.16E-03    0.37E-06
   0     10    11.376    51.609    0.62E-04    0.20E-04    0.13E-06
   0     10    11.376    27.747    0.54E-04    0.20E-04    0.13E-06
   1     10    11.376    20.408    0.13E-04    0.99E-04    0.19E-06
   1     10    11.376    13.425    0.12E-04    0.87E-04    0.17E-06
 Optimization of the real space projectors (new method)

 maximal supplied QI-value         = 13.61
 optimisation between [QCUT,QGAM] = [ 11.43, 22.86] = [ 36.58,146.31] Ry 
 Optimized for a Real-space Cutoff    1.56 Angstroem

   l    n(q)    QCUT    max X(q) W(low)/X(q) W(high)/X(q)  e(spline) 
   2     10    11.429    80.908    0.27E-03    0.78E-03    0.13E-05
   2     10    11.429    79.000    0.27E-03    0.78E-03    0.13E-05
   0     11    11.429    52.066    0.33E-04    0.97E-04    0.72E-06
   0     11    11.429    24.514    0.27E-04    0.80E-04    0.60E-06
   1     10    11.429    16.033    0.31E-04    0.17E-03    0.36E-06
   1     10    11.429    11.179    0.22E-04    0.13E-03    0.29E-06
 Optimization of the real space projectors (new method)

 maximal supplied QI-value         = 24.76
 optimisation between [QCUT,QGAM] = [ 11.39, 22.77] = [ 36.31,145.25] Ry 
 Optimized for a Real-space Cutoff    1.00 Angstroem

   l    n(q)    QCUT    max X(q) W(low)/X(q) W(high)/X(q)  e(spline) 
   0      7    11.387    20.381    0.39E-03    0.13E-02    0.15E-06
   0      7    11.387    15.268    0.42E-03    0.14E-02    0.17E-06
   1      6    11.387     5.964    0.41E-03    0.11E-02    0.17E-06
   1      6    11.387     5.382    0.39E-03    0.87E-03    0.15E-06
  PAW_PBE Cu 22Jun2005                  :
 energy of atom  1       EATOM=-1390.9808
 kinetic energy error for atom=    0.0043 (will be added to EATOM!!)
  PAW_PBE Mo 08Apr2002                  :
 energy of atom  2       EATOM= -217.5176
 kinetic energy error for atom=    0.0017 (will be added to EATOM!!)
  PAW_PBE O 08Apr2002                   :
 energy of atom  3       EATOM= -432.3788
 kinetic energy error for atom=    0.0224 (will be added to EATOM!!)
 
 
 POSCAR: Cu-Mo-O
  positions in direct lattice
  velocities in cartesian coordinates
 exchange correlation table for  LEXCH =        8
   RHO(1)=    0.500       N(1)  =     2000
   RHO(2)=  100.500       N(2)  =     4000

 VTST: version 3.2, (02/03/18)

 CHAIN: initializing optimizer
 
 OPT: Using VASP Conjugate-Gradient optimizer
 CHAIN: Read ICHAIN            0
 
 POSCAR: Cu-Mo-O
  positions in direct lattice
  velocities in cartesian coordinates
 


--------------------------------------------------------------------------------------------------------


 ion  position               nearest neighbor table
   1  0.000  0.000  0.252-   7 2.57   3 2.57   4 2.57   2 2.57   6 2.57   8 2.57  12 2.57  10 2.57
                            16 2.57
   2  0.333  0.000  0.252-   8 2.57   9 2.57   5 2.57   1 2.57   3 2.57  11 2.57   4 2.57  10 2.57
                            17 2.57
   3  0.667  0.000  0.252-   1 2.57   7 2.57   6 2.57   9 2.57   2 2.57  12 2.57   5 2.57  18 2.57
                            11 2.57
   4  0.000  0.333  0.252-   5 2.57   6 2.57   1 2.57   7 2.57   2 2.57  13 2.57   9 2.57  10 2.57
                            15 2.57
   5  0.333  0.333  0.252-   4 2.57   2 2.57   7 2.57  13 2.57   8 2.57   6 2.57   3 2.57  11 2.57
                            14 2.57
   6  0.667  0.333  0.252-   4 2.57   9 2.57  15 2.57   3 2.57   1 2.57   8 2.57  14 2.57   5 2.57
                            12 2.57
   7  0.000  0.667  0.252-   1 2.57   3 2.57  16 2.57  18 2.57   4 2.57   5 2.57   8 2.57   9 2.57
                            13 2.57
   8  0.333  0.667  0.252-   9 2.57   2 2.57  17 2.57   6 2.57   1 2.57   7 2.57   5 2.57  14 2.57
                            16 2.57
   9  0.667  0.667  0.252-   8 2.57   6 2.57   2 2.57  17 2.57   3 2.57   7 2.57   4 2.57  15 2.57
                            18 2.57
  10  0.111  0.111  0.351-  20 2.55  26 2.56  19 2.56  11 2.57  12 2.57  13 2.57   1 2.57   2 2.57
                             4 2.57  15 2.57  16 2.57  17 2.57
  11  0.444  0.111  0.351-  20 2.56  21 2.56  10 2.57  13 2.57   2 2.57  17 2.57  14 2.57  12 2.57
                             5 2.57   3 2.57  18 2.57  27 2.57
  12  0.778  0.111  0.351-  21 2.55  19 2.56  25 2.56  15 2.57  10 2.57  14 2.57  18 2.57   3 2.57
                             1 2.57  16 2.57  11 2.57   6 2.57
  13  0.111  0.444  0.351-  23 2.56  20 2.56  16 2.57  18 2.57  10 2.57  11 2.57  14 2.57   5 2.57
                             4 2.57   7 2.57  15 2.57  22 2.57
  14  0.444  0.444  0.351-  21 2.56  23 2.56  15 2.57  17 2.57  12 2.57  16 2.57  13 2.57  11 2.57
                             6 2.57   8 2.57   5 2.57  24 2.57
  15  0.778  0.444  0.351-  19 2.56  14 2.57  17 2.57  12 2.57   6 2.57  18 2.57  10 2.57   9 2.57
                            13 2.57   4 2.57  24 2.57  22 2.57
  16  0.111  0.778  0.351-  23 2.55  25 2.56  26 2.56  18 2.57  13 2.57   7 2.57  14 2.57  17 2.57
                            12 2.57  10 2.57   8 2.57   1 2.57
  17  0.444  0.778  0.351-  26 2.56  14 2.57  15 2.57   8 2.57   9 2.57  11 2.57  16 2.57  18 2.57
                            10 2.57   2 2.57  27 2.57  24 2.57
  18  0.778  0.778  0.351-  25 2.56  16 2.57  13 2.57   7 2.57  15 2.57  12 2.57  17 2.57   9 2.57
                             3 2.57  11 2.57  22 2.57  27 2.57
  19  0.889  0.222  0.449-  15 2.56  12 2.56  10 2.56  21 2.56  20 2.56  22 2.57  24 2.57  25 2.57
                            26 2.57  28 2.57  32 2.58  31 2.58
  20  0.222  0.222  0.449-  10 2.55  11 2.56  13 2.56  26 2.56  19 2.56  27 2.57  22 2.57  23 2.57
                            21 2.57  36 2.58  29 2.60  31 2.60
  21  0.556  0.222  0.449-  12 2.55  14 2.56  11 2.56  19 2.56  25 2.56  24 2.57  27 2.57  20 2.57
                            23 2.57  36 2.58  32 2.60  30 2.60
  22  0.888  0.556  0.450-  24 2.56  27 2.56  35 2.56  19 2.57  25 2.57  23 2.57  20 2.57  18 2.57
                            15 2.57  13 2.57  31 2.58  33 2.58
  23  0.222  0.556  0.449-  16 2.55  13 2.56  14 2.56  25 2.56  26 2.56  22 2.57  24 2.57  20 2.57
                            21 2.57  36 2.58  33 2.60  34 2.60
  24  0.556  0.556  0.450-  22 2.56  27 2.56  35 2.56  19 2.57  26 2.57  21 2.57  23 2.57  15 2.57
                            17 2.57  14 2.57  32 2.58  34 2.58
  25  0.889  0.889  0.449-  18 2.56  12 2.56  16 2.56  21 2.56  23 2.56  22 2.57  27 2.57  19 2.57
                            26 2.57  28 2.57  33 2.58  30 2.58
  26  0.222  0.889  0.449-  17 2.56  10 2.56  16 2.56  20 2.56  23 2.56  27 2.57  24 2.57  25 2.57
                            19 2.57  28 2.57  29 2.58  34 2.58
  27  0.556  0.888  0.450-  24 2.56  22 2.56  35 2.56  26 2.57  25 2.57  20 2.57  21 2.57  17 2.57
                            18 2.57  11 2.57  29 2.58  30 2.58
  28  0.000  0.000  0.547-  33 2.56  30 2.56  31 2.56  29 2.56  32 2.56  34 2.56  25 2.57  19 2.57
                            26 2.57
  29  0.333  0.998  0.548-  34 2.54  28 2.56  35 2.56  27 2.58  31 2.58  26 2.58  36 2.58  30 2.58
                            20 2.60
  30  0.669  0.998  0.548-  33 2.54  28 2.56  35 2.56  27 2.58  32 2.58  25 2.58  36 2.58  29 2.58
                            21 2.60
  31  0.998  0.333  0.548-  32 2.54  28 2.56  35 2.56  22 2.58  29 2.58  19 2.58  36 2.58  33 2.58
                            20 2.60
  32  0.669  0.333  0.548-  31 2.54  28 2.56  35 2.56  24 2.58  30 2.58  19 2.58  36 2.58  34 2.58
                            21 2.60
  33  0.998  0.669  0.548-  30 2.54  28 2.56  35 2.56  22 2.58  34 2.58  25 2.58  36 2.58  31 2.58
                            23 2.60
  34  0.333  0.669  0.548-  29 2.54  28 2.56  35 2.56  24 2.58  33 2.58  26 2.58  36 2.58  32 2.58
                            23 2.60
  35  0.667  0.667  0.548-  34 2.56  32 2.56  29 2.56  30 2.56  33 2.56  31 2.56  24 2.56  27 2.56
                            22 2.56
  36  0.333  0.333  0.547-  37 1.74  23 2.58  20 2.58  21 2.58  31 2.58  29 2.58  33 2.58  34 2.58
                            32 2.58  30 2.58
  37  0.333  0.333  0.629-  36 1.74
 
  LATTYP: Found a hexagonal cell.
 ALAT       =     7.6967864036
 C/A-ratio  =     2.7653617908
  
  Lattice vectors:
  
 A1 = (  -3.8483927580,  -6.6656128093,   0.0000000000)
 A2 = (   7.6967864037,   0.0000000000,   0.0000000000)
 A3 = (   0.0000000000,   0.0000000000,  21.2843990326)


Analysis of symmetry for initial positions (statically):
=====================================================================
 Subroutine PRICEL returns:
 Original cell was already a primitive cell.
 

 Routine SETGRP: Setting up the symmetry group for a 
 hexagonal supercell.


 Subroutine GETGRP returns: Found  6 space group operations
 (whereof  6 operations were pure point group operations)
 out of a pool of 24 trial point group operations.


The static configuration has the point symmetry C_3v.


Analysis of symmetry for dynamics (positions and initial velocities):
=====================================================================
 Subroutine PRICEL returns:
 Original cell was already a primitive cell.
 

 Routine SETGRP: Setting up the symmetry group for a 
 hexagonal supercell.


 Subroutine GETGRP returns: Found  6 space group operations
 (whereof  6 operations were pure point group operations)
 out of a pool of 24 trial point group operations.


The dynamic configuration has the point symmetry C_3v.


Analysis of constrained symmetry for selective dynamics:
=====================================================================
 Subroutine PRICEL returns:
 Original cell was already a primitive cell.
 

 Routine SETGRP: Setting up the symmetry group for a 
 hexagonal supercell.


 Subroutine GETGRP returns: Found  6 space group operations
 (whereof  6 operations were pure point group operations)
 out of a pool of 24 trial point group operations.


The constrained configuration has the point symmetry C_3v.


 Subroutine INISYM returns: Found  6 space group operations
 (whereof  6 operations are pure point group operations),
 and found     1 'primitive' translations


----------------------------------------------------------------------------------------

                                     Primitive cell                                     

  volume of cell :    1091.9705

  direct lattice vectors                    reciprocal lattice vectors
     7.696786404  0.000000000  0.000000000     0.129924354 -0.075011849  0.000000000
     3.848392758  6.665612809  0.000000000     0.000000000  0.150023716  0.000000000
     0.000000000  0.000000000 21.284399033     0.000000000  0.000000000  0.046982769

  length of vectors
     7.696786404  7.696786404 21.284399033     0.150023716  0.150023716  0.046982769

  position of ions in fractional coordinates (direct lattice)
     0.000000000  0.000000000  0.252370745
     0.333333343  0.000000000  0.252370745
     0.666666687  0.000000000  0.252370745
     1.000000000  0.333333343  0.252370745
     0.333333313  0.333333343  0.252370745
     0.666666687  0.333333343  0.252370745
     1.000000000  0.666666687  0.252370745
     0.333333373  0.666666687  0.252370745
     0.666666627  0.666666687  0.252370745
     0.111111119  0.111111112  0.350790262
     0.444444418  0.111111112  0.350790262
     0.777777791  0.111111112  0.350790262
     0.111111119  0.444444448  0.350790262
     0.444444478  0.444444448  0.350790262
     0.777777731  0.444444448  0.350790262
     0.111111112  0.777777731  0.350790262
     0.444444478  0.777777731  0.350790262
     0.777777851  0.777777731  0.350790262
     0.888886506  0.222227003  0.448748197
     0.221816565  0.221816550  0.448510760
     0.556366930  0.221816550  0.448510760
     0.888394348  0.555802796  0.449539518
     0.221816535  0.556366870  0.448510760
     0.555802856  0.555802796  0.449539518
     0.888886506  0.888886506  0.448748197
     0.222227018  0.888886506  0.448748197
     0.555802796  0.888394348  0.449539518
     0.000000000  0.000000000  0.547194832
     0.333056894  0.998175094  0.548454016
     0.668768042  0.998175094  0.548454016
     0.998175094  0.333056894  0.548454016
     0.668768042  0.333056894  0.548454016
     0.998175094  0.668768042  0.548454016
     0.333056924  0.668768042  0.548454016
     0.666666627  0.666666687  0.547808983
     0.333333313  0.333333343  0.547344952
     0.333333313  0.333333343  0.629047311

  ion indices of the primitive-cell ions
   primitive index   ion index
                 1           1
                 2           2
                 3           3
                 4           4
                 5           5
                 6           6
                 7           7
                 8           8
                 9           9
                10          10
                11          11
                12          12
                13          13
                14          14
                15          15
                16          16
                17          17
                18          18
                19          19
                20          20
                21          21
                22          22
                23          23
                24          24
                25          25
                26          26
                27          27
                28          28
                29          29
                30          30
                31          31
                32          32
                33          33
                34          34
                35          35
                36          36
                37          37

----------------------------------------------------------------------------------------

 
 
 KPOINTS: Automatic mesh                          

Automatic generation of k-mesh.
 Grid dimensions read from file:
 generate k-points for:    8    8    1

 Generating k-lattice:

  Cartesian coordinates                     Fractional coordinates (reciprocal lattice)
     0.016240544 -0.009376481  0.000000000     0.125000000 -0.000000000  0.000000000
     0.000000000  0.018752964  0.000000000     0.000000000  0.125000000  0.000000000
     0.000000000  0.000000000  0.046982769     0.000000000  0.000000000  1.000000000

  Length of vectors
     0.018752964  0.018752964  0.046982769

  Shift w.r.t. Gamma in fractional coordinates (k-lattice)
     0.000000000  0.000000000  0.000000000

 TETIRR: Found     36 inequivalent tetrahedra from      384
 
 Subroutine IBZKPT returns following result:
 ===========================================
 
 Found     10 irreducible k-points:
 
 Following reciprocal coordinates:
            Coordinates               Weight
  0.000000  0.000000  0.000000      1.000000
  0.125000 -0.000000  0.000000      6.000000
  0.250000 -0.000000  0.000000      6.000000
  0.375000 -0.000000  0.000000      6.000000
  0.500000 -0.000000  0.000000      3.000000
  0.250000  0.125000  0.000000      6.000000
  0.375000  0.125000  0.000000     12.000000
  0.500000  0.125000  0.000000     12.000000
  0.500000  0.250000  0.000000      6.000000
 -0.375000  0.250000  0.000000      6.000000
 
 Following cartesian coordinates:
            Coordinates               Weight
  0.000000  0.000000  0.000000      1.000000
  0.016241 -0.009376  0.000000      6.000000
  0.032481 -0.018753  0.000000      6.000000
  0.048722 -0.028129  0.000000      6.000000
  0.064962 -0.037506  0.000000      3.000000
  0.032481  0.000000  0.000000      6.000000
  0.048722 -0.009376  0.000000     12.000000
  0.064962 -0.018753  0.000000     12.000000
  0.064962  0.000000  0.000000      6.000000
 -0.048722  0.065635  0.000000      6.000000
 


--------------------------------------------------------------------------------------------------------




 Dimension of arrays:
   k-points           NKPTS =     10   k-points in BZ     NKDIM =     10   number of bands    NBANDS=    252
   number of dos      NEDOS =    301   number of ions     NIONS =     37
   non local maximal  LDIM  =      6   non local SUM 2l+1 LMDIM =     18
   total plane-waves  NPLWV = 211680
   max r-space proj   IRMAX =   3157   max aug-charges    IRDMAX=  12644
   dimension x,y,z NGX =    42 NGY =   42 NGZ =  120
   dimension x,y,z NGXF=    84 NGYF=   84 NGZF=  240
   support grid    NGXF=    84 NGYF=   84 NGZF=  240
   ions per type =              35   1   1
   NGX,Y,Z   is equivalent  to a cutoff of   9.07,  9.07,  9.37 a.u.
   NGXF,Y,Z  is equivalent  to a cutoff of  18.14, 18.14, 18.75 a.u.

 SYSTEM =  unknown system                          
 POSCAR =  Cu-Mo-O                                 

 Startparameter for this run:
   NWRITE =      2    write-flag & timer
   PREC   = normal    normal or accurate (medium, high low for compatibility)
   ISTART =      0    job   : 0-new  1-cont  2-samecut
   ICHARG =     11    charge: 1-file 2-atom 10-const
   ISPIN  =      1    spin polarized calculation?
   LNONCOLLINEAR =      F non collinear calculations
   LSORBIT =      F    spin-orbit coupling
   INIWAV =      1    electr: 0-lowe 1-rand  2-diag
   LASPH  =      F    aspherical Exc in radial PAW
   METAGGA=      F    non-selfconsistent MetaGGA calc.

 Electronic Relaxation 1
   ENCUT  =  500.0 eV  36.75 Ry    6.06 a.u.  14.03 14.03 38.81*2*pi/ulx,y,z
   ENINI  =  500.0     initial cutoff
   ENAUG  =  605.4 eV  augmentation charge cutoff
   NELM   =    150;   NELMIN=  2; NELMDL= -5     # of ELM steps 
   EDIFF  = 0.1E-04   stopping-criterion for ELM
   LREAL  =      T    real-space projection
   NLSPLINE    = F    spline interpolate recip. space projectors
   LCOMPAT=      F    compatible to vasp.4.4
   GGA_COMPAT  = T    GGA compatible to vasp.4.4-vasp.4.6
   LMAXPAW     = -100 max onsite density
   LMAXMIX     =    2 max onsite mixed and CHGCAR
   VOSKOWN=      0    Vosko Wilk Nusair interpolation
   ROPT   =   -0.00050  -0.00050  -0.00050
 Ionic relaxation
   EDIFFG = -.1E-01   stopping-criterion for IOM
   NSW    =      0    number of steps for IOM
   NBLOCK =      1;   KBLOCK =      1    inner block; outer block 
   IBRION =     -1    ionic relax: 0-MD 1-quasi-New 2-CG
   NFREE  =      1    steps in history (QN), initial steepest desc. (CG)
   ISIF   =      2    stress and relaxation
   IWAVPR =     10    prediction:  0-non 1-charg 2-wave 3-comb
   ISYM   =      2    0-nonsym 1-usesym 2-fastsym
   LCORR  =      T    Harris-Foulkes like correction to forces

   POTIM  = 0.5000    time-step for ionic-motion
   TEIN   =    0.0    initial temperature
   TEBEG  =    0.0;   TEEND  =   0.0 temperature during run
   SMASS  =  -3.00    Nose mass-parameter (am)
   estimated Nose-frequenzy (Omega)   =  0.10E-29 period in steps = 0.13E+47 mass=  -0.135E-26a.u.
   SCALEE = 1.0000    scale energy and forces
   NPACO  =    256;   APACO  = 16.0  distance and # of slots for P.C.
   PSTRESS=    0.0 pullay stress

  Mass of Ions in am
   POMASS =  63.55 95.94 16.00
  Ionic Valenz
   ZVAL   =  11.00  6.00  6.00
  Atomic Wigner-Seitz radii
   RWIGS  =  -1.00 -1.00 -1.00
  virtual crystal weights 
   VCA    =   1.00  1.00  1.00
   NELECT =     397.0000    total number of electrons
   NUPDOWN=      -1.0000    fix difference up-down

 DOS related values:
   EMIN   =  10.00;   EMAX   =-10.00  energy-range for DOS
   EFERMI =   0.00
   ISMEAR =    -5;   SIGMA  =   0.10  broadening in eV -4-tet -1-fermi 0-gaus

 Electronic relaxation 2 (details)
   IALGO  =     68    algorithm
   LDIAG  =      T    sub-space diagonalisation (order eigenvalues)
   LSUBROT=      F    optimize rotation matrix (better conditioning)
   TURBO    =      0    0=normal 1=particle mesh
   IRESTART =      0    0=no restart 2=restart with 2 vectors
   NREBOOT  =      0    no. of reboots
   NMIN     =      0    reboot dimension
   EREF     =   0.00    reference energy to select bands
   IMIX   =      4    mixing-type and parameters
     AMIX     =   0.40;   BMIX     =  1.00
     AMIX_MAG =   1.60;   BMIX_MAG =  1.00
     AMIN     =   0.10
     WC   =   100.;   INIMIX=   1;  MIXPRE=   1;  MAXMIX= -45

 Intra band minimization:
   WEIMIN = 0.0000     energy-eigenvalue tresh-hold
   EBREAK =  0.99E-08  absolut break condition
   DEPER  =   0.30     relativ break condition  

   TIME   =   0.40     timestep for ELM

  volume/ion in A,a.u.               =      29.51       199.16
  Fermi-wavevector in a.u.,A,eV,Ry     =   1.168426  2.208006 18.574949  1.365220
  Thomas-Fermi vector in A             =   2.304913
 
 Write flags
   LWAVE        =      F    write WAVECAR
   LDOWNSAMPLE  =      F    k-point downsampling of WAVECAR
   LCHARG       =      F    write CHGCAR
   LVTOT        =      F    write LOCPOT, total local potential
   LVHAR        =      F    write LOCPOT, Hartree potential only
   LELF         =      F    write electronic localiz. function (ELF)
   LORBIT       =     10    0 simple, 1 ext, 2 COOP (PROOUT), +10 PAW based schemes


 Dipole corrections
   LMONO  =      F    monopole corrections only (constant potential shift)
   LDIPOL =      F    correct potential (dipole corrections)
   IDIPOL =      0    1-x, 2-y, 3-z, 4-all directions 
   EPSILON=  1.0000000 bulk dielectric constant

 Exchange correlation treatment:
   GGA     =    --    GGA type
   LEXCH   =     8    internal setting for exchange type
   VOSKOWN=      0    Vosko Wilk Nusair interpolation
   LHFCALC =     F    Hartree Fock is set to
   LHFONE  =     F    Hartree Fock one center treatment
   AEXX    =    0.0000 exact exchange contribution

 Linear response parameters
   LEPSILON=     F    determine dielectric tensor
   LRPA    =     F    only Hartree local field effects (RPA)
   LNABLA  =     F    use nabla operator in PAW spheres
   LVEL    =     F    velocity operator in full k-point grid
   LINTERFAST=   F  fast interpolation
   KINTER  =     0    interpolate to denser k-point grid
   CSHIFT  =0.1000    complex shift for real part using Kramers Kronig
   OMEGAMAX=  -1.0    maximum frequency
   DEG_THRESHOLD= 0.2000000E-02 threshold for treating states as degnerate
   RTIME   =   -0.100 relaxation time in fs
  (WPLASMAI=    0.000 imaginary part of plasma frequency in eV, 0.658/RTIME)
   DFIELD  = 0.0000000 0.0000000 0.0000000 field for delta impulse in time
 
 Orbital magnetization related:
   ORBITALMAG=     F  switch on orbital magnetization
   LCHIMAG   =     F  perturbation theory with respect to B field
   DQ        =  0.001000  dq finite difference perturbation B field
   LLRAUG    =     F  two centre corrections for induced B field



--------------------------------------------------------------------------------------------------------


 Static calculation
 charge density and potential remain constant during run
 non-spin polarized calculation
 RMM-DIIS sequential band-by-band and
  variant of blocked Davidson during initial phase
 perform sub-space diagonalisation
    before iterative eigenvector-optimisation
 no mixing
 using additional bands           53
 real space projection scheme for non local part
 use partial core corrections
 calculate Harris-corrections to forces 
   (improved forces if not selfconsistent)
 use gradient corrections 
 WARNING: stress and forces are not correct
  (second derivative of E(xc) not defined)
 use of overlap-Matrix (Vanderbilt PP)
 Fermi weights with tetrahedron method with Bloechl corrections


--------------------------------------------------------------------------------------------------------


  energy-cutoff  :      500.00
  volume of cell :     1091.97
      direct lattice vectors                 reciprocal lattice vectors
     7.696786404  0.000000000  0.000000000     0.129924354 -0.075011849  0.000000000
     3.848392758  6.665612809  0.000000000     0.000000000  0.150023716  0.000000000
     0.000000000  0.000000000 21.284399033     0.000000000  0.000000000  0.046982769

  length of vectors
     7.696786404  7.696786404 21.284399033     0.150023716  0.150023716  0.046982769


 
 k-points in units of 2pi/SCALE and weight: Automatic mesh                          
   0.00000000  0.00000000  0.00000000       0.016
   0.01624054 -0.00937648  0.00000000       0.094
   0.03248109 -0.01875296  0.00000000       0.094
   0.04872163 -0.02812944  0.00000000       0.094
   0.06496218 -0.03750592  0.00000000       0.047
   0.03248109  0.00000000  0.00000000       0.094
   0.04872163 -0.00937648  0.00000000       0.188
   0.06496218 -0.01875296  0.00000000       0.188
   0.06496218  0.00000000  0.00000000       0.094
  -0.04872163  0.06563537  0.00000000       0.094
 
 k-points in reciprocal lattice and weights: Automatic mesh                          
   0.00000000  0.00000000  0.00000000       0.016
   0.12500000 -0.00000000  0.00000000       0.094
   0.25000000 -0.00000000  0.00000000       0.094
   0.37500000 -0.00000000  0.00000000       0.094
   0.50000000 -0.00000000  0.00000000       0.047
   0.25000000  0.12500000  0.00000000       0.094
   0.37500000  0.12500000  0.00000000       0.188
   0.50000000  0.12500000  0.00000000       0.188
   0.50000000  0.25000000  0.00000000       0.094
  -0.37500000  0.25000000  0.00000000       0.094
 
 position of ions in fractional coordinates (direct lattice) 
   0.00000000  0.00000000  0.25237075
   0.33333334  0.00000000  0.25237075
   0.66666669  0.00000000  0.25237075
   0.00000000  0.33333334  0.25237075
   0.33333331  0.33333334  0.25237075
   0.66666669  0.33333334  0.25237075
   0.00000000  0.66666669  0.25237075
   0.33333337  0.66666669  0.25237075
   0.66666663  0.66666669  0.25237075
   0.11111112  0.11111111  0.35079026
   0.44444442  0.11111111  0.35079026
   0.77777779  0.11111111  0.35079026
   0.11111112  0.44444445  0.35079026
   0.44444448  0.44444445  0.35079026
   0.77777773  0.44444445  0.35079026
   0.11111111  0.77777773  0.35079026
   0.44444448  0.77777773  0.35079026
   0.77777785  0.77777773  0.35079026
   0.88888651  0.22222700  0.44874820
   0.22181657  0.22181655  0.44851076
   0.55636693  0.22181655  0.44851076
   0.88839435  0.55580280  0.44953952
   0.22181654  0.55636687  0.44851076
   0.55580286  0.55580280  0.44953952
   0.88888651  0.88888651  0.44874820
   0.22222702  0.88888651  0.44874820
   0.55580280  0.88839435  0.44953952
   0.00000000  0.00000000  0.54719483
   0.33305689  0.99817509  0.54845402
   0.66876804  0.99817509  0.54845402
   0.99817509  0.33305689  0.54845402
   0.66876804  0.33305689  0.54845402
   0.99817509  0.66876804  0.54845402
   0.33305692  0.66876804  0.54845402
   0.66666663  0.66666669  0.54780898
   0.33333331  0.33333334  0.54734495
   0.33333331  0.33333334  0.62904731
 
 position of ions in cartesian coordinates  (Angst):
   0.00000000  0.00000000  5.37155964
   2.56559554  0.00000000  5.37155964
   5.13119109  0.00000000  5.37155964
   1.28279762  2.22187100  5.37155964
   3.84839293  2.22187100  5.37155964
   6.41398872  2.22187100  5.37155964
   2.56559525  4.44374201  5.37155964
   5.13119102  4.44374201  5.37155964
   7.69678588  4.44374201  5.37155964
   1.28279775  0.74062365  7.46635991
   3.84839295  0.74062365  7.46635991
   6.41398873  0.74062365  7.46635991
   2.56559535  2.96249461  7.46635991
   5.13119101  2.96249461  7.46635991
   7.69678586  2.96249461  7.46635991
   3.84839268  5.18436521  7.46635991
   6.41398840  5.18436521  7.46635991
   8.97958418  5.18436521  7.46635991
   7.69678637  1.48127916  9.55133570
   2.56091193  1.47854324  9.54628198
   5.13587463  1.47854324  9.54628198
   8.97672899  3.70476624  9.56817847
   3.84839272  3.70852613  9.54628198
   6.41684332  3.70476624  9.56817847
  10.26235397  5.92497328  9.55133570
   5.13121829  5.92497328  9.55133570
   7.69678578  5.92169275  9.56817847
   0.00000000  0.00000000 11.64671316
   6.40483758  6.65344869 11.67351414
   8.98873458  6.65344869 11.67351414
   8.96447423  2.22002830 11.67351414
   6.42909851  2.22002830 11.67351414
  10.25642258  4.45774883 11.67351414
   5.13715010  4.45774883 11.67351414
   7.69678588  4.44374201 11.65978498
   3.84839293  2.22187100 11.64990836
   3.84839293  2.22187100 13.38889397
 


--------------------------------------------------------------------------------------------------------


 k-point   1 :   0.0000 0.0000 0.0000  plane waves:   27671
 k-point   2 :   0.1250-0.0000 0.0000  plane waves:   27649
 k-point   3 :   0.2500-0.0000 0.0000  plane waves:   27714
 k-point   4 :   0.3750-0.0000 0.0000  plane waves:   27740
 k-point   5 :   0.5000-0.0000 0.0000  plane waves:   27782
 k-point   6 :   0.2500 0.1250 0.0000  plane waves:   27698
 k-point   7 :   0.3750 0.1250 0.0000  plane waves:   27702
 k-point   8 :   0.5000 0.1250 0.0000  plane waves:   27747
 k-point   9 :   0.5000 0.2500 0.0000  plane waves:   27734
 k-point  10 :  -0.3750 0.2500 0.0000  plane waves:   27782

 maximum and minimum number of plane-waves per node :     27782    27649

 maximum number of plane-waves:     27782
 maximum index in each direction: 
   IXMAX=   14   IYMAX=   14   IZMAX=   38
   IXMIN=  -14   IYMIN=  -14   IZMIN=  -38


 serial   3D FFT for wavefunctions
 parallel 3D FFT for charge:
    minimum data exchange during FFTs selected (reduces bandwidth)


 total amount of memory used by VASP MPI-rank0   104733. kBytes
=======================================================================

   base      :      30000. kBytes
   nonlr-proj:      17847. kBytes
   fftplans  :       2916. kBytes
   grid      :      12390. kBytes
   one-center:        575. kBytes
   wavefun   :      41005. kBytes
 
     INWAV:  cpu time    0.0000: real time    0.0000
 initial charge density was supplied:
 number of electron     397.0000149 magnetization 
 keeping initial charge density in first step


--------------------------------------------------------------------------------------------------------


 Maximum index for non-local projection operator         3024
 Maximum index for augmentation-charges          586 (set IRDMAX)


--------------------------------------------------------------------------------------------------------


 First call to EWALD:  gamma=   0.172
 Maximum number of real-space cells 4x 4x 2
 Maximum number of reciprocal cells 2x 2x 5

    FEWALD:  cpu time    0.0013: real time    0.0013


--------------------------------------- Iteration      1(   1)  ---------------------------------------


    POTLOK:  cpu time    0.0264: real time    0.0268
    SETDIJ:  cpu time    0.0043: real time    0.0046
     EDDAV:  cpu time    5.7354: real time    5.7371
 BZINTS: Fermi energy:   13.987934;  397.000000 electrons
         Band energy: 0.258071E+04;  BLOECHL correction:   -0.038446
       DOS:  cpu time    0.0106: real time    0.0107
    --------------------------------------------
      LOOP:  cpu time    5.7768: real time    5.7791

 eigenvalue-minimisations  :  5040
 total energy-change (2. order) : 0.3596718E+04  (-0.1706778E+05)
 number of electron     397.0000149 magnetization 
 augmentation part      397.0000149 magnetization 

 Free energy of the ion-electron system (eV)
  ---------------------------------------------------
  alpha Z        PSCENC =       896.00628866
  Ewald energy   TEWEN  =    145141.19693608
  -Hartree energ DENC   =   -192179.07213492
  -exchange      EXHF   =         0.00000000
  -V(xc)+E(xc)   XCENC  =      1525.16818066
  PAW double counting   =     46654.39277018   -50355.74035201
  entropy T*S    EENTRO =         0.00000000
  eigenvalues    EBANDS =      2580.71445279
  atomic energy  EATOM  =     49334.05140799
  Solvation  Ediel_sol  =         0.00000000
  ---------------------------------------------------
  free energy    TOTEN  =      3596.71754944 eV

  energy without entropy =     3596.71754944  energy(sigma->0) =     3596.71754944


--------------------------------------------------------------------------------------------------------




--------------------------------------- Iteration      1(   2)  ---------------------------------------


     EDDAV:  cpu time    5.7002: real time    5.7107
 BZINTS: Fermi energy:    3.230728;  397.000000 electrons
         Band energy:-0.647950E+03;  BLOECHL correction:   -0.015180
       DOS:  cpu time    0.0103: real time    0.0103
    --------------------------------------------
      LOOP:  cpu time    5.7105: real time    5.7210

 eigenvalue-minimisations  :  5040
 total energy-change (2. order) :-0.3228665E+04  (-0.3095869E+04)
 number of electron     397.0000149 magnetization 
 augmentation part      397.0000149 magnetization 

 Free energy of the ion-electron system (eV)
  ---------------------------------------------------
  alpha Z        PSCENC =       896.00628866
  Ewald energy   TEWEN  =    145141.19693608
  -Hartree energ DENC   =   -192179.07213492
  -exchange      EXHF   =         0.00000000
  -V(xc)+E(xc)   XCENC  =      1525.16818066
  PAW double counting   =     46654.39277018   -50355.74035201
  entropy T*S    EENTRO =         0.00000000
  eigenvalues    EBANDS =      -647.95029711
  atomic energy  EATOM  =     49334.05140799
  Solvation  Ediel_sol  =         0.00000000
  ---------------------------------------------------
  free energy    TOTEN  =       368.05279953 eV

  energy without entropy =      368.05279953  energy(sigma->0) =      368.05279953


--------------------------------------------------------------------------------------------------------




--------------------------------------- Iteration      1(   3)  ---------------------------------------


     EDDAV:  cpu time    6.0157: real time    6.0160
 BZINTS: Fermi energy:    0.331444;  397.000000 electrons
         Band energy:-0.112005E+04;  BLOECHL correction:   -0.050354
       DOS:  cpu time    0.0099: real time    0.0099
    --------------------------------------------
      LOOP:  cpu time    6.0256: real time    6.0259

 eigenvalue-minimisations  :  5376
 total energy-change (2. order) :-0.4720949E+03  (-0.4406862E+03)
 number of electron     397.0000149 magnetization 
 augmentation part      397.0000149 magnetization 

 Free energy of the ion-electron system (eV)
  ---------------------------------------------------
  alpha Z        PSCENC =       896.00628866
  Ewald energy   TEWEN  =    145141.19693608
  -Hartree energ DENC   =   -192179.07213492
  -exchange      EXHF   =         0.00000000
  -V(xc)+E(xc)   XCENC  =      1525.16818066
  PAW double counting   =     46654.39277018   -50355.74035201
  entropy T*S    EENTRO =         0.00000000
  eigenvalues    EBANDS =     -1120.04523172
  atomic energy  EATOM  =     49334.05140799
  Solvation  Ediel_sol  =         0.00000000
  ---------------------------------------------------
  free energy    TOTEN  =      -104.04213508 eV

  energy without entropy =     -104.04213508  energy(sigma->0) =     -104.04213508


--------------------------------------------------------------------------------------------------------




--------------------------------------- Iteration      1(   4)  ---------------------------------------


     EDDAV:  cpu time    8.2610: real time    8.2614
 BZINTS: Fermi energy:    0.042554;  397.000000 electrons
         Band energy:-0.115425E+04;  BLOECHL correction:   -0.029374
       DOS:  cpu time    0.0101: real time    0.0101
    --------------------------------------------
      LOOP:  cpu time    8.2711: real time    8.2715

 eigenvalue-minimisations  :  7840
 total energy-change (2. order) :-0.3420468E+02  (-0.3296564E+02)
 number of electron     397.0000149 magnetization 
 augmentation part      397.0000149 magnetization 

 Free energy of the ion-electron system (eV)
  ---------------------------------------------------
  alpha Z        PSCENC =       896.00628866
  Ewald energy   TEWEN  =    145141.19693608
  -Hartree energ DENC   =   -192179.07213492
  -exchange      EXHF   =         0.00000000
  -V(xc)+E(xc)   XCENC  =      1525.16818066
  PAW double counting   =     46654.39277018   -50355.74035201
  entropy T*S    EENTRO =         0.00000000
  eigenvalues    EBANDS =     -1154.24990931
  atomic energy  EATOM  =     49334.05140799
  Solvation  Ediel_sol  =         0.00000000
  ---------------------------------------------------
  free energy    TOTEN  =      -138.24681266 eV

  energy without entropy =     -138.24681266  energy(sigma->0) =     -138.24681266


--------------------------------------------------------------------------------------------------------




--------------------------------------- Iteration      1(   5)  ---------------------------------------


     EDDAV:  cpu time    6.4970: real time    6.4973
 BZINTS: Fermi energy:    0.033221;  397.000000 electrons
         Band energy:-0.115490E+04;  BLOECHL correction:   -0.030108
       DOS:  cpu time    0.0103: real time    0.0103
    --------------------------------------------
      LOOP:  cpu time    6.5074: real time    6.5077

 eigenvalue-minimisations  :  5908
 total energy-change (2. order) :-0.6456014E+00  (-0.6416951E+00)
 number of electron     397.0000149 magnetization 
 augmentation part      397.0000149 magnetization 

 Free energy of the ion-electron system (eV)
  ---------------------------------------------------
  alpha Z        PSCENC =       896.00628866
  Ewald energy   TEWEN  =    145141.19693608
  -Hartree energ DENC   =   -192179.07213492
  -exchange      EXHF   =         0.00000000
  -V(xc)+E(xc)   XCENC  =      1525.16818066
  PAW double counting   =     46654.39277018   -50355.74035201
  entropy T*S    EENTRO =         0.00000000
  eigenvalues    EBANDS =     -1154.89551071
  atomic energy  EATOM  =     49334.05140799
  Solvation  Ediel_sol  =         0.00000000
  ---------------------------------------------------
  free energy    TOTEN  =      -138.89241407 eV

  energy without entropy =     -138.89241407  energy(sigma->0) =     -138.89241407


--------------------------------------------------------------------------------------------------------




--------------------------------------- Iteration      1(   6)  ---------------------------------------


    EDDIAG:  cpu time    1.0615: real time    1.0619
  RMM-DIIS:  cpu time    3.1212: real time    3.1213
    ORTHCH:  cpu time    0.2069: real time    0.2069
 BZINTS: Fermi energy:    0.033179;  397.000000 electrons
         Band energy:-0.115490E+04;  BLOECHL correction:   -0.030107
       DOS:  cpu time    0.0102: real time    0.0102
    --------------------------------------------
      LOOP:  cpu time    4.3998: real time    4.4003

 eigenvalue-minimisations  :  5436
 total energy-change (2. order) :-0.9446945E-02  (-0.9448157E-02)
 number of electron     397.0000149 magnetization 
 augmentation part      397.0000149 magnetization 

 Free energy of the ion-electron system (eV)
  ---------------------------------------------------
  alpha Z        PSCENC =       896.00628866
  Ewald energy   TEWEN  =    145141.19693608
  -Hartree energ DENC   =   -192179.07213492
  -exchange      EXHF   =         0.00000000
  -V(xc)+E(xc)   XCENC  =      1525.16818066
  PAW double counting   =     46654.39277018   -50355.74035201
  entropy T*S    EENTRO =         0.00000000
  eigenvalues    EBANDS =     -1154.90495765
  atomic energy  EATOM  =     49334.05140799
  Solvation  Ediel_sol  =         0.00000000
  ---------------------------------------------------
  free energy    TOTEN  =      -138.90186101 eV

  energy without entropy =     -138.90186101  energy(sigma->0) =     -138.90186101


--------------------------------------------------------------------------------------------------------




--------------------------------------- Iteration      1(   7)  ---------------------------------------


    EDDIAG:  cpu time    1.0603: real time    1.0605
  RMM-DIIS:  cpu time    4.3506: real time    4.3508
    ORTHCH:  cpu time    0.2073: real time    0.2073
 BZINTS: Fermi energy:    0.033167;  397.000000 electrons
         Band energy:-0.115491E+04;  BLOECHL correction:   -0.030106
       DOS:  cpu time    0.0096: real time    0.0096
    --------------------------------------------
      LOOP:  cpu time    5.6278: real time    5.6282

 eigenvalue-minimisations  :  7651
 total energy-change (2. order) :-0.4069309E-02  (-0.3981220E-02)
 number of electron     397.0000149 magnetization 
 augmentation part      397.0000149 magnetization 

 Free energy of the ion-electron system (eV)
  ---------------------------------------------------
  alpha Z        PSCENC =       896.00628866
  Ewald energy   TEWEN  =    145141.19693608
  -Hartree energ DENC   =   -192179.07213492
  -exchange      EXHF   =         0.00000000
  -V(xc)+E(xc)   XCENC  =      1525.16818066
  PAW double counting   =     46654.39277018   -50355.74035201
  entropy T*S    EENTRO =         0.00000000
  eigenvalues    EBANDS =     -1154.90902696
  atomic energy  EATOM  =     49334.05140799
  Solvation  Ediel_sol  =         0.00000000
  ---------------------------------------------------
  free energy    TOTEN  =      -138.90593032 eV

  energy without entropy =     -138.90593032  energy(sigma->0) =     -138.90593032


--------------------------------------------------------------------------------------------------------




--------------------------------------- Iteration      1(   8)  ---------------------------------------


    EDDIAG:  cpu time    1.0605: real time    1.0608
  RMM-DIIS:  cpu time    3.4385: real time    3.4386
    ORTHCH:  cpu time    0.2074: real time    0.2074
 BZINTS: Fermi energy:    0.033164;  397.000000 electrons
         Band energy:-0.115491E+04;  BLOECHL correction:   -0.030106
       DOS:  cpu time    0.0103: real time    0.0103
    --------------------------------------------
      LOOP:  cpu time    4.7168: real time    4.7171

 eigenvalue-minimisations  :  6020
 total energy-change (2. order) :-0.2033544E-03  (-0.2038683E-03)
 number of electron     397.0000149 magnetization 
 augmentation part      397.0000149 magnetization 

 Free energy of the ion-electron system (eV)
  ---------------------------------------------------
  alpha Z        PSCENC =       896.00628866
  Ewald energy   TEWEN  =    145141.19693608
  -Hartree energ DENC   =   -192179.07213492
  -exchange      EXHF   =         0.00000000
  -V(xc)+E(xc)   XCENC  =      1525.16818066
  PAW double counting   =     46654.39277018   -50355.74035201
  entropy T*S    EENTRO =         0.00000000
  eigenvalues    EBANDS =     -1154.90923032
  atomic energy  EATOM  =     49334.05140799
  Solvation  Ediel_sol  =         0.00000000
  ---------------------------------------------------
  free energy    TOTEN  =      -138.90613367 eV

  energy without entropy =     -138.90613367  energy(sigma->0) =     -138.90613367


--------------------------------------------------------------------------------------------------------




--------------------------------------- Iteration      1(   9)  ---------------------------------------


    EDDIAG:  cpu time    1.0628: real time    1.0629
  RMM-DIIS:  cpu time    4.2138: real time    4.2140
    ORTHCH:  cpu time    0.2066: real time    0.2066
 BZINTS: Fermi energy:    0.033164;  397.000000 electrons
         Band energy:-0.115491E+04;  BLOECHL correction:   -0.030106
       DOS:  cpu time    0.0103: real time    0.0103
    --------------------------------------------
      LOOP:  cpu time    5.4935: real time    5.4938

 eigenvalue-minimisations  :  7240
 total energy-change (2. order) :-0.5122091E-04  (-0.5100899E-04)
 number of electron     397.0000149 magnetization 
 augmentation part      397.0000149 magnetization 

 Free energy of the ion-electron system (eV)
  ---------------------------------------------------
  alpha Z        PSCENC =       896.00628866
  Ewald energy   TEWEN  =    145141.19693608
  -Hartree energ DENC   =   -192179.07213492
  -exchange      EXHF   =         0.00000000
  -V(xc)+E(xc)   XCENC  =      1525.16818066
  PAW double counting   =     46654.39277018   -50355.74035201
  entropy T*S    EENTRO =         0.00000000
  eigenvalues    EBANDS =     -1154.90928154
  atomic energy  EATOM  =     49334.05140799
  Solvation  Ediel_sol  =         0.00000000
  ---------------------------------------------------
  free energy    TOTEN  =      -138.90618490 eV

  energy without entropy =     -138.90618490  energy(sigma->0) =     -138.90618490


--------------------------------------------------------------------------------------------------------




--------------------------------------- Iteration      1(  10)  ---------------------------------------


    EDDIAG:  cpu time    1.0607: real time    1.0611
  RMM-DIIS:  cpu time    2.5137: real time    2.5138
    ORTHCH:  cpu time    0.2072: real time    0.2072
 BZINTS: Fermi energy:    0.033164;  397.000000 electrons
         Band energy:-0.115491E+04;  BLOECHL correction:   -0.030106
       DOS:  cpu time    0.0097: real time    0.0097
    --------------------------------------------
      LOOP:  cpu time    3.7914: real time    3.7918

 eigenvalue-minimisations  :  3876
 total energy-change (2. order) :-0.1931214E-05  (-0.1921925E-05)
 number of electron     397.0000149 magnetization 
 augmentation part      397.0000149 magnetization 

 Free energy of the ion-electron system (eV)
  ---------------------------------------------------
  alpha Z        PSCENC =       896.00628866
  Ewald energy   TEWEN  =    145141.19693608
  -Hartree energ DENC   =   -192179.07213492
  -exchange      EXHF   =         0.00000000
  -V(xc)+E(xc)   XCENC  =      1525.16818066
  PAW double counting   =     46654.39277018   -50355.74035201
  entropy T*S    EENTRO =         0.00000000
  eigenvalues    EBANDS =     -1154.90928347
  atomic energy  EATOM  =     49334.05140799
  Solvation  Ediel_sol  =         0.00000000
  ---------------------------------------------------
  free energy    TOTEN  =      -138.90618683 eV

  energy without entropy =     -138.90618683  energy(sigma->0) =     -138.90618683


--------------------------------------------------------------------------------------------------------




 average (electrostatic) potential at core
  the test charge radii are     0.9430  1.2296  0.7215
  (the norm of the test charge is              1.0000)
       1 -70.9310       2 -70.9386       3 -70.9385       4 -70.9386       5 -70.9376
       6 -70.9383       7 -70.9385       8 -70.9383       9 -70.9428      10 -71.2132
      11 -71.1937      12 -71.2130      13 -71.1937      14 -71.1934      15 -71.1974
      16 -71.2130      17 -71.1974      18 -71.1973      19 -71.1825      20 -71.4228
      21 -71.4226      22 -71.1914      23 -71.4226      24 -71.1914      25 -71.1823
      26 -71.1825      27 -71.1914      28 -70.9560      29 -71.0683      30 -71.0682
      31 -71.0683      32 -71.0681      33 -71.0682      34 -71.0681      35 -70.9383
      36 -43.8616      37 -76.3475
 
 
 
 E-fermi :   0.0332     XC(G=0):  -5.9411     alpha+bet : -5.3541

 Fermi energy:         0.0331640897

 k-point     1 :       0.0000    0.0000    0.0000
  band No.  band energies     occupation 
      1     -18.1761      2.00000
      2      -8.7707      2.00000
      3      -7.4678      2.00000
      4      -5.9736      2.00000
      5      -5.8347      2.00000
      6      -5.8346      2.00000
      7      -5.7739      2.00000
      8      -5.7738      2.00000
      9      -5.7683      2.00000
     10      -5.7202      2.00000
     11      -5.2109      2.00000
     12      -5.0817      2.00000
     13      -5.0817      2.00000
     14      -5.0466      2.00000
     15      -5.0465      2.00000
     16      -5.0089      2.00000
     17      -4.9238      2.00000
     18      -4.6715      2.00000
     19      -4.6715      2.00000
     20      -4.6198      2.00000
     21      -4.4321      2.00000
     22      -4.4321      2.00000
     23      -4.3169      2.00000
     24      -4.3034      2.00000
     25      -4.3033      2.00000
     26      -4.2515      2.00000
     27      -4.0545      2.00000
     28      -4.0544      2.00000
     29      -4.0190      2.00000
     30      -4.0190      2.00000
     31      -4.0142      2.00000
     32      -3.9879      2.00000
     33      -3.8961      2.00000
     34      -3.8960      2.00000
     35      -3.8567      2.00000
     36      -3.8567      2.00000
     37      -3.8536      2.00000
     38      -3.8421      2.00000
     39      -3.8258      2.00000
     40      -3.8258      2.00000
     41      -3.8180      2.00000
     42      -3.7773      2.00000
     43      -3.7773      2.00000
     44      -3.7531      2.00000
     45      -3.7204      2.00000
     46      -3.7204      2.00000
     47      -3.6892      2.00000
     48      -3.6892      2.00000
     49      -3.5876      2.00000
     50      -3.5666      2.00000
     51      -3.5386      2.00000
     52      -3.5282      2.00000
     53      -3.5282      2.00000
     54      -3.4990      2.00000
     55      -3.4650      2.00000
     56      -3.4650      2.00000
     57      -3.4567      2.00000
     58      -3.4130      2.00000
     59      -3.1870      2.00000
     60      -3.1798      2.00000
     61      -3.1798      2.00000
     62      -3.1707      2.00000
     63      -3.1390      2.00000
     64      -3.1390      2.00000
     65      -3.1095      2.00000
     66      -3.0795      2.00000
     67      -3.0795      2.00000
     68      -3.0674      2.00000
     69      -3.0674      2.00000
     70      -3.0308      2.00000
     71      -3.0308      2.00000
     72      -3.0105      2.00000
     73      -3.0105      2.00000
     74      -3.0052      2.00000
     75      -2.9832      2.00000
     76      -2.9399      2.00000
     77      -2.9399      2.00000
     78      -2.9189      2.00000
     79      -2.8768      2.00000
     80      -2.8768      2.00000
     81      -2.8439      2.00000
     82      -2.8439      2.00000
     83      -2.8294      2.00000
     84      -2.8154      2.00000
     85      -2.8154      2.00000
     86      -2.7837      2.00000
     87      -2.7730      2.00000
     88      -2.7730      2.00000
     89      -2.7665      2.00000
     90      -2.7529      2.00000
     91      -2.7528      2.00000
     92      -2.7060      2.00000
     93      -2.7059      2.00000
     94      -2.6968      2.00000
     95      -2.6926      2.00000
     96      -2.6926      2.00000
     97      -2.6591      2.00000
     98      -2.6591      2.00000
     99      -2.6482      2.00000
    100      -2.6255      2.00000
    101      -2.6255      2.00000
    102      -2.6068      2.00000
    103      -2.6068      2.00000
    104      -2.5894      2.00000
    105      -2.5820      2.00000
    106      -2.5820      2.00000
    107      -2.5689      2.00000
    108      -2.5689      2.00000
    109      -2.4810      2.00000
    110      -2.4804      2.00000
    111      -2.4804      2.00000
    112      -2.3606      2.00000
    113      -2.3394      2.00000
    114      -2.3277      2.00000
    115      -2.3276      2.00000
    116      -2.3222      2.00000
    117      -2.3222      2.00000
    118      -2.3138      2.00000
    119      -2.3013      2.00000
    120      -2.3013      2.00000
    121      -2.2869      2.00000
    122      -2.2814      2.00000
    123      -2.2545      2.00000
    124      -2.2400      2.00000
    125      -2.2400      2.00000
    126      -2.1446      2.00000
    127      -2.1446      2.00000
    128      -2.1363      2.00000
    129      -2.1363      2.00000
    130      -2.1180      2.00000
    131      -2.1179      2.00000
    132      -2.1046      2.00000
    133      -2.0681      2.00000
    134      -2.0681      2.00000
    135      -2.0493      2.00000
    136      -2.0209      2.00000
    137      -2.0209      2.00000
    138      -2.0171      2.00000
    139      -2.0070      2.00000
    140      -2.0070      2.00000
    141      -2.0055      2.00000
    142      -1.9818      2.00000
    143      -1.9817      2.00000
    144      -1.9429      2.00000
    145      -1.9429      2.00000
    146      -1.9051      2.00000
    147      -1.9051      2.00000
    148      -1.8830      2.00000
    149      -1.8782      2.00000
    150      -1.8595      2.00000
    151      -1.8595      2.00000
    152      -1.8576      2.00000
    153      -1.8414      2.00000
    154      -1.8414      2.00000
    155      -1.8219      2.00000
    156      -1.8218      2.00000
    157      -1.8213      2.00000
    158      -1.7960      2.00000
    159      -1.7779      2.00000
    160      -1.7640      2.00000
    161      -1.7534      2.00000
    162      -1.7422      2.00000
    163      -1.7422      2.00000
    164      -1.7301      2.00000
    165      -1.7301      2.00000
    166      -1.7153      2.00000
    167      -1.7132      2.00000
    168      -1.7119      2.00000
    169      -1.7119      2.00000
    170      -1.6852      2.00000
    171      -1.6852      2.00000
    172      -1.6667      2.00000
    173      -1.6667      2.00000
    174      -1.6501      2.00000
    175      -1.6501      2.00000
    176      -1.6479      2.00000
    177      -1.6427      2.00000
    178      -1.6377      2.00000
    179      -1.6377      2.00000
    180      -1.6351      2.00000
    181      -1.6331      2.00000
    182      -1.6321      2.00000
    183      -1.6321      2.00000
    184      -1.6241      2.00000
    185      -1.6241      2.00000
    186      -1.6221      2.00000
    187      -1.5693      2.00000
    188      -1.5692      2.00000
    189      -1.5367      2.00000
    190      -1.5327      2.00000
    191      -1.5327      2.00000
    192      -1.5199      2.00000
    193      -1.5171      2.00000
    194      -1.5171      2.00000
    195      -1.0852      2.00000
    196      -0.4977      2.00000
    197      -0.4257      2.00000
    198      -0.4257      2.00000
    199      -0.3139      2.00000
    200      -0.2243      2.00000
    201      -0.2243      2.00000
    202      -0.0630      2.19789
    203       0.0944      0.00000
    204       0.0944      0.00000
    205       1.1783      0.00000
    206       1.1784      0.00000
    207       1.4759      0.00000
    208       1.9907      0.00000
    209       1.9908      0.00000
    210       2.0047      0.00000
    211       2.3710      0.00000
    212       2.3711      0.00000
    213       3.4007      0.00000
    214       3.4870      0.00000
    215       3.7111      0.00000
    216       3.7111      0.00000
    217       3.9346      0.00000
    218       3.9346      0.00000
    219       4.0533      0.00000
    220       4.4928      0.00000
    221       4.4929      0.00000
    222       4.5135      0.00000
    223       4.5419      0.00000
    224       4.5725      0.00000
    225       4.5725      0.00000
    226       4.8165      0.00000
    227       4.8165      0.00000
    228       4.8994      0.00000
    229       5.1398      0.00000
    230       5.1499      0.00000
    231       5.1499      0.00000
    232       5.4043      0.00000
    233       5.9859      0.00000
    234       6.2283      0.00000
    235       6.3604      0.00000
    236       6.3604      0.00000
    237       6.4936      0.00000
    238       6.6322      0.00000
    239       6.6323      0.00000
    240       6.9168      0.00000
    241       6.9168      0.00000
    242       6.9420      0.00000
    243       7.0480      0.00000
    244       7.0484      0.00000
    245       7.0758      0.00000
    246       7.3879      0.00000
    247       7.5293      0.00000
    248       7.5573      0.00000
    249       7.5612      0.00000
    250       7.6323      0.00000
    251       7.6357      0.00000
    252       7.7325      0.00000

 k-point     2 :       0.1250   -0.0000    0.0000
  band No.  band energies     occupation 
      1     -18.1761      2.00000
      2      -8.7155      2.00000
      3      -7.4145      2.00000
      4      -6.3540      2.00000
      5      -6.0449      2.00000
      6      -6.0431      2.00000
      7      -5.8560      2.00000
      8      -5.5235      2.00000
      9      -5.5017      2.00000
     10      -5.3703      2.00000
     11      -5.3314      2.00000
     12      -5.1997      2.00000
     13      -5.1779      2.00000
     14      -5.0658      2.00000
     15      -4.9360      2.00000
     16      -4.8658      2.00000
     17      -4.8426      2.00000
     18      -4.7120      2.00000
     19      -4.6573      2.00000
     20      -4.5549      2.00000
     21      -4.4437      2.00000
     22      -4.4145      2.00000
     23      -4.3279      2.00000
     24      -4.2976      2.00000
     25      -4.2912      2.00000
     26      -4.2394      2.00000
     27      -4.0918      2.00000
     28      -4.0583      2.00000
     29      -4.0280      2.00000
     30      -3.9983      2.00000
     31      -3.9932      2.00000
     32      -3.9801      2.00000
     33      -3.9601      2.00000
     34      -3.9575      2.00000
     35      -3.9301      2.00000
     36      -3.9216      2.00000
     37      -3.8938      2.00000
     38      -3.8711      2.00000
     39      -3.8206      2.00000
     40      -3.8200      2.00000
     41      -3.8011      2.00000
     42      -3.7584      2.00000
     43      -3.7398      2.00000
     44      -3.7220      2.00000
     45      -3.7092      2.00000
     46      -3.6948      2.00000
     47      -3.6454      2.00000
     48      -3.6399      2.00000
     49      -3.5982      2.00000
     50      -3.5855      2.00000
     51      -3.5697      2.00000
     52      -3.5441      2.00000
     53      -3.5405      2.00000
     54      -3.4668      2.00000
     55      -3.4491      2.00000
     56      -3.4321      2.00000
     57      -3.4178      2.00000
     58      -3.3992      2.00000
     59      -3.2632      2.00000
     60      -3.2324      2.00000
     61      -3.2252      2.00000
     62      -3.1812      2.00000
     63      -3.1533      2.00000
     64      -3.1340      2.00000
     65      -3.1089      2.00000
     66      -3.1075      2.00000
     67      -3.0939      2.00000
     68      -3.0727      2.00000
     69      -3.0720      2.00000
     70      -3.0447      2.00000
     71      -3.0318      2.00000
     72      -3.0158      2.00000
     73      -3.0024      2.00000
     74      -2.9984      2.00000
     75      -2.9725      2.00000
     76      -2.9455      2.00000
     77      -2.9267      2.00000
     78      -2.9230      2.00000
     79      -2.8678      2.00000
     80      -2.8674      2.00000
     81      -2.8549      2.00000
     82      -2.8472      2.00000
     83      -2.8279      2.00000
     84      -2.8073      2.00000
     85      -2.8069      2.00000
     86      -2.7872      2.00000
     87      -2.7813      2.00000
     88      -2.7698      2.00000
     89      -2.7677      2.00000
     90      -2.7609      2.00000
     91      -2.7600      2.00000
     92      -2.7264      2.00000
     93      -2.7150      2.00000
     94      -2.6961      2.00000
     95      -2.6889      2.00000
     96      -2.6750      2.00000
     97      -2.6705      2.00000
     98      -2.6603      2.00000
     99      -2.6565      2.00000
    100      -2.6122      2.00000
    101      -2.5995      2.00000
    102      -2.5972      2.00000
    103      -2.5920      2.00000
    104      -2.5892      2.00000
    105      -2.5871      2.00000
    106      -2.5855      2.00000
    107      -2.5574      2.00000
    108      -2.5564      2.00000
    109      -2.5369      2.00000
    110      -2.5062      2.00000
    111      -2.4913      2.00000
    112      -2.4725      2.00000
    113      -2.4374      2.00000
    114      -2.4242      2.00000
    115      -2.3929      2.00000
    116      -2.3704      2.00000
    117      -2.3368      2.00000
    118      -2.3336      2.00000
    119      -2.3240      2.00000
    120      -2.3069      2.00000
    121      -2.2993      2.00000
    122      -2.2969      2.00000
    123      -2.2860      2.00000
    124      -2.2819      2.00000
    125      -2.2359      2.00000
    126      -2.2046      2.00000
    127      -2.1862      2.00000
    128      -2.1489      2.00000
    129      -2.1431      2.00000
    130      -2.1328      2.00000
    131      -2.1030      2.00000
    132      -2.0965      2.00000
    133      -2.0947      2.00000
    134      -2.0791      2.00000
    135      -2.0560      2.00000
    136      -2.0538      2.00000
    137      -2.0534      2.00000
    138      -2.0387      2.00000
[...]
  0.000   0.000   0.000   0.000   0.000   0.000   0.000   0.000   0.000   0.000   0.000   0.000   0.000   0.000   0.000   0.000
  0.000   0.000   0.000   0.000   0.000   0.000   0.000   0.000   0.000   0.000   0.000   0.000   0.000   0.000   0.000   0.000
  0.000   0.000   0.000   0.000   0.000   0.000   0.000   0.000   0.000   0.000   0.000   0.000   0.000   0.000   0.000   0.000
  0.000   0.000   0.000   0.000   0.000   0.000   0.000   0.000   0.000   0.000   0.000   0.000   0.000   0.000   0.000   0.000
  0.000   0.000   0.000   0.000   0.000   0.000   0.000   0.000   0.000   0.000   0.000   0.000   0.000   0.000   0.000   0.000
  0.000   0.000   0.000   0.000   0.000   0.000   0.000   0.000   0.000   0.000   1.000   0.000   0.000   0.000   0.000   0.000
  0.000   0.000   0.000   0.000   0.000   0.000   0.000   0.000   0.000   0.000   0.000   0.000   0.000   0.000   0.000   0.000
  0.000   0.000   0.000   0.000   0.000   0.000   0.000   0.000   0.000   0.000   0.000   0.000   0.000   0.000   0.000   0.000
  0.000   0.000   0.000   0.000   0.000   0.000   0.000   0.000   0.000   0.000   0.000   0.000   0.000   0.000   0.000   0.000
  0.000   0.000   0.000   0.000   0.000   0.000   0.000   0.000   0.000   0.000   0.000   0.000   0.000   0.000   0.000   0.000
  0.000   0.000   0.000   0.000   0.000   0.000   0.000   0.000   0.000   0.000   0.000   0.000   0.000   0.000   0.000   0.000
  0.000   0.000   0.000   0.000   0.000   0.000   0.000   0.000   0.000   0.000   0.000   0.000   0.000   0.000   0.000   0.000
  0.000   0.000   0.000   0.000   0.000   0.000   0.000   0.000   0.000   0.000   0.000   0.000   0.000   0.000   0.000   0.000


------------------------ aborting loop because EDIFF is reached ----------------------------------------





 total charge

# of ion       s       p       d       tot
------------------------------------------
    1        0.451   0.282   9.189   9.923
    2        0.448   0.285   9.186   9.920
    3        0.448   0.285   9.186   9.920
    4        0.448   0.285   9.186   9.920
    5        0.449   0.285   9.185   9.918
    6        0.448   0.285   9.186   9.920
    7        0.448   0.285   9.186   9.920
    8        0.448   0.285   9.186   9.920
    9        0.448   0.285   9.187   9.919
   10        0.443   0.370   9.179   9.992
   11        0.440   0.369   9.182   9.990
   12        0.443   0.370   9.179   9.992
   13        0.440   0.369   9.182   9.990
   14        0.440   0.369   9.182   9.990
   15        0.438   0.368   9.178   9.985
   16        0.443   0.370   9.179   9.992
   17        0.438   0.368   9.178   9.985
   18        0.438   0.368   9.178   9.985
   19        0.443   0.365   9.183   9.991
   20        0.467   0.394   9.164  10.026
   21        0.467   0.394   9.164  10.026
   22        0.431   0.373   9.177   9.981
   23        0.467   0.394   9.164  10.026
   24        0.431   0.373   9.177   9.981
   25        0.443   0.365   9.183   9.991
   26        0.443   0.365   9.183   9.991
   27        0.431   0.373   9.177   9.981
   28        0.455   0.289   9.184   9.927
   29        0.462   0.310   9.177   9.950
   30        0.462   0.310   9.177   9.950
   31        0.462   0.310   9.177   9.950
   32        0.462   0.310   9.177   9.950
   33        0.462   0.310   9.177   9.950
   34        0.462   0.310   9.177   9.950
   35        0.447   0.294   9.183   9.924
   36        0.573   0.609   4.480   5.661
   37        1.607   3.275   0.000   4.882
--------------------------------------------------
tot         17.879  15.609 325.780 359.267
 
    CHARGE:  cpu time    0.2098: real time    0.2100
    FORLOC:  cpu time    0.0074: real time    0.0074
    FORNL :  cpu time    1.1848: real time    1.1850
    STRESS:  cpu time    3.5241: real time    3.5244
    FORCOR:  cpu time    0.0280: real time    0.0280
    FORHAR:  cpu time    0.0115: real time    0.0117
    OFIELD:  cpu time    0.0001: real time    0.0001

  FORCE on cell =-STRESS in cart. coord.  units (eV):
  Direction    XX          YY          ZZ          XY          YZ          ZX
  --------------------------------------------------------------------------------------
  Alpha Z   896.00629   896.00629   896.00629
  Ewald  170941.22727170941.22689************     0.00037     0.00013     0.00017
  Hartree183919.18503183919.18503************     0.00003     0.00007     0.00006
  E(xc)   -2304.59645 -2304.59597 -2309.38497    -0.00041    -0.00003    -0.00006
  Local  ************************367921.40603     0.01877    -0.00061    -0.00096
  n-local  -799.28699  -785.94903  -798.58181     7.37933    -0.12576     0.24361
  augment  3323.31954  3323.33984  3340.86159    -0.01758     0.00026     0.00046
  Kinetic  3339.80092  3342.00674  3344.00290     2.78031     1.76680    -1.38138
  Fock        0.00000     0.00000     0.00000     0.00000     0.00000     0.00000
  -------------------------------------------------------------------------------------
  Total      -1.75070    -1.75070     1.23416     0.00000     0.00000    -0.00000
  in kB      -2.56868    -2.56868     1.81080     0.00000     0.00000    -0.00000
  external pressure =       -1.11 kB  Pullay stress =        0.00 kB


 VOLUME and BASIS-vectors are now :
 -----------------------------------------------------------------------------
  energy-cutoff  :      500.00
  volume of cell :     1091.97
      direct lattice vectors                 reciprocal lattice vectors
     7.696786404  0.000000000  0.000000000     0.129924354 -0.075011849  0.000000000
     3.848392758  6.665612809  0.000000000     0.000000000  0.150023716  0.000000000
     0.000000000  0.000000000 21.284399033     0.000000000  0.000000000  0.046982769

  length of vectors
     7.696786404  7.696786404 21.284399033     0.150023716  0.150023716  0.046982769


 FORCES acting on ions
    electron-ion (+dipol)            ewald-force                    non-local-force                 convergence-correction
 -----------------------------------------------------------------------------------------------
   -.416E-04 0.160E-06 0.347E+04   0.580E-04 -.430E-05 -.347E+04   -.642E-17 -.124E-17 -.223E+01   -.354E-03 -.171E-03 -.203E+00
   -.663E+00 -.378E+00 0.347E+04   0.630E+00 0.334E+00 -.347E+04   -.243E-01 0.994E-01 -.198E+01   0.603E-01 -.490E-01 -.150E+00
   0.663E+00 -.378E+00 0.347E+04   -.630E+00 0.334E+00 -.347E+04   0.243E-01 0.994E-01 -.198E+01   -.594E-01 -.465E-01 -.149E+00
   -.659E+00 -.385E+00 0.347E+04   0.604E+00 0.378E+00 -.347E+04   0.739E-01 -.708E-01 -.198E+01   -.122E-01 0.766E-01 -.150E+00
   -.653E-04 -.542E-05 0.347E+04   0.116E-03 -.101E-04 -.347E+04   0.206E-17 0.686E-18 -.188E+01   0.121E-01 0.743E-02 -.154E+00
   0.659E+00 -.385E+00 0.347E+04   -.604E+00 0.378E+00 -.347E+04   -.739E-01 -.708E-01 -.198E+01   0.106E-01 0.778E-01 -.149E+00
   0.409E-02 0.763E+00 0.347E+04   -.252E-01 -.712E+00 -.347E+04   0.983E-01 -.286E-01 -.198E+01   -.699E-01 -.283E-01 -.149E+00
   -.399E-02 0.763E+00 0.347E+04   0.249E-01 -.712E+00 -.347E+04   -.983E-01 -.286E-01 -.198E+01   0.734E-01 -.297E-01 -.149E+00
   -.144E-03 -.328E-04 0.347E+04   0.263E-03 0.204E-04 -.347E+04   -.304E-18 0.413E-18 -.212E+01   -.131E-01 -.678E-02 -.154E+00
   -.362E+01 -.209E+01 0.116E+04   0.388E+01 0.224E+01 -.116E+04   -.346E+00 -.200E+00 -.787E+00   0.584E-01 0.337E-01 -.523E-01
   -.910E-04 -.340E+01 0.115E+04   0.190E-03 0.329E+01 -.115E+04   -.138E-07 0.207E+00 -.449E+00   0.120E-01 -.138E+00 -.619E-01
   0.362E+01 -.209E+01 0.116E+04   -.388E+01 0.224E+01 -.116E+04   0.346E+00 -.200E+00 -.787E+00   -.601E-01 0.348E-01 -.523E-01
   -.294E+01 0.170E+01 0.115E+04   0.285E+01 -.165E+01 -.115E+04   0.180E+00 -.104E+00 -.449E+00   -.113E+00 0.802E-01 -.618E-01
   0.294E+01 0.170E+01 0.115E+04   -.285E+01 -.165E+01 -.115E+04   -.180E+00 -.104E+00 -.449E+00   0.137E+00 0.786E-01 -.638E-01
   -.141E-03 -.245E+01 0.116E+04   0.297E-03 0.222E+01 -.116E+04   -.631E-08 0.947E-01 -.824E+00   -.338E-02 0.139E+00 -.354E-01
   -.919E-04 0.418E+01 0.116E+04   0.186E-03 -.448E+01 -.116E+04   -.266E-07 0.399E+00 -.787E+00   -.835E-03 -.707E-01 -.524E-01
   -.213E+01 0.123E+01 0.116E+04   0.192E+01 -.111E+01 -.116E+04   0.820E-01 -.473E-01 -.824E+00   0.119E+00 -.724E-01 -.355E-01
   0.213E+01 0.123E+01 0.116E+04   -.192E+01 -.111E+01 -.116E+04   -.820E-01 -.473E-01 -.824E+00   -.118E+00 -.697E-01 -.336E-01
   -.650E-04 -.618E+01 -.115E+04   0.707E-04 0.611E+01 0.115E+04   0.393E-08 -.591E-01 0.101E+01   -.108E-01 0.894E-01 -.541E-01
   -.454E+02 -.262E+02 -.120E+04   0.460E+02 0.265E+02 0.120E+04   -.733E+00 -.423E+00 -.174E-01   -.610E-01 -.353E-01 -.905E-01
   0.454E+02 -.262E+02 -.120E+04   -.460E+02 0.265E+02 0.120E+04   0.733E+00 -.423E+00 -.174E-01   0.422E-01 -.369E-01 -.913E-01
   -.233E+02 0.134E+02 -.117E+04   0.230E+02 -.133E+02 0.117E+04   0.409E+00 -.236E+00 0.994E+00   -.870E-01 0.516E-01 -.179E+00
   -.830E-04 0.524E+02 -.120E+04   0.149E-03 -.531E+02 0.120E+04   -.563E-07 0.846E+00 -.174E-01   -.121E-01 0.538E-01 -.914E-01
   0.233E+02 0.134E+02 -.117E+04   -.230E+02 -.133E+02 0.117E+04   -.409E+00 -.236E+00 0.994E+00   0.886E-01 0.503E-01 -.179E+00
   0.535E+01 0.309E+01 -.115E+04   -.530E+01 -.306E+01 0.115E+04   0.512E-01 0.295E-01 0.101E+01   -.937E-01 -.541E-01 -.545E-01
   -.535E+01 0.309E+01 -.115E+04   0.530E+01 -.306E+01 0.115E+04   -.512E-01 0.295E-01 0.101E+01   0.724E-01 -.539E-01 -.540E-01
   -.121E-03 -.269E+02 -.117E+04   0.240E-03 0.266E+02 0.117E+04   -.314E-07 0.472E+00 0.994E+00   0.109E-02 -.101E+00 -.179E+00
   -.394E-04 0.156E-04 -.341E+04   0.413E-04 -.323E-04 0.341E+04   -.108E-16 0.523E-17 0.178E+01   -.246E-03 -.896E-04 0.109E+00
   -.270E+02 -.485E+02 -.340E+04   0.270E+02 0.483E+02 0.340E+04   -.241E+00 0.695E-01 0.232E+01   0.670E-02 -.102E+00 0.925E-01
   0.270E+02 -.485E+02 -.340E+04   -.270E+02 0.483E+02 0.340E+04   0.241E+00 0.695E-01 0.232E+01   -.571E-02 -.100E+00 0.918E-01
   -.555E+02 0.925E+00 -.340E+04   0.554E+02 -.742E+00 0.340E+04   -.601E-01 -.243E+00 0.232E+01   -.845E-01 0.565E-01 0.925E-01
   0.555E+02 0.925E+00 -.340E+04   -.554E+02 -.742E+00 0.340E+04   0.601E-01 -.243E+00 0.232E+01   0.844E-01 0.572E-01 0.928E-01
   -.286E+02 0.476E+02 -.340E+04   0.283E+02 -.476E+02 0.340E+04   0.180E+00 0.174E+00 0.232E+01   -.896E-01 0.451E-01 0.918E-01
   0.286E+02 0.476E+02 -.340E+04   -.283E+02 -.476E+02 0.340E+04   -.180E+00 0.174E+00 0.232E+01   0.924E-01 0.445E-01 0.929E-01
   -.146E-03 -.242E-04 -.342E+04   0.252E-03 0.194E-05 0.342E+04   0.112E-17 0.263E-17 0.225E+01   -.125E-01 -.642E-02 0.177E+00
   -.297E-04 -.113E-04 -.170E+04   0.738E-04 0.151E-04 0.170E+04   0.112E-17 -.435E-17 0.470E-01   0.739E-03 0.438E-03 0.290E-01
   0.172E-03 -.846E-04 -.213E+04   0.176E-04 0.805E-05 0.216E+04   0.116E-17 0.520E-18 -.291E+02   0.299E-02 0.182E-02 0.254E-01
 -----------------------------------------------------------------------------------------------
   -.126E-03 -.103E-03 0.314E+02   0.499E-13 0.159E-12 -.500E-11   -.243E-16 -.567E-16 -.295E+02   -.331E-01 -.221E-01 -.193E+01
 
 
 POSITION                                       TOTAL-FORCE (eV/Angst)
 -----------------------------------------------------------------------------------
      0.00000      0.00000      5.37156         0.000000      0.000000      0.007912
      2.56560      0.00000      5.37156         0.003095      0.008009      0.065959
      5.13119      0.00000      5.37156        -0.003095      0.008009      0.065959
      1.28280      2.22187      5.37156         0.008484     -0.001324      0.065959
      3.84839      2.22187      5.37156         0.000000      0.000000      0.066914
      6.41399      2.22187      5.37156        -0.008484     -0.001324      0.065959
      2.56560      4.44374      5.37156         0.005388     -0.006685      0.065959
      5.13119      4.44374      5.37156        -0.005388     -0.006685      0.065959
      7.69679      4.44374      5.37156         0.000000      0.000000      0.032769
      1.28280      0.74062      7.46636        -0.029141     -0.016825     -0.089174
      3.84839      0.74062      7.46636         0.000000     -0.042485     -0.042367
      6.41399      0.74062      7.46636         0.029141     -0.016825     -0.089174
      2.56560      2.96249      7.46636        -0.036793      0.021242     -0.042367
      5.13119      2.96249      7.46636         0.036793      0.021242     -0.042367
      7.69679      2.96249      7.46636         0.000000     -0.000729      0.015604
      3.84839      5.18437      7.46636        -0.000000      0.033649     -0.089174
      6.41399      5.18437      7.46636        -0.000632      0.000365      0.015604
      8.97958      5.18437      7.46636         0.000632      0.000365      0.015604
      7.69679      1.48128      9.55134         0.000000     -0.024009      0.024124
      2.56091      1.47854      9.54628        -0.241216     -0.139266     -0.351483
      5.13587      1.47854      9.54628         0.241216     -0.139266     -0.351483
      8.97673      3.70477      9.56818         0.067280     -0.038844      0.020656
      3.84839      3.70853      9.54628        -0.000000      0.278532     -0.351483
      6.41684      3.70477      9.56818        -0.067280     -0.038844      0.020656
     10.26235      5.92497      9.55134         0.020792      0.012004      0.024124
      5.13122      5.92497      9.55134        -0.020792      0.012004      0.024124
      7.69679      5.92169      9.56818        -0.000000      0.077689      0.020656
      0.00000      0.00000     11.64671         0.000000      0.000000     -0.046225
      6.40484      6.65345     11.67351        -0.153059     -0.258406     -0.247390
      8.98873      6.65345     11.67351         0.153059     -0.258406     -0.247390
      8.96447      2.22003     11.67351        -0.300316     -0.003350     -0.247390
      6.42910      2.22003     11.67351         0.300316     -0.003350     -0.247390
     10.25642      4.45775     11.67351        -0.147257      0.261756     -0.247390
      5.13715      4.45775     11.67351         0.147257      0.261756     -0.247390
      7.69679      4.44374     11.65978         0.000000      0.000000     -0.013535
      3.84839      2.22187     11.64991         0.000000      0.000000      2.299588
      3.84839      2.22187     13.38889         0.000000      0.000000      0.009084
 -----------------------------------------------------------------------------------
    total drift:                               -0.033200     -0.022199      0.001689


--------------------------------------------------------------------------------------------------------



  FREE ENERGIE OF THE ION-ELECTRON SYSTEM (eV)
  ---------------------------------------------------
  free  energy   TOTEN  =      -138.90618683 eV

  energy  without entropy=     -138.90618683  energy(sigma->0) =     -138.90618683
 


--------------------------------------------------------------------------------------------------------


    POTLOK:  cpu time    0.0291: real time    0.0291


--------------------------------------------------------------------------------------------------------


 stress matrix after NEB project (eV)
     -1.75070      0.00000     -0.00000
      0.00000     -1.75070     -0.00000
     -0.00000      0.00000      1.23416
  FORCES: max atom, RMS     0.009084    0.001493
  FORCE total and by dimension    0.009084    0.009084
  Stress total and by dimension    2.766411    1.750697
     LOOP+:  cpu time   61.3642: real time   61.3850
 -----------------------------------------------------------------------------
|                                                                             |
|           W    W    AA    RRRRR   N    N  II  N    N   GGGG   !!!           |
|           W    W   A  A   R    R  NN   N  II  NN   N  G    G  !!!           |
|           W    W  A    A  R    R  N N  N  II  N N  N  G       !!!           |
|           W WW W  AAAAAA  RRRRR   N  N N  II  N  N N  G  GGG   !            |
|           WW  WW  A    A  R   R   N   NN  II  N   NN  G    G                |
|           W    W  A    A  R    R  N    N  II  N    N   GGGG   !!!           |
|                                                                             |
|     Tetrahedron method does not include variations of the Fermi             |
|     occupations, so forces and stress will be inaccurate. We suggest        |
|     using a different smearing scheme ISMEAR = 1 or 2 for metals in         |
|     relaxations.                                                            |
|                                                                             |
 -----------------------------------------------------------------------------

    4ORBIT:  cpu time    0.0000: real time    0.0000



 total charge

# of ion       s       p       d       tot
------------------------------------------
    1        0.451   0.282   9.189   9.923
    2        0.448   0.285   9.186   9.920
    3        0.448   0.285   9.186   9.920
    4        0.448   0.285   9.186   9.920
    5        0.449   0.285   9.185   9.918
    6        0.448   0.285   9.186   9.920
    7        0.448   0.285   9.186   9.920
    8        0.448   0.285   9.186   9.920
    9        0.448   0.285   9.187   9.919
   10        0.443   0.370   9.179   9.992
   11        0.440   0.369   9.182   9.990
   12        0.443   0.370   9.179   9.992
   13        0.440   0.369   9.182   9.990
   14        0.440   0.369   9.182   9.990
   15        0.438   0.368   9.178   9.985
   16        0.443   0.370   9.179   9.992
   17        0.438   0.368   9.178   9.985
   18        0.438   0.368   9.178   9.985
   19        0.443   0.365   9.183   9.991
   20        0.467   0.394   9.164  10.026
   21        0.467   0.394   9.164  10.026
   22        0.431   0.373   9.177   9.981
   23        0.467   0.394   9.164  10.026
   24        0.431   0.373   9.177   9.981
   25        0.443   0.365   9.183   9.991
   26        0.443   0.365   9.183   9.991
   27        0.431   0.373   9.177   9.981
   28        0.455   0.289   9.184   9.927
   29        0.462   0.310   9.177   9.950
   30        0.462   0.310   9.177   9.950
   31        0.462   0.310   9.177   9.950
   32        0.462   0.310   9.177   9.950
   33        0.462   0.310   9.177   9.950
   34        0.462   0.310   9.177   9.950
   35        0.447   0.294   9.183   9.924
   36        0.573   0.609   4.480   5.661
   37        1.607   3.275   0.000   4.882
--------------------------------------------------
tot         17.879  15.609 325.780 359.267
 
 BZINTS: Fermi energy:    0.033164;  397.000000 electrons
         Band energy:-0.115491E+04;  BLOECHL correction:   -0.030106

 total amount of memory used by VASP MPI-rank0   104733. kBytes
=======================================================================

   base      :      30000. kBytes
   nonlr-proj:      17847. kBytes
   fftplans  :       2916. kBytes
   grid      :      12390. kBytes
   one-center:        575. kBytes
   wavefun   :      41005. kBytes
 
  
  
 General timing and accounting informations for this job:
 ========================================================
  
                  Total CPU time used (sec):       67.293
                            User time (sec):       64.748
                          System time (sec):        2.544
                         Elapsed time (sec):       67.737
  
                   Maximum memory used (kb):      343828.
                   Average memory used (kb):          N/A
  
                          Minor page faults:        81075
                          Major page faults:            0
                 Voluntary context switches:         6629
