PROCAR new format
# of k-points:   10         # of bands:  252         # of ions:   37

 k-point     1 :    0.00000000 0.00000000 0.00000000     weight = 0.01562500

band     1 # energy  -18.17607722 # occ.  2.00000000
 
ion      s      p      d    tot
    1  0.000  0.000  0.000  0.000
    2  0.000  0.000  0.000  0.000
    3  0.000  0.000  0.000  0.000
    4  0.000  0.000  0.000  0.000
    5  0.000  0.000  0.000  0.000
    6  0.000  0.000  0.000  0.000
    7  0.000  0.000  0.000  0.000
    8  0.000  0.000  0.000  0.000
    9  0.000  0.000  0.000  0.000
   10  0.000  0.000  0.000  0.000
   11  0.000  0.000  0.000  0.000
   12  0.000  0.000  0.000  0.000
   13  0.000  0.000  0.000  0.000
   14  0.000  0.000  0.000  0.000
   15  0.000  0.000  0.000  0.000
   16  0.000  0.000  0.000  0.000
   17  0.000  0.000  0.000  0.000
   18  0.000  0.000  0.000  0.000
   19  0.000  0.000  0.000  0.000
   20  0.000  0.000  0.000  0.000
   21  0.000  0.000  0.000  0.000
   22  0.000  0.000  0.000  0.000
   23  0.000  0.000  0.000  0.000
   24  0.000  0.000  0.000  0.000
   25  0.000  0.000  0.000  0.000
   26  0.000  0.000  0.000  0.000
   27  0.000  0.000  0.000  0.000
   28  0.000  0.000  0.000  0.000
   29  0.000  0.000  0.000  0.000
   30  0.000  0.000  0.000  0.000
   31  0.000  0.000  0.000  0.000
   32  0.000  0.000  0.000  0.000
   33  0.000  0.000  0.000  0.000
   34  0.000  0.000  0.000  0.000
   35  0.000  0.000  0.000  0.000
   36  0.037  0.049  0.109  0.194
   37  0.776  0.011  0.000  0.787
tot    0.813  0.060  0.109  0.982
 
band     2 # energy   -8.77074617 # occ.  2.00000000
 
ion      s      p      d    tot
    1  0.007  0.001  0.000  0.007
    2  0.007  0.001  0.000  0.007
    3  0.007  0.001  0.000  0.007
    4  0.007  0.001  0.000  0.007
    5  0.007  0.001  0.000  0.007
    6  0.007  0.001  0.000  0.007
    7  0.007  0.001  0.000  0.007
    8  0.007  0.001  0.000  0.007
    9  0.007  0.001  0.000  0.007
   10  0.025  0.000  0.000  0.025
   11  0.025  0.000  0.000  0.025
   12  0.025  0.000  0.000  0.025
   13  0.025  0.000  0.000  0.025
   14  0.025  0.000  0.000  0.025
   15  0.024  0.000  0.000  0.025
   16  0.025  0.000  0.000  0.025
   17  0.024  0.000  0.000  0.025
   18  0.024  0.000  0.000  0.025
   19  0.025  0.000  0.000  0.025
   20  0.025  0.000  0.000  0.025
   21  0.025  0.000  0.000  0.025
   22  0.024  0.000  0.000  0.024
   23  0.025  0.000  0.000  0.025
   24  0.024  0.000  0.000  0.024
   25  0.025  0.000  0.000  0.025
   26  0.025  0.000  0.000  0.025
   27  0.024  0.000  0.000  0.024
   28  0.007  0.001  0.000  0.007
   29  0.006  0.001  0.000  0.007
   30  0.006  0.001  0.000  0.007
   31  0.006  0.001  0.000  0.007
   32  0.006  0.001  0.000  0.007
   33  0.006  0.001  0.000  0.007
   34  0.006  0.001  0.000  0.007
   35  0.007  0.001  0.000  0.007
   36  0.008  0.002  0.000  0.009
   37  0.000  0.000  0.000  0.001
tot    0.564  0.017  0.001  0.583
 
band     3 # energy   -7.46784626 # occ.  2.00000000
 
ion      s      p      d    tot
    1  0.018  0.001  0.000  0.019
    2  0.018  0.001  0.001  0.019
    3  0.018  0.001  0.001  0.019
    4  0.018  0.001  0.001  0.019
    5  0.018  0.001  0.000  0.019
    6  0.018  0.001  0.001  0.019
    7  0.018  0.001  0.001  0.019
    8  0.018  0.001  0.001  0.019
    9  0.018  0.001  0.001  0.019
   10  0.010  0.002  0.001  0.013
   11  0.010  0.002  0.001  0.013
   12  0.010  0.002  0.001  0.013
   13  0.010  0.002  0.001  0.013
   14  0.010  0.002  0.001  0.013
   15  0.010  0.002  0.001  0.012
   16  0.010  0.002  0.001  0.013
   17  0.010  0.002  0.001  0.012
   18  0.010  0.002  0.001  0.012
   19  0.011  0.002  0.001  0.014
   20  0.009  0.002  0.001  0.012
   21  0.009  0.002  0.001  0.012
   22  0.011  0.002  0.001  0.014
   23  0.009  0.002  0.001  0.012
   24  0.011  0.002  0.001  0.014
   25  0.011  0.002  0.001  0.014
   26  0.011  0.002  0.001  0.014
   27  0.011  0.002  0.001  0.014
   28  0.020  0.001  0.001  0.021
   29  0.018  0.001  0.001  0.020
   30  0.018  0.001  0.001  0.020
   31  0.018  0.001  0.001  0.020
   32  0.018  0.001  0.001  0.020
   33  0.018  0.001  0.001  0.020
   34  0.018  0.001  0.001  0.020
   35  0.019  0.001  0.001  0.020
   36  0.018  0.002  0.003  0.022
   37  0.000  0.000  0.000  0.001
tot    0.510  0.055  0.021  0.586
 
band     4 # energy   -5.97364241 # occ.  2.00000000
 
ion      s      p      d    tot
    1  0.012  0.000  0.003  0.015
    2  0.010  0.000  0.004  0.014
    3  0.010  0.000  0.004  0.014
    4  0.010  0.000  0.004  0.014
    5  0.003  0.000  0.004  0.008
    6  0.010  0.000  0.004  0.014
    7  0.010  0.000  0.004  0.014
    8  0.010  0.000  0.004  0.014
    9  0.020  0.000  0.002  0.022
   10  0.001  0.003  0.002  0.006
   11  0.011  0.005  0.001  0.016
   12  0.001  0.003  0.002  0.006
   13  0.011  0.005  0.001  0.016
   14  0.011  0.005  0.001  0.016
   15  0.001  0.002  0.003  0.005
   16  0.001  0.003  0.002  0.006
   17  0.001  0.002  0.003  0.005
   18  0.001  0.002  0.003  0.005
   19  0.000  0.002  0.006  0.009
   20  0.027  0.005  0.007  0.039
   21  0.027  0.005  0.007  0.039
   22  0.000  0.004  0.004  0.008
   23  0.027  0.005  0.007  0.039
   24  0.000  0.004  0.004  0.008
   25  0.000  0.002  0.006  0.009
   26  0.000  0.002  0.006  0.009
   27  0.000  0.004  0.004  0.008
   28  0.019  0.000  0.004  0.023
   29  0.015  0.000  0.007  0.022
   30  0.015  0.000  0.007  0.022
   31  0.015  0.000  0.007  0.022
   32  0.015  0.000  0.007  0.022
   33  0.015  0.000  0.007  0.022
   34  0.015  0.000  0.007  0.022
   35  0.025  0.000  0.004  0.029
   36  0.000  0.001  0.070  0.071
   37  0.001  0.027  0.000  0.029
tot    0.351  0.093  0.221  0.665
 
band     5 # energy   -5.83469750 # occ.  2.00000000
 
ion      s      p      d    tot
    1  0.000  0.002  0.005  0.007
    2  0.008  0.002  0.002  0.012
    3  0.001  0.001  0.002  0.004
    4  0.008  0.002  0.002  0.012
    5  0.000  0.002  0.003  0.005
    6  0.003  0.001  0.002  0.006
    7  0.001  0.001  0.002  0.004
    8  0.003  0.001  0.002  0.006
    9  0.000  0.000  0.002  0.002
   10  0.054  0.005  0.003  0.062
   11  0.007  0.009  0.004  0.020
   12  0.013  0.002  0.011  0.027
   13  0.007  0.009  0.004  0.020
   14  0.026  0.000  0.006  0.033
   15  0.001  0.004  0.006  0.012
   16  0.014  0.002  0.011  0.027
   17  0.001  0.004  0.006  0.012
   18  0.005  0.002  0.003  0.010
   19  0.006  0.010  0.003  0.020
   20  0.069  0.003  0.007  0.079
   21  0.017  0.003  0.016  0.036
   22  0.002  0.005  0.008  0.015
   23  0.018  0.003  0.016  0.036
   24  0.008  0.003  0.003  0.014
   25  0.025  0.000  0.007  0.032
   26  0.006  0.010  0.003  0.020
   27  0.002  0.005  0.008  0.015
   28  0.000  0.003  0.004  0.006
   29  0.010  0.003  0.004  0.017
   30  0.004  0.001  0.003  0.008
   31  0.010  0.003  0.004  0.017
   32  0.001  0.001  0.004  0.007
   33  0.004  0.001  0.003  0.008
   34  0.002  0.001  0.004  0.007
   35  0.000  0.000  0.003  0.003
   36  0.000  0.004  0.027  0.030
   37  0.000  0.004  0.000  0.004
tot    0.336  0.114  0.202  0.652
 
band     6 # energy   -5.83457864 # occ.  2.00000000
 
ion      s      p      d    tot
    1  0.000  0.002  0.005  0.007
    2  0.000  0.001  0.002  0.003
    3  0.007  0.002  0.002  0.011
    4  0.000  0.001  0.002  0.003
    5  0.000  0.002  0.003  0.005
    6  0.005  0.002  0.002  0.009
    7  0.007  0.002  0.002  0.011
    8  0.005  0.002  0.002  0.009
    9  0.000  0.000  0.002  0.002
   10  0.000  0.001  0.014  0.015
   11  0.020  0.003  0.005  0.029
   12  0.040  0.004  0.006  0.050
   13  0.020  0.003  0.006  0.029
   14  0.000  0.012  0.004  0.016
   15  0.003  0.003  0.004  0.011
   16  0.040  0.004  0.006  0.050
   17  0.003  0.003  0.004  0.011
   18  0.000  0.005  0.008  0.013
   19  0.019  0.004  0.006  0.028
   20  0.000  0.002  0.019  0.021
   21  0.052  0.003  0.010  0.065
   22  0.006  0.004  0.005  0.014
   23  0.052  0.003  0.010  0.065
   24  0.000  0.005  0.010  0.015
   25  0.000  0.013  0.002  0.015
   26  0.019  0.003  0.006  0.028
   27  0.006  0.004  0.005  0.014
   28  0.000  0.003  0.004  0.006
   29  0.000  0.001  0.003  0.004
   30  0.007  0.002  0.004  0.013
   31  0.000  0.001  0.003  0.004
   32  0.009  0.002  0.003  0.014
   33  0.006  0.002  0.004  0.013
   34  0.009  0.002  0.003  0.014
   35  0.000  0.000  0.003  0.003
   36  0.000  0.004  0.027  0.030
   37  0.000  0.004  0.000  0.004
tot    0.336  0.114  0.202  0.652
 
band     7 # energy   -5.77389936 # occ.  2.00000000
 
ion      s      p      d    tot
    1  0.000  0.001  0.002  0.003
    2  0.009  0.002  0.002  0.014
    3  0.001  0.001  0.002  0.004
    4  0.009  0.002  0.002  0.014
    5  0.000  0.001  0.004  0.005
    6  0.003  0.001  0.002  0.007
    7  0.001  0.001  0.002  0.004
    8  0.003  0.001  0.002  0.007
    9  0.000  0.003  0.005  0.008
   10  0.000  0.012  0.002  0.014
   11  0.023  0.003  0.005  0.032
   12  0.002  0.003  0.005  0.010
   13  0.023  0.003  0.005  0.032
   14  0.000  0.000  0.015  0.015
   15  0.040  0.004  0.006  0.050
   16  0.002  0.003  0.005  0.010
   17  0.040  0.004  0.006  0.050
   18  0.000  0.007  0.009  0.016
   19  0.029  0.004  0.006  0.038
   20  0.000  0.013  0.002  0.015
   21  0.001  0.004  0.005  0.010
   22  0.042  0.004  0.006  0.052
   23  0.001  0.004  0.005  0.010
   24  0.000  0.009  0.008  0.017
   25  0.000  0.000  0.017  0.017
   26  0.029  0.004  0.006  0.038
   27  0.042  0.004  0.006  0.052
   28  0.000  0.001  0.005  0.007
   29  0.013  0.003  0.003  0.019
   30  0.003  0.002  0.003  0.008
   31  0.013  0.003  0.003  0.019
   32  0.004  0.001  0.003  0.008
   33  0.003  0.002  0.003  0.008
   34  0.004  0.001  0.003  0.008
   35  0.000  0.004  0.005  0.009
   36  0.000  0.001  0.009  0.010
   37  0.000  0.000  0.000  0.000
tot    0.342  0.116  0.180  0.639
 
band     8 # energy   -5.77379478 # occ.  2.00000000
 
ion      s      p      d    tot
    1  0.000  0.001  0.002  0.003
    2  0.000  0.001  0.002  0.003
    3  0.008  0.002  0.002  0.012
    4  0.000  0.001  0.002  0.003
    5  0.000  0.001  0.004  0.005
    6  0.006  0.002  0.002  0.010
    7  0.008  0.002  0.002  0.012
    8  0.006  0.002  0.002  0.010
    9  0.000  0.003  0.005  0.008
   10  0.003  0.001  0.005  0.009
   11  0.008  0.001  0.012  0.021
   12  0.001  0.009  0.003  0.013
   13  0.008  0.001  0.011  0.021
   14  0.031  0.004  0.002  0.037
   15  0.013  0.006  0.008  0.027
   16  0.001  0.009  0.003  0.013
   17  0.013  0.006  0.008  0.027
   18  0.054  0.002  0.005  0.061
   19  0.010  0.001  0.013  0.024
   20  0.002  0.001  0.006  0.009
   21  0.000  0.010  0.003  0.013
   22  0.014  0.007  0.007  0.029
   23  0.000  0.010  0.003  0.013
   24  0.056  0.002  0.005  0.063
   25  0.038  0.005  0.002  0.045
   26  0.010  0.001  0.013  0.024
   27  0.014  0.007  0.007  0.029
   28  0.000  0.001  0.005  0.007
   29  0.000  0.001  0.003  0.004
   30  0.010  0.002  0.003  0.015
   31  0.000  0.001  0.003  0.004
   32  0.009  0.003  0.003  0.015
   33  0.010  0.002  0.003  0.015
   34  0.009  0.003  0.003  0.015
   35  0.000  0.004  0.005  0.009
   36  0.000  0.001  0.009  0.010
   37  0.000  0.000  0.000  0.000
tot    0.342  0.116  0.180  0.639
 
band     9 # energy   -5.76831559 # occ.  2.00000000
 
ion      s      p      d    tot
    1  0.020  0.003  0.001  0.025
    2  0.000  0.002  0.004  0.006
    3  0.000  0.002  0.004  0.006
    4  0.000  0.002  0.004  0.006
    5  0.003  0.001  0.000  0.004
    6  0.000  0.002  0.004  0.006
    7  0.000  0.002  0.004  0.006
    8  0.000  0.002  0.004  0.006
    9  0.008  0.001  0.000  0.009
   10  0.031  0.007  0.005  0.043
   11  0.007  0.000  0.012  0.019
   12  0.031  0.007  0.005  0.043
   13  0.007  0.000  0.012  0.019
   14  0.008  0.000  0.012  0.020
   15  0.008  0.007  0.004  0.020
   16  0.031  0.007  0.005  0.043
   17  0.008  0.007  0.004  0.020
   18  0.008  0.007  0.004  0.019
   19  0.025  0.009  0.002  0.036
   20  0.000  0.003  0.010  0.014
   21  0.000  0.003  0.011  0.014
   22  0.021  0.001  0.010  0.032
   23  0.000  0.003  0.011  0.014
   24  0.022  0.001  0.010  0.033
   25  0.026  0.009  0.002  0.037
   26  0.025  0.009  0.002  0.036
   27  0.021  0.001  0.010  0.032
   28  0.018  0.003  0.001  0.022
   29  0.000  0.002  0.004  0.006
   30  0.000  0.002  0.004  0.006
   31  0.000  0.002  0.004  0.006
   32  0.000  0.002  0.004  0.006
   33  0.000  0.002  0.004  0.006
   34  0.000  0.002  0.004  0.006
   35  0.012  0.002  0.001  0.015
   36  0.001  0.000  0.000  0.001
   37  0.000  0.000  0.000  0.000
tot    0.344  0.114  0.182  0.640
 
band    10 # energy   -5.72023426 # occ.  2.00000000
 
ion      s      p      d    tot
    1  0.002  0.000  0.002  0.004
    2  0.005  0.001  0.006  0.012
    3  0.005  0.002  0.006  0.012
    4  0.005  0.001  0.006  0.012
    5  0.037  0.002  0.000  0.040
    6  0.005  0.001  0.006  0.012
    7  0.005  0.002  0.006  0.012
    8  0.005  0.001  0.006  0.012
    9  0.001  0.002  0.006  0.009
   10  0.002  0.003  0.009  0.014
   11  0.011  0.008  0.004  0.023
   12  0.002  0.003  0.009  0.014
   13  0.011  0.008  0.004  0.023
   14  0.011  0.008  0.004  0.023
   15  0.030  0.003  0.007  0.040
   16  0.002  0.003  0.009  0.014
   17  0.030  0.003  0.007  0.040
   18  0.030  0.003  0.007  0.040
   19  0.007  0.002  0.008  0.017
   20  0.014  0.004  0.007  0.025
   21  0.014  0.004  0.007  0.025
   22  0.013  0.007  0.003  0.022
   23  0.014  0.004  0.007  0.025
   24  0.012  0.007  0.003  0.022
   25  0.007  0.002  0.008  0.017
   26  0.007  0.002  0.008  0.017
   27  0.013  0.007  0.003  0.022
   28  0.002  0.000  0.004  0.006
   29  0.005  0.001  0.004  0.009
   30  0.005  0.001  0.004  0.009
   31  0.005  0.001  0.004  0.009
   32  0.005  0.001  0.004  0.009
   33  0.005  0.001  0.004  0.009
   34  0.005  0.001  0.004  0.009
   35  0.000  0.001  0.003  0.004
   36  0.029  0.002  0.000  0.032
   37  0.001  0.005  0.000  0.007
tot    0.360  0.107  0.186  0.653
 
band    11 # energy   -5.21087959 # occ.  2.00000000
 
ion      s      p      d    tot
    1  0.011  0.000  0.007  0.019
    2  0.006  0.001  0.010  0.017
    3  0.006  0.001  0.010  0.017
    4  0.006  0.001  0.010  0.017
    5  0.001  0.003  0.009  0.013
    6  0.006  0.001  0.010  0.017
    7  0.006  0.001  0.010  0.017
    8  0.006  0.001  0.010  0.017
    9  0.023  0.000  0.004  0.028
   10  0.005  0.001  0.019  0.024
   11  0.021  0.002  0.011  0.034
   12  0.005  0.001  0.019  0.024
   13  0.021  0.002  0.011  0.034
   14  0.021  0.002  0.011  0.034
   15  0.000  0.001  0.016  0.017
   16  0.005  0.001  0.019  0.024
   17  0.000  0.001  0.016  0.017
   18  0.000  0.001  0.016  0.017
   19  0.001  0.000  0.006  0.007
   20  0.005  0.004  0.031  0.039
   21  0.005  0.004  0.031  0.039
   22  0.001  0.000  0.008  0.009
   23  0.005  0.004  0.031  0.039
   24  0.001  0.000  0.008  0.009
   25  0.001  0.000  0.006  0.007
   26  0.001  0.000  0.006  0.007
   27  0.001  0.000  0.008  0.009
   28  0.001  0.000  0.001  0.002
   29  0.001  0.000  0.003  0.004
   30  0.001  0.000  0.003  0.004
   31  0.001  0.000  0.003  0.004
   32  0.001  0.000  0.003  0.004
   33  0.001  0.000  0.003  0.004
   34  0.001  0.000  0.003  0.004
   35  0.001  0.000  0.001  0.002
   36  0.009  0.000  0.110  0.119
   37  0.006  0.099  0.000  0.105
tot    0.188  0.132  0.478  0.797
 
band    12 # energy   -5.08171680 # occ.  2.00000000
 
ion      s      p      d    tot
    1  0.000  0.001  0.009  0.010
    2  0.018  0.003  0.005  0.026
    3  0.007  0.002  0.004  0.013
    4  0.018  0.003  0.005  0.026
    5  0.000  0.002  0.008  0.010
    6  0.003  0.002  0.004  0.009
    7  0.007  0.002  0.004  0.013
    8  0.003  0.002  0.004  0.009
    9  0.000  0.005  0.008  0.013
   10  0.000  0.004  0.013  0.017
   11  0.013  0.003  0.008  0.024
   12  0.000  0.001  0.008  0.010
   13  0.013  0.003  0.008  0.024
   14  0.000  0.000  0.017  0.017
   15  0.016  0.003  0.008  0.027
   16  0.000  0.001  0.008  0.010
   17  0.016  0.003  0.008  0.027
   18  0.000  0.002  0.019  0.021
   19  0.004  0.003  0.009  0.017
   20  0.000  0.003  0.038  0.041
   21  0.001  0.001  0.016  0.019
   22  0.010  0.004  0.010  0.024
   23  0.001  0.001  0.016  0.018
   24  0.000  0.001  0.024  0.025
   25  0.000  0.000  0.008  0.008
   26  0.004  0.003  0.009  0.016
   27  0.010  0.004  0.010  0.024
   28  0.000  0.002  0.008  0.010
   29  0.022  0.004  0.008  0.034
   30  0.003  0.003  0.011  0.017
   31  0.022  0.004  0.008  0.034
   32  0.009  0.001  0.009  0.019
   33  0.003  0.003  0.011  0.016
   34  0.009  0.001  0.009  0.019
   35  0.000  0.005  0.006  0.012
   36  0.000  0.001  0.050  0.051
   37  0.000  0.011  0.000  0.011
tot    0.211  0.097  0.408  0.716
 
band    13 # energy   -5.08165093 # occ.  2.00000000
 
ion      s      p      d    tot
    1  0.000  0.001  0.009  0.010
    2  0.000  0.001  0.004  0.006
    3  0.011  0.003  0.005  0.018
    4  0.000  0.001  0.004  0.006
    5  0.000  0.002  0.008  0.010
    6  0.015  0.003  0.004  0.023
    7  0.011  0.003  0.005  0.019
    8  0.016  0.003  0.004  0.023
    9  0.000  0.005  0.008  0.013
   10  0.000  0.000  0.007  0.007
   11  0.004  0.001  0.014  0.020
   12  0.000  0.003  0.011  0.014
   13  0.004  0.001  0.014  0.020
   14  0.017  0.003  0.005  0.026
   15  0.005  0.002  0.015  0.023
   16  0.000  0.003  0.011  0.015
   17  0.005  0.002  0.015  0.023
   18  0.021  0.003  0.005  0.028
   19  0.001  0.001  0.008  0.011
   20  0.002  0.000  0.009  0.011
   21  0.000  0.003  0.030  0.033
   22  0.003  0.002  0.019  0.024
   23  0.000  0.003  0.031  0.034
   24  0.013  0.006  0.005  0.024
   25  0.006  0.004  0.010  0.019
   26  0.001  0.001  0.008  0.011
   27  0.003  0.002  0.019  0.024
   28  0.000  0.002  0.008  0.010
   29  0.001  0.001  0.010  0.012
   30  0.020  0.002  0.008  0.029
   31  0.000  0.001  0.010  0.012
   32  0.014  0.004  0.009  0.027
   33  0.020  0.002  0.008  0.030
   34  0.014  0.004  0.009  0.027
   35  0.000  0.005  0.006  0.012
   36  0.000  0.001  0.050  0.051
   37  0.000  0.011  0.000  0.011
tot    0.211  0.097  0.408  0.716
 
band    14 # energy   -5.04659125 # occ.  2.00000000
 
ion      s      p      d    tot
    1  0.000  0.006  0.009  0.015
    2  0.022  0.004  0.006  0.032
    3  0.008  0.003  0.005  0.016
    4  0.022  0.004  0.006  0.032
    5  0.000  0.004  0.011  0.015
    6  0.003  0.002  0.006  0.011
    7  0.009  0.003  0.005  0.016
    8  0.003  0.002  0.006  0.011
    9  0.000  0.000  0.012  0.012
   10  0.028  0.005  0.006  0.040
   11  0.002  0.004  0.018  0.024
   12  0.007  0.002  0.020  0.029
   13  0.002  0.004  0.018  0.024
   14  0.010  0.001  0.006  0.017
   15  0.001  0.002  0.013  0.017
   16  0.007  0.002  0.020  0.029
   17  0.001  0.002  0.013  0.017
   18  0.005  0.002  0.008  0.015
   19  0.002  0.002  0.019  0.023
   20  0.016  0.006  0.006  0.028
   21  0.004  0.002  0.018  0.024
   22  0.000  0.001  0.012  0.013
   23  0.004  0.002  0.018  0.024
   24  0.000  0.001  0.009  0.009
   25  0.008  0.003  0.003  0.014
   26  0.002  0.002  0.019  0.023
   27  0.000  0.001  0.012  0.013
   28  0.000  0.004  0.007  0.011
   29  0.015  0.004  0.007  0.026
   30  0.007  0.001  0.005  0.014
   31  0.015  0.004  0.007  0.026
   32  0.001  0.002  0.008  0.011
   33  0.007  0.001  0.005  0.014
   34  0.001  0.002  0.008  0.011
   35  0.000  0.000  0.009  0.009
   36  0.000  0.003  0.039  0.041
   37  0.000  0.012  0.000  0.012
tot    0.215  0.102  0.399  0.716
 
band    15 # energy   -5.04649954 # occ.  2.00000000
 
ion      s      p      d    tot
    1  0.000  0.006  0.009  0.015
    2  0.000  0.002  0.005  0.007
    3  0.014  0.003  0.006  0.023
    4  0.000  0.002  0.005  0.007
    5  0.000  0.004  0.011  0.015
    6  0.019  0.004  0.006  0.029
    7  0.014  0.003  0.006  0.023
    8  0.019  0.004  0.006  0.029
    9  0.000  0.000  0.012  0.012
   10  0.000  0.000  0.024  0.025
   11  0.007  0.002  0.010  0.020
   12  0.021  0.004  0.011  0.036
   13  0.007  0.002  0.010  0.020
   14  0.000  0.004  0.022  0.026
   15  0.003  0.002  0.010  0.016
   16  0.021  0.004  0.011  0.036
   17  0.003  0.002  0.010  0.016
   18  0.000  0.003  0.015  0.018
   19  0.006  0.002  0.009  0.017
   20  0.000  0.000  0.022  0.022
   21  0.012  0.005  0.010  0.026
   22  0.000  0.001  0.010  0.011
   23  0.012  0.005  0.010  0.026
   24  0.000  0.002  0.013  0.014
   25  0.000  0.001  0.024  0.025
   26  0.006  0.002  0.009  0.017
   27  0.000  0.001  0.010  0.011
   28  0.000  0.004  0.007  0.011
   29  0.001  0.001  0.007  0.008
   30  0.009  0.003  0.008  0.020
   31  0.001  0.001  0.007  0.008
   32  0.015  0.003  0.005  0.023
   33  0.009  0.003  0.008  0.020
   34  0.015  0.003  0.005  0.023
   35  0.000  0.000  0.009  0.009
   36  0.000  0.003  0.039  0.041
   37  0.000  0.012  0.000  0.012
tot    0.215  0.102  0.399  0.716
 
band    16 # energy   -5.00889241 # occ.  2.00000000
 
ion      s      p      d    tot
    1  0.033  0.003  0.000  0.037
    2  0.000  0.003  0.010  0.013
    3  0.000  0.003  0.010  0.013
    4  0.000  0.003  0.010  0.013
    5  0.000  0.000  0.000  0.000
    6  0.000  0.003  0.010  0.013
    7  0.000  0.003  0.010  0.013
    8  0.000  0.003  0.010  0.013
    9  0.030  0.003  0.001  0.033
   10  0.009  0.003  0.010  0.023
   11  0.001  0.000  0.015  0.016
   12  0.009  0.003  0.010  0.023
   13  0.001  0.000  0.015  0.016
   14  0.001  0.000  0.015  0.016
   15  0.006  0.003  0.017  0.026
   16  0.009  0.003  0.010  0.023
   17  0.006  0.003  0.017  0.026
   18  0.006  0.003  0.017  0.026
   19  0.005  0.004  0.018  0.026
   20  0.000  0.000  0.017  0.017
   21  0.000  0.000  0.017  0.017
   22  0.010  0.003  0.009  0.023
   23  0.000  0.000  0.017  0.017
   24  0.010  0.003  0.009  0.023
   25  0.005  0.004  0.017  0.026
   26  0.005  0.004  0.018  0.026
   27  0.010  0.003  0.009  0.023
   28  0.036  0.003  0.000  0.040
   29  0.000  0.003  0.011  0.014
   30  0.000  0.003  0.011  0.014
   31  0.000  0.003  0.011  0.014
   32  0.000  0.003  0.011  0.014
   33  0.000  0.003  0.011  0.014
   34  0.000  0.003  0.011  0.014
   35  0.028  0.003  0.001  0.032
   36  0.000  0.000  0.000  0.000
   37  0.000  0.000  0.000  0.000
tot    0.226  0.092  0.388  0.705
 
band    17 # energy   -4.92383944 # occ.  2.00000000
 
ion      s      p      d    tot
    1  0.003  0.001  0.003  0.007
    2  0.001  0.002  0.009  0.012
    3  0.001  0.002  0.009  0.012
    4  0.001  0.002  0.009  0.012
    5  0.037  0.002  0.001  0.040
    6  0.001  0.002  0.009  0.012
    7  0.001  0.002  0.009  0.012
    8  0.001  0.002  0.009  0.012
    9  0.001  0.001  0.004  0.007
   10  0.004  0.001  0.020  0.024
   11  0.001  0.002  0.018  0.021
   12  0.004  0.001  0.020  0.024
   13  0.001  0.002  0.018  0.021
   14  0.001  0.002  0.018  0.021
   15  0.008  0.001  0.015  0.024
   16  0.004  0.001  0.020  0.024
   17  0.008  0.001  0.015  0.024
   18  0.008  0.001  0.015  0.024
   19  0.013  0.001  0.021  0.034
   20  0.001  0.003  0.022  0.027
   21  0.001  0.003  0.022  0.027
   22  0.005  0.001  0.019  0.025
   23  0.001  0.003  0.022  0.027
   24  0.005  0.001  0.019  0.025
   25  0.013  0.001  0.021  0.034
   26  0.013  0.001  0.021  0.034
   27  0.005  0.001  0.019  0.025
   28  0.000  0.002  0.009  0.011
   29  0.003  0.001  0.009  0.014
   30  0.003  0.001  0.009  0.014
   31  0.003  0.001  0.009  0.014
   32  0.003  0.001  0.009  0.014
   33  0.003  0.001  0.009  0.014
   34  0.003  0.001  0.009  0.014
   35  0.000  0.001  0.006  0.007
   36  0.046  0.001  0.004  0.051
   37  0.003  0.028  0.000  0.031
tot    0.214  0.079  0.483  0.776
 
band    18 # energy   -4.67151429 # occ.  2.00000000
 
ion      s      p      d    tot
    1  0.000  0.000  0.002  0.002
    2  0.000  0.000  0.001  0.001
    3  0.001  0.000  0.001  0.002
    4  0.000  0.000  0.001  0.001
    5  0.000  0.000  0.001  0.001
    6  0.002  0.000  0.001  0.003
    7  0.001  0.000  0.001  0.002
    8  0.002  0.000  0.001  0.003
    9  0.000  0.001  0.001  0.002
   10  0.000  0.000  0.001  0.001
   11  0.000  0.000  0.001  0.001
   12  0.000  0.000  0.001  0.001
   13  0.000  0.000  0.001  0.001
   14  0.000  0.001  0.002  0.003
   15  0.000  0.000  0.004  0.004
   16  0.000  0.000  0.001  0.001
   17  0.000  0.000  0.004  0.004
   18  0.001  0.001  0.000  0.001
   19  0.000  0.002  0.007  0.009
   20  0.001  0.002  0.023  0.025
   21  0.000  0.000  0.008  0.009
   22  0.001  0.000  0.005  0.006
   23  0.000  0.000  0.009  0.009
   24  0.004  0.000  0.003  0.007
   25  0.000  0.000  0.001  0.001
   26  0.000  0.002  0.007  0.009
   27  0.001  0.000  0.005  0.006
   28  0.000  0.001  0.011  0.013
   29  0.014  0.001  0.013  0.028
   30  0.000  0.001  0.005  0.006
   31  0.014  0.001  0.012  0.028
   32  0.011  0.001  0.013  0.025
   33  0.000  0.001  0.005  0.006
   34  0.011  0.001  0.013  0.025
   35  0.000  0.001  0.013  0.014
   36  0.000  0.016  0.185  0.201
   37  0.000  0.297  0.000  0.297
tot    0.064  0.333  0.360  0.757
 
band    19 # energy   -4.67145830 # occ.  2.00000000
 
ion      s      p      d    tot
    1  0.000  0.000  0.002  0.002
    2  0.002  0.000  0.001  0.003
    3  0.001  0.000  0.001  0.002
    4  0.002  0.000  0.001  0.003
    5  0.000  0.000  0.001  0.001
    6  0.000  0.000  0.001  0.001
    7  0.001  0.000  0.001  0.002
    8  0.000  0.000  0.001  0.001
    9  0.000  0.001  0.001  0.002
   10  0.000  0.000  0.001  0.002
   11  0.000  0.001  0.002  0.002
   12  0.000  0.000  0.001  0.001
   13  0.000  0.001  0.002  0.002
   14  0.000  0.000  0.001  0.001
   15  0.000  0.000  0.001  0.002
   16  0.000  0.000  0.001  0.001
   17  0.000  0.000  0.001  0.002
   18  0.000  0.000  0.005  0.005
   19  0.000  0.001  0.003  0.004
   20  0.000  0.000  0.004  0.004
   21  0.001  0.001  0.018  0.020
   22  0.003  0.000  0.003  0.007
   23  0.000  0.001  0.018  0.019
   24  0.000  0.000  0.005  0.006
   25  0.000  0.002  0.009  0.011
   26  0.000  0.001  0.003  0.004
   27  0.003  0.000  0.003  0.007
   28  0.000  0.001  0.011  0.013
   29  0.003  0.001  0.008  0.011
   30  0.016  0.001  0.016  0.033
   31  0.003  0.001  0.008  0.012
   32  0.006  0.001  0.007  0.014
   33  0.016  0.001  0.016  0.033
   34  0.006  0.001  0.007  0.014
   35  0.000  0.001  0.013  0.014
   36  0.000  0.016  0.185  0.201
   37  0.000  0.297  0.000  0.297
tot    0.064  0.333  0.360  0.757
 
band    20 # energy   -4.61984088 # occ.  2.00000000
 
ion      s      p      d    tot
    1  0.009  0.000  0.000  0.010
    2  0.000  0.001  0.005  0.006
    3  0.000  0.001  0.005  0.006
    4  0.000  0.001  0.005  0.006
    5  0.010  0.001  0.001  0.012
    6  0.000  0.001  0.005  0.006
    7  0.000  0.001  0.005  0.006
    8  0.000  0.001  0.005  0.006
    9  0.001  0.000  0.001  0.001
   10  0.000  0.000  0.014  0.015
   11  0.001  0.003  0.015  0.019
   12  0.000  0.000  0.014  0.015
   13  0.001  0.003  0.015  0.019
   14  0.001  0.003  0.015  0.019
   15  0.000  0.000  0.003  0.004
   16  0.000  0.000  0.014  0.015
   17  0.000  0.000  0.003  0.004
   18  0.000  0.000  0.003  0.004
   19  0.000  0.000  0.012  0.013
   20  0.008  0.000  0.019  0.028
   21  0.008  0.000  0.019  0.028
   22  0.000  0.002  0.021  0.023
   23  0.008  0.000  0.019  0.028
   24  0.000  0.002  0.021  0.023
   25  0.000  0.000  0.012  0.013
   26  0.000  0.000  0.012  0.013
   27  0.000  0.002  0.021  0.023
   28  0.004  0.000  0.001  0.005
   29  0.000  0.002  0.014  0.016
   30  0.000  0.002  0.014  0.016
   31  0.000  0.002  0.014  0.016
   32  0.000  0.002  0.013  0.016
   33  0.000  0.002  0.014  0.016
   34  0.000  0.002  0.013  0.016
   35  0.021  0.001  0.003  0.025
   36  0.001  0.011  0.160  0.172
   37  0.008  0.198  0.000  0.206
tot    0.085  0.245  0.531  0.861
 
band    21 # energy   -4.43213391 # occ.  2.00000000
 
ion      s      p      d    tot
    1  0.000  0.000  0.026  0.027
    2  0.013  0.001  0.007  0.022
    3  0.008  0.001  0.007  0.016
    4  0.013  0.001  0.007  0.022
    5  0.000  0.001  0.010  0.011
    6  0.001  0.001  0.007  0.009
    7  0.008  0.001  0.007  0.016
    8  0.001  0.001  0.007  0.009
    9  0.000  0.003  0.005  0.008
   10  0.000  0.000  0.055  0.055
   11  0.000  0.004  0.015  0.018
   12  0.000  0.000  0.019  0.019
   13  0.000  0.004  0.014  0.018
   14  0.000  0.000  0.003  0.003
   15  0.000  0.004  0.014  0.018
   16  0.000  0.000  0.019  0.019
   17  0.000  0.004  0.014  0.019
   18  0.000  0.000  0.030  0.030
   19  0.005  0.002  0.013  0.020
   20  0.000  0.000  0.062  0.062
   21  0.000  0.000  0.029  0.030
   22  0.002  0.002  0.014  0.018
   23  0.000  0.000  0.029  0.029
   24  0.000  0.000  0.011  0.011
   25  0.000  0.000  0.020  0.020
   26  0.005  0.002  0.013  0.020
   27  0.002  0.002  0.014  0.019
   28  0.000  0.000  0.012  0.012
   29  0.011  0.001  0.021  0.033
   30  0.001  0.001  0.017  0.019
   31  0.011  0.001  0.021  0.033
   32  0.007  0.000  0.019  0.026
   33  0.000  0.001  0.017  0.019
   34  0.007  0.000  0.019  0.026
   35  0.000  0.002  0.002  0.004
   36  0.000  0.001  0.061  0.061