 vasp.6.2.0 18Jan21 (build Jun 12 2021 23:27:24) complex                        
  
 executed on             LinuxIFC date 2022.05.28  00:41:58
 running on   28 total cores
 distrk:  each k-point on   28 cores,    1 groups
 distr:  one band on NCORE=   1 cores,   28 groups


--------------------------------------------------------------------------------------------------------


 INCAR:
   ISMEAR = -5
   SIGMA = 0.1
   ISPIN = 1
   EDIFF = 1.d-5
   EDIFFG = -0.01
   NSW = 0
   NELM = 150
   ENCUT = 500
   ISIF = 2
   IBRION = 2
   LREAL = Auto
   ALGO = Fast
   ICHARG = 11
   LORBIT = 10
   LCHARG = .F.
   LWAVE = .F.

 POTCAR:    PAW_PBE Au 04Oct2007                  
 POTCAR:    PAW_PBE Cr 06Sep2000                  
 POTCAR:    PAW_PBE O 08Apr2002                   
 POTCAR:    PAW_PBE H 15Jun2001                   
 -----------------------------------------------------------------------------
|                                                                             |
|           W    W    AA    RRRRR   N    N  II  N    N   GGGG   !!!           |
|           W    W   A  A   R    R  NN   N  II  NN   N  G    G  !!!           |
|           W    W  A    A  R    R  N N  N  II  N N  N  G       !!!           |
|           W WW W  AAAAAA  RRRRR   N  N N  II  N  N N  G  GGG   !            |
|           WW  WW  A    A  R   R   N   NN  II  N   NN  G    G                |
|           W    W  A    A  R    R  N    N  II  N    N   GGGG   !!!           |
|                                                                             |
|     For optimal performance we recommend to set                             |
|       NCORE = 2 up to number-of-cores-per-socket                            |
|     NCORE specifies how many cores store one orbital (NPAR=cpu/NCORE).      |
|     This setting can greatly improve the performance of VASP for DFT.       |
|     The default, NCORE=1 might be grossly inefficient on modern             |
|     multi-core architectures or massively parallel machines. Do your        |
|     own testing! More info at https://www.vasp.at/wiki/index.php/NCORE      |
|     Unfortunately you need to use the default for GW and RPA                |
|     calculations (for HF NCORE is supported but not extensively tested      |
|     yet).                                                                   |
|                                                                             |
 -----------------------------------------------------------------------------

 POTCAR:    PAW_PBE Au 04Oct2007                  
   VRHFIN =Au: s1d10                                                                                
   LEXCH  = PE                                                                                      
   EATOM  =   926.0867 eV,   68.0654 Ry                                                             
                                                                                                    
   TITEL  = PAW_PBE Au 04Oct2007                                                                    
   LULTRA =        F    use ultrasoft PP ?                                                          
   IUNSCR =        1    unscreen: 0-lin 1-nonlin 2-no                                               
   RPACOR =    2.330    partial core radius                                                         
   POMASS =  196.966; ZVAL   =   11.000    mass and valenz                                          
   RCORE  =    2.500    outmost cutoff radius                                                       
   RWIGS  =    2.840; RWIGS  =    1.503    wigner-seitz radius (au A)                               
   ENMAX  =  229.943; ENMIN  =  172.457 eV                                                          
   ICORE  =        3    local potential                                                             
   LCOR   =        T    correct aug charges                                                         
   LPAW   =        T    paw PP                                                                      
   EAUG   =  356.670                                                                                
   DEXC   =    0.000                                                                                
   RMAX   =    2.562    core radius for proj-oper                                                   
   RAUG   =    1.300    factor for augmentation sphere                                              
   RDEP   =    2.598    radius for radial grids                                                     
   RDEPT  =    2.193    core radius for aug-charge                                                  
                                                                                                    
   Atomic configuration                                                                             
   16 entries                                                                                       
     n  l   j            E        occ.                                                              
     1  0  0.50    -80748.5001   2.0000                                                             
     2  0  0.50    -14244.7466   2.0000                                                             
     2  1  1.50    -12310.9591   6.0000                                                             
     3  0  0.50     -3362.1768   2.0000                                                             
     3  1  1.50     -2801.5463   6.0000                                                             
     3  2  2.50     -2203.8206  10.0000                                                             
     4  0  0.50      -729.8168   2.0000                                                             
     4  1  1.50      -546.0527   6.0000                                                             
     4  2  2.50      -325.7302  10.0000                                                             
     4  3  3.50       -81.1472  14.0000                                                             
     5  0  0.50      -108.3201   2.0000                                                             
     5  1  1.50       -59.7479   6.0000                                                             
     5  2  2.50        -6.8783  10.0000                                                             
     6  0  0.50        -5.7602   1.0000                                                             
     6  1  1.50        -6.8029   0.0000                                                             
     5  3  2.50        -1.3606   0.0000                                                             
   Description                                                                                      
     l       E           TYP  RCUT    TYP  RCUT                                                     
     2     -6.8782861     23  2.500                                                                 
     2     -8.2388687     23  2.500                                                                 
     0     -5.7601759     23  2.500                                                                 
     0     -0.8493231     23  2.500                                                                 
     1     -2.7211652     23  2.500                                                                 
     1     27.2116520     23  2.500                                                                 
     3     -1.3605826     23  2.500                                                                 
  local pseudopotential read in
  partial core-charges read in
  partial kinetic energy density read in
  atomic valenz-charges read in
  non local Contribution for L=           2  read in
    real space projection operators read in
  non local Contribution for L=           2  read in
    real space projection operators read in
  non local Contribution for L=           0  read in
    real space projection operators read in
  non local Contribution for L=           0  read in
    real space projection operators read in
  non local Contribution for L=           1  read in
    real space projection operators read in
  non local Contribution for L=           1  read in
    real space projection operators read in
    PAW grid and wavefunctions read in
 
   number of l-projection  operators is LMAX  =           6
   number of lm-projection operators is LMMAX =          18
 
 POTCAR:    PAW_PBE Cr 06Sep2000                  
   VRHFIN =Cr : d5 s1                                                                               
   LEXCH  = PE                                                                                      
   EATOM  =   276.8859 eV,   20.3505 Ry                                                             
                                                                                                    
   TITEL  = PAW_PBE Cr 06Sep2000                                                                    
   LULTRA =        F    use ultrasoft PP ?                                                          
   IUNSCR =        1    unscreen: 0-lin 1-nonlin 2-no                                               
   RPACOR =    2.080    partial core radius                                                         
   POMASS =   51.996; ZVAL   =    6.000    mass and valenz                                          
   RCORE  =    2.500    outmost cutoff radius                                                       
   RWIGS  =    2.500; RWIGS  =    1.323    wigner-seitz radius (au A)                               
   ENMAX  =  227.080; ENMIN  =  170.310 eV                                                          
   RCLOC  =    1.721    cutoff for local pot                                                        
   LCOR   =        T    correct aug charges                                                         
   LPAW   =        T    paw PP                                                                      
   EAUG   =  402.108                                                                                
   DEXC   =    0.000                                                                                
   RMAX   =    2.552    core radius for proj-oper                                                   
   RAUG   =    1.300    factor for augmentation sphere                                              
   RDEP   =    2.609    radius for radial grids                                                     
   RDEPT  =    2.065    core radius for aug-charge                                                  
                                                                                                    
   Atomic configuration                                                                             
    9 entries                                                                                       
     n  l   j            E        occ.                                                              
     1  0  0.50     -5880.4963   2.0000                                                             
     2  0  0.50      -667.0865   2.0000                                                             
     2  1  1.50      -560.6250   6.0000                                                             
     3  0  0.50       -73.9860   2.0000                                                             
     3  1  1.50       -45.4378   6.0000                                                             
     3  2  2.50        -2.9137   5.0000                                                             
     4  0  0.50        -4.0071   1.0000                                                             
     4  1  0.50        -1.2789   0.0000                                                             
     4  3  2.50        -1.3606   0.0000                                                             
   Description                                                                                      
     l       E           TYP  RCUT    TYP  RCUT                                                     
     2     -2.9136677     23  2.500                                                                 
     2     -4.2742503     23  2.500                                                                 
     0     -4.0071322     23  2.500                                                                 
     0      9.4498801     23  2.500                                                                 
     1     -5.4423304     23  2.500                                                                 
     1     27.2116520     23  2.500                                                                 
  local pseudopotential read in
  partial core-charges read in
  partial kinetic energy density read in
  atomic valenz-charges read in
  non local Contribution for L=           2  read in
    real space projection operators read in
  non local Contribution for L=           2  read in
    real space projection operators read in
  non local Contribution for L=           0  read in
    real space projection operators read in
  non local Contribution for L=           0  read in
    real space projection operators read in
  non local Contribution for L=           1  read in
    real space projection operators read in
  non local Contribution for L=           1  read in
    real space projection operators read in
    PAW grid and wavefunctions read in
 
   number of l-projection  operators is LMAX  =           6
   number of lm-projection operators is LMMAX =          18
 
 POTCAR:    PAW_PBE O 08Apr2002                   
   VRHFIN =O: s2p4                                                                                  
   LEXCH  = PE                                                                                      
   EATOM  =   432.3788 eV,   31.7789 Ry                                                             
                                                                                                    
   TITEL  = PAW_PBE O 08Apr2002                                                                     
   LULTRA =        F    use ultrasoft PP ?                                                          
   IUNSCR =        1    unscreen: 0-lin 1-nonlin 2-no                                               
   RPACOR =    1.200    partial core radius                                                         
   POMASS =   16.000; ZVAL   =    6.000    mass and valenz                                          
   RCORE  =    1.520    outmost cutoff radius                                                       
   RWIGS  =    1.550; RWIGS  =    0.820    wigner-seitz radius (au A)                               
   ENMAX  =  400.000; ENMIN  =  300.000 eV                                                          
   ICORE  =        2    local potential                                                             
   LCOR   =        T    correct aug charges                                                         
   LPAW   =        T    paw PP                                                                      
   EAUG   =  605.392                                                                                
   DEXC   =    0.000                                                                                
   RMAX   =    1.553    core radius for proj-oper                                                   
   RAUG   =    1.300    factor for augmentation sphere                                              
   RDEP   =    1.550    radius for radial grids                                                     
   RDEPT  =    1.329    core radius for aug-charge                                                  
                                                                                                    
   Atomic configuration                                                                             
    4 entries                                                                                       
     n  l   j            E        occ.                                                              
     1  0  0.50      -514.6923   2.0000                                                             
     2  0  0.50       -23.9615   2.0000                                                             
     2  1  0.50        -9.0305   4.0000                                                             
     3  2  1.50        -9.5241   0.0000                                                             
   Description                                                                                      
     l       E           TYP  RCUT    TYP  RCUT                                                     
     0    -23.9615318     23  1.200                                                                 
     0     -9.5240782     23  1.200                                                                 
     1     -9.0304911     23  1.520                                                                 
     1      8.1634956     23  1.520                                                                 
     2     -9.5240782      7  1.500                                                                 
  local pseudopotential read in
  partial core-charges read in
  partial kinetic energy density read in
  kinetic energy density of atom read in
  atomic valenz-charges read in
  non local Contribution for L=           0  read in
    real space projection operators read in
  non local Contribution for L=           0  read in
    real space projection operators read in
  non local Contribution for L=           1  read in
    real space projection operators read in
  non local Contribution for L=           1  read in
    real space projection operators read in
    PAW grid and wavefunctions read in
 
   number of l-projection  operators is LMAX  =           4
   number of lm-projection operators is LMMAX =           8
 
 POTCAR:    PAW_PBE H 15Jun2001                   
   VRHFIN =H: ultrasoft test                                                                        
   LEXCH  = PE                                                                                      
   EATOM  =    12.4884 eV,    0.9179 Ry                                                             
                                                                                                    
   TITEL  = PAW_PBE H 15Jun2001                                                                     
   LULTRA =        F    use ultrasoft PP ?                                                          
   IUNSCR =        0    unscreen: 0-lin 1-nonlin 2-no                                               
   RPACOR =    0.000    partial core radius                                                         
   POMASS =    1.000; ZVAL   =    1.000    mass and valenz                                          
   RCORE  =    1.100    outmost cutoff radius                                                       
   RWIGS  =    0.700; RWIGS  =    0.370    wigner-seitz radius (au A)                               
   ENMAX  =  250.000; ENMIN  =  200.000 eV                                                          
   RCLOC  =    0.701    cutoff for local pot                                                        
   LCOR   =        T    correct aug charges                                                         
   LPAW   =        T    paw PP                                                                      
   EAUG   =  400.000                                                                                
   RMAX   =    1.123    core radius for proj-oper                                                   
   RAUG   =    1.200    factor for augmentation sphere                                              
   RDEP   =    1.112    radius for radial grids                                                     
   RDEPT  =    0.926    core radius for aug-charge                                                  
                                                                                                    
   Atomic configuration                                                                             
    2 entries                                                                                       
     n  l   j            E        occ.                                                              
     1  0  0.50        -6.4927   1.0000                                                             
     2  1  0.50        -3.4015   0.0000                                                             
   Description                                                                                      
     l       E           TYP  RCUT    TYP  RCUT                                                     
     0     -6.4927494     23  1.100                                                                 
     0      6.8029130     23  1.100                                                                 
     1     -4.0817478     23  1.100                                                                 
  local pseudopotential read in
  atomic valenz-charges read in
  non local Contribution for L=           0  read in
    real space projection operators read in
  non local Contribution for L=           0  read in
    real space projection operators read in
  non local Contribution for L=           1  read in
    real space projection operators read in
    PAW grid and wavefunctions read in
 
   number of l-projection  operators is LMAX  =           3
   number of lm-projection operators is LMMAX =           5
 
 Optimization of the real space projectors (new method)

 maximal supplied QI-value         = 15.12
 optimisation between [QCUT,QGAM] = [ 11.34, 22.83] = [ 36.00,145.93] Ry 
 Optimized for a Real-space Cutoff    1.39 Angstroem

   l    n(q)    QCUT    max X(q) W(low)/X(q) W(high)/X(q)  e(spline) 
   2      9    11.338    60.898    0.39E-03    0.42E-03    0.21E-06
   2      9    11.338    58.894    0.40E-03    0.42E-03    0.22E-06
   0      9    11.338   109.617    0.13E-03    0.20E-04    0.13E-06
   0      9    11.338    75.026    0.13E-03    0.20E-04    0.13E-06
   1      9    11.338    16.344    0.33E-04    0.24E-03    0.18E-06
   1      9    11.338    10.160    0.26E-04    0.19E-03    0.15E-06
 Optimization of the real space projectors (new method)

 maximal supplied QI-value         = 15.12
 optimisation between [QCUT,QGAM] = [ 11.34, 22.83] = [ 36.00,145.93] Ry 
 Optimized for a Real-space Cutoff    1.43 Angstroem

   l    n(q)    QCUT    max X(q) W(low)/X(q) W(high)/X(q)  e(spline) 
   2      9    11.338    94.395    0.18E-03    0.10E-02    0.64E-06
   2      9    11.338    88.078    0.18E-03    0.10E-02    0.65E-06
   0     10    11.338    50.173    0.13E-03    0.16E-03    0.96E-07
   0     10    11.338    24.906    0.12E-03    0.14E-03    0.88E-07
   1      9    11.338    12.133    0.13E-03    0.15E-03    0.24E-06
   1      9    11.338     7.290    0.10E-03    0.10E-03    0.18E-06
 Optimization of the real space projectors (new method)

 maximal supplied QI-value         = 24.76
 optimisation between [QCUT,QGAM] = [ 11.39, 22.77] = [ 36.31,145.25] Ry 
 Optimized for a Real-space Cutoff    1.00 Angstroem

   l    n(q)    QCUT    max X(q) W(low)/X(q) W(high)/X(q)  e(spline) 
   0      7    11.387    20.381    0.39E-03    0.13E-02    0.15E-06
   0      7    11.387    15.268    0.42E-03    0.14E-02    0.17E-06
   1      6    11.387     5.964    0.41E-03    0.11E-02    0.17E-06
   1      6    11.387     5.382    0.39E-03    0.87E-03    0.15E-06
 Optimization of the real space projectors (new method)

 maximal supplied QI-value         = 34.20
 optimisation between [QCUT,QGAM] = [ 11.29, 22.57] = [ 35.68,142.71] Ry 
 Optimized for a Real-space Cutoff    1.16 Angstroem

   l    n(q)    QCUT    max X(q) W(low)/X(q) W(high)/X(q)  e(spline) 
   0      8    11.287    19.460    0.40E-03    0.73E-03    0.16E-06
   0      8    11.287    12.209    0.38E-03    0.70E-03    0.15E-06
   1      7    11.287     4.655    0.22E-03    0.25E-04    0.22E-06
  PAW_PBE Au 04Oct2007                  :
 energy of atom  1       EATOM= -926.0867
 kinetic energy error for atom=    0.0042 (will be added to EATOM!!)
  PAW_PBE Cr 06Sep2000                  :
 energy of atom  2       EATOM= -276.8859
 kinetic energy error for atom=    0.0012 (will be added to EATOM!!)
  PAW_PBE O 08Apr2002                   :
 energy of atom  3       EATOM= -432.3788
 kinetic energy error for atom=    0.0224 (will be added to EATOM!!)
  PAW_PBE H 15Jun2001                   :
 energy of atom  4       EATOM=  -12.4884
 kinetic energy error for atom=    0.0020 (will be added to EATOM!!)
 
 
 POSCAR: Au-Cr-OOH
  positions in direct lattice
  velocities in cartesian coordinates
 exchange correlation table for  LEXCH =        8
   RHO(1)=    0.500       N(1)  =     2000
   RHO(2)=  100.500       N(2)  =     4000

 VTST: version 3.2, (02/03/18)

 CHAIN: initializing optimizer
 
 OPT: Using VASP Conjugate-Gradient optimizer
 CHAIN: Read ICHAIN            0
 
 POSCAR: Au-Cr-OOH
  positions in direct lattice
  velocities in cartesian coordinates
 


--------------------------------------------------------------------------------------------------------


 ion  position               nearest neighbor table
   1  0.000  0.000  0.204-  16 2.94  12 2.94   6 2.94   8 2.94   7 2.94   3 2.94  10 2.94   4 2.94
                             2 2.94
   2  0.333  0.000  0.204-   9 2.94  11 2.94  17 2.94  10 2.94   8 2.94   4 2.94   5 2.94   1 2.94
                             3 2.94
   3  0.667  0.000  0.204-   7 2.94  18 2.94  12 2.94   1 2.94  11 2.94   5 2.94   6 2.94   9 2.94
                             2 2.94
   4  0.000  0.333  0.204-  10 2.94   6 2.94   5 2.94  13 2.94   2 2.94  15 2.94   9 2.94   1 2.94
                             7 2.94
   5  0.333  0.333  0.204-  13 2.94   7 2.94  11 2.94   4 2.94   2 2.94  14 2.94   3 2.94   8 2.94
                             6 2.94
   6  0.667  0.333  0.204-  15 2.94  14 2.94   1 2.94  12 2.94   4 2.94   9 2.94   8 2.94   3 2.94
                             5 2.94
   7  0.000  0.667  0.204-  18 2.94   3 2.94  16 2.94   5 2.94   1 2.94  13 2.94   8 2.94   4 2.94
                             9 2.94
   8  0.333  0.667  0.204-   9 2.94  17 2.94   1 2.94   2 2.94  14 2.94  16 2.94   6 2.94   7 2.94
                             5 2.94
   9  0.667  0.667  0.204-   2 2.94   8 2.94  17 2.94   6 2.94  15 2.94   4 2.94   3 2.94  18 2.94
                             7 2.94
  10  0.111  0.111  0.296-  20 2.92  26 2.94  19 2.94  11 2.94  17 2.94   2 2.94   4 2.94   1 2.94
                            12 2.94  16 2.94  13 2.94  15 2.94
  11  0.444  0.111  0.296-  20 2.91  21 2.91  27 2.93  13 2.94   2 2.94  10 2.94  17 2.94   5 2.94
                             3 2.94  18 2.94  14 2.94  12 2.94
  12  0.778  0.111  0.296-  21 2.92  25 2.94  19 2.94  16 2.94  18 2.94   1 2.94  14 2.94  15 2.94
                             3 2.94   6 2.94  10 2.94  11 2.94
  13  0.111  0.444  0.296-  23 2.91  20 2.91  22 2.93   5 2.94  18 2.94  11 2.94   7 2.94   4 2.94
                            16 2.94  10 2.94  14 2.94  15 2.94
  14  0.444  0.444  0.296-  21 2.91  23 2.91  24 2.93  15 2.94   6 2.94  12 2.94   8 2.94  17 2.94
                             5 2.94  16 2.94  13 2.94  11 2.94
  15  0.778  0.444  0.296-  24 2.92  22 2.92  19 2.94  14 2.94   6 2.94  17 2.94  12 2.94   9 2.94
                             4 2.94  10 2.94  13 2.94  18 2.94
  16  0.111  0.778  0.296-  23 2.92  25 2.94  26 2.94  18 2.94  12 2.94   7 2.94   1 2.94   8 2.94
                            13 2.94  10 2.94  14 2.94  17 2.94
  17  0.444  0.778  0.296-  27 2.92  24 2.92  26 2.94   9 2.94  15 2.94   2 2.94  10 2.94  11 2.94
                             8 2.94  14 2.94  16 2.94  18 2.94
  18  0.778  0.778  0.296-  22 2.92  27 2.92  25 2.94  16 2.94   7 2.94  13 2.94  12 2.94   3 2.94
                            11 2.94   9 2.94  15 2.94  17 2.94
  19  0.889  0.222  0.389-  10 2.94  12 2.94  15 2.94  26 2.94  25 2.94  24 2.94  22 2.94  28 2.95
                            21 2.95  20 2.95  32 3.00  31 3.00
  20  0.223  0.223  0.388-  36 2.71  11 2.91  13 2.91  23 2.91  21 2.91  29 2.92  31 2.92  10 2.92
                            26 2.95  19 2.95  27 2.96  22 2.96
  21  0.553  0.223  0.388-  36 2.71  14 2.91  11 2.91  20 2.91  23 2.91  30 2.92  32 2.92  12 2.92
                            25 2.95  19 2.95  27 2.96  24 2.96
  22  0.886  0.557  0.388-  24 2.90  27 2.90  18 2.92  15 2.92  13 2.93  25 2.94  19 2.94  23 2.96
                            20 2.96  35 2.96  33 2.96  31 2.96
  23  0.223  0.553  0.388-  36 2.71  13 2.91  14 2.91  20 2.91  21 2.91  33 2.92  34 2.92  16 2.92
                            25 2.95  26 2.95  22 2.96  24 2.96
  24  0.557  0.557  0.388-  27 2.90  22 2.90  15 2.92  17 2.92  14 2.93  26 2.94  19 2.94  21 2.96
                            23 2.96  35 2.96  32 2.96  34 2.96
  25  0.889  0.889  0.389-  16 2.94  12 2.94  18 2.94  19 2.94  26 2.94  22 2.94  27 2.94  28 2.95
                            23 2.95  21 2.95  33 3.00  30 3.00
  26  0.222  0.889  0.389-  10 2.94  16 2.94  17 2.94  19 2.94  25 2.94  27 2.94  24 2.94  28 2.95
                            20 2.95  23 2.95  29 3.00  34 3.00
  27  0.557  0.886  0.388-  24 2.90  22 2.90  17 2.92  18 2.92  11 2.93  26 2.94  25 2.94  20 2.96
                            21 2.96  35 2.96  29 2.96  30 2.96
  28  0.000  0.000  0.482-  25 2.95  19 2.95  26 2.95  34 2.99  32 2.99  33 2.99  30 2.99  31 2.99
                            29 2.99
  29  0.334  0.011  0.481-  38 2.28  30 2.84  31 2.84  36 2.86  20 2.92  27 2.96  35 2.99  28 2.99
                            26 3.00  34 3.13
  30  0.655  0.011  0.481-  29 2.84  32 2.84  36 2.86  21 2.92  27 2.96  35 2.99  28 2.99  25 3.00
                            33 3.13
  31  0.011  0.334  0.481-  38 2.28  33 2.84  29 2.84  36 2.86  20 2.92  22 2.96  35 2.99  28 2.99
                            19 3.00  32 3.13
  32  0.655  0.334  0.481-  34 2.84  30 2.84  36 2.86  21 2.92  24 2.96  35 2.99  28 2.99  19 3.00
                            31 3.13
  33  0.011  0.655  0.481-  31 2.84  34 2.84  36 2.86  23 2.92  22 2.96  35 2.99  28 2.99  25 3.00
                            30 3.13
  34  0.334  0.655  0.481-  32 2.84  33 2.84  36 2.86  23 2.92  24 2.96  35 2.99  28 2.99  26 3.00
                            29 3.13
  35  0.667  0.667  0.482-  24 2.96  27 2.96  22 2.96  29 2.99  34 2.99  32 2.99  31 2.99  30 2.99
                            33 2.99
  36  0.333  0.333  0.470-  37 1.61  20 2.71  23 2.71  21 2.71  33 2.86  31 2.86  29 2.86  30 2.86
                            34 2.86  32 2.86
  37  0.336  0.337  0.532-  36 1.61
  38  0.154  0.155  0.549-  39 0.98  31 2.28  29 2.28
  39  0.212  0.213  0.566-  38 0.98
 
  LATTYP: Found a hexagonal cell.
 ALAT       =     8.8135128021
 C/A-ratio  =     2.9412617888
  
  Lattice vectors:
  
 A1 = (  -4.4067569092,  -7.6327256898,   0.0000000000)
 A2 = (   8.8135128021,   0.0000000000,   0.0000000000)
 A3 = (   0.0000000000,   0.0000000000,  25.9228484302)


Analysis of symmetry for initial positions (statically):
=====================================================================
 Subroutine PRICEL returns:
 Original cell was already a primitive cell.
 

 Routine SETGRP: Setting up the symmetry group for a 
 hexagonal supercell.


 Subroutine GETGRP returns: Found  1 space group operations
 (whereof  1 operations were pure point group operations)
 out of a pool of 24 trial point group operations.


The static configuration has the point symmetry C_1 .


Analysis of symmetry for dynamics (positions and initial velocities):
=====================================================================
 Subroutine PRICEL returns:
 Original cell was already a primitive cell.
 

 Routine SETGRP: Setting up the symmetry group for a 
 hexagonal supercell.


 Subroutine GETGRP returns: Found  1 space group operations
 (whereof  1 operations were pure point group operations)
 out of a pool of 24 trial point group operations.


The dynamic configuration has the point symmetry C_1 .


Analysis of constrained symmetry for selective dynamics:
=====================================================================
 Subroutine PRICEL returns:
 Original cell was already a primitive cell.
 

 Routine SETGRP: Setting up the symmetry group for a 
 hexagonal supercell.


 Subroutine GETGRP returns: Found  1 space group operations
 (whereof  1 operations were pure point group operations)
 out of a pool of 24 trial point group operations.


The constrained configuration has the point symmetry C_1 .


 Subroutine INISYM returns: Found  1 space group operations
 (whereof  1 operations are pure point group operations),
 and found     1 'primitive' translations


----------------------------------------------------------------------------------------

                                     Primitive cell                                     

  volume of cell :    1743.8592

  direct lattice vectors                    reciprocal lattice vectors
     8.813512802  0.000000000  0.000000000     0.113462137 -0.065507406  0.000000000
     4.406756909  7.632725690  0.000000000     0.000000000  0.131014796  0.000000000
     0.000000000  0.000000000 25.922848430     0.000000000  0.000000000  0.038576008

  length of vectors
     8.813512802  8.813512802 25.922848430     0.131014796  0.131014796  0.038576008

  position of ions in fractional coordinates (direct lattice)
     0.000000000  0.000000000  0.203695977
     0.333333343  0.000000000  0.203695977
     0.666666687  0.000000000  0.203695977
     1.000000000  0.333333343  0.203695977
     0.333333313  0.333333343  0.203695977
     0.666666687  0.333333343  0.203695977
     1.000000000  0.666666687  0.203695977
     0.333333343  0.666666687  0.203695977
     0.666666627  0.666666687  0.203695977
     0.111111119  0.111111112  0.296229562
     0.444444418  0.111111112  0.296229562
     0.777777791  0.111111112  0.296229562
     0.111111127  0.444444448  0.296229562
     0.444444478  0.444444448  0.296229562
     0.777777731  0.444444448  0.296229562
     0.111111090  0.777777791  0.296229562
     0.444444448  0.777777791  0.296229562
     0.777777851  0.777777791  0.296229562
     0.888912079  0.222175858  0.388653826
     0.223298761  0.223298746  0.387639028
     0.553402538  0.223298746  0.387639028
     0.886292395  0.556853833  0.387992163
     0.223298716  0.553402538  0.387639028
     0.556853833  0.556853833  0.387992163
     0.888912079  0.888912079  0.388653826
     0.222175888  0.888912079  0.388653826
     0.556853773  0.886292395  0.387992163
     0.000000000  0.000000000  0.481736319
     0.333652727  0.010952029  0.481487388
     0.655395274  0.010952029  0.481487388
     0.010952029  0.333652727  0.481487388
     0.655395274  0.333652727  0.481487388
     0.010952029  0.655395274  0.481487388
     0.333652727  0.655395274  0.481487388
     0.666666627  0.666666687  0.482038261
     0.333333313  0.333333343  0.469707799
     0.336424605  0.336812335  0.531714915
     0.153617108  0.154636743  0.549332634
     0.211628518  0.212743208  0.565597243

  ion indices of the primitive-cell ions
   primitive index   ion index
                 1           1
                 2           2
                 3           3
                 4           4
                 5           5
                 6           6
                 7           7
                 8           8
                 9           9
                10          10
                11          11
                12          12
                13          13
                14          14
                15          15
                16          16
                17          17
                18          18
                19          19
                20          20
                21          21
                22          22
                23          23
                24          24
                25          25
                26          26
                27          27
                28          28
                29          29
                30          30
                31          31
                32          32
                33          33
                34          34
                35          35
                36          36
                37          37
                38          38
                39          39

----------------------------------------------------------------------------------------

 
 
 KPOINTS: Automatic mesh                          

Automatic generation of k-mesh.
 Grid dimensions read from file:
 generate k-points for:    8    8    1

 Generating k-lattice:

  Cartesian coordinates                     Fractional coordinates (reciprocal lattice)
     0.014182767 -0.008188426  0.000000000     0.125000000 -0.000000000  0.000000000
     0.000000000  0.016376850  0.000000000     0.000000000  0.125000000  0.000000000
     0.000000000  0.000000000  0.038576008     0.000000000  0.000000000  1.000000000

  Length of vectors
     0.016376850  0.016376850  0.038576008

  Shift w.r.t. Gamma in fractional coordinates (k-lattice)
     0.000000000  0.000000000  0.000000000

 TETIRR: Found    192 inequivalent tetrahedra from      384
 
 Subroutine IBZKPT returns following result:
 ===========================================
 
 Found     34 irreducible k-points:
 
 Following reciprocal coordinates:
            Coordinates               Weight
  0.000000  0.000000  0.000000      1.000000
  0.125000  0.000000  0.000000      2.000000
  0.125000  0.125000  0.000000      2.000000
  0.000000  0.125000  0.000000      2.000000
  0.250000  0.000000  0.000000      2.000000
  0.250000  0.250000  0.000000      2.000000
  0.000000  0.250000  0.000000      2.000000
  0.375000 -0.000000  0.000000      2.000000
  0.375000  0.375000  0.000000      2.000000
  0.000000  0.375000  0.000000      2.000000
  0.500000  0.000000  0.000000      1.000000
  0.500000  0.500000  0.000000      1.000000
  0.000000  0.500000  0.000000      1.000000
  0.250000  0.125000  0.000000      2.000000
  0.125000  0.250000  0.000000      2.000000
 -0.125000  0.125000  0.000000      2.000000
  0.375000  0.125000  0.000000      2.000000
  0.250000  0.375000  0.000000      2.000000
 -0.125000  0.250000  0.000000      2.000000
  0.250000 -0.125000  0.000000      2.000000
 -0.125000 -0.375000  0.000000      2.000000
 -0.375000 -0.250000  0.000000      2.000000
  0.500000  0.125000  0.000000      2.000000
  0.375000  0.500000  0.000000      2.000000
 -0.125000  0.375000  0.000000      2.000000
  0.375000 -0.125000  0.000000      2.000000
 -0.125000  0.500000  0.000000      2.000000
  0.500000 -0.375000  0.000000      2.000000
  0.500000  0.250000  0.000000      2.000000
  0.250000  0.500000  0.000000      2.000000
 -0.250000  0.250000  0.000000      2.000000
 -0.375000  0.250000  0.000000      2.000000
  0.375000 -0.375000  0.000000      2.000000
 -0.250000  0.375000  0.000000      2.000000
 
 Following cartesian coordinates:
            Coordinates               Weight
  0.000000  0.000000  0.000000      1.000000
  0.014183 -0.008188  0.000000      2.000000
  0.014183  0.008188  0.000000      2.000000
  0.000000  0.016377  0.000000      2.000000
  0.028366 -0.016377  0.000000      2.000000
  0.028366  0.016377  0.000000      2.000000
  0.000000  0.032754  0.000000      2.000000
  0.042548 -0.024565  0.000000      2.000000
  0.042548  0.024565  0.000000      2.000000
  0.000000  0.049131  0.000000      2.000000
  0.056731 -0.032754  0.000000      1.000000
  0.056731  0.032754  0.000000      1.000000
  0.000000  0.065507  0.000000      1.000000
  0.028366 -0.000000  0.000000      2.000000
  0.014183  0.024565  0.000000      2.000000
 -0.014183  0.024565  0.000000      2.000000
  0.042548 -0.008188  0.000000      2.000000
  0.028366  0.032754  0.000000      2.000000
 -0.014183  0.040942  0.000000      2.000000
  0.028366 -0.032754  0.000000      2.000000
 -0.014183 -0.040942  0.000000      2.000000
 -0.042548 -0.008188  0.000000      2.000000
  0.056731 -0.016377  0.000000      2.000000
  0.042548  0.040942  0.000000      2.000000
 -0.014183  0.057319  0.000000      2.000000
  0.042548 -0.040942  0.000000      2.000000
 -0.014183  0.073696  0.000000      2.000000
  0.056731 -0.081884  0.000000      2.000000
  0.056731 -0.000000  0.000000      2.000000
  0.028366  0.049131  0.000000      2.000000
 -0.028366  0.049131  0.000000      2.000000
 -0.042548  0.057319  0.000000      2.000000
  0.042548 -0.073696  0.000000      2.000000
 -0.028366  0.065507  0.000000      2.000000
 


--------------------------------------------------------------------------------------------------------




 Dimension of arrays:
   k-points           NKPTS =     34   k-points in BZ     NKDIM =     34   number of bands    NBANDS=    252
   number of dos      NEDOS =    301   number of ions     NIONS =     39
   non local maximal  LDIM  =      6   non local SUM 2l+1 LMDIM =     18
   total plane-waves  NPLWV = 331776
   max r-space proj   IRMAX =   2387   max aug-charges    IRDMAX=  11833
   dimension x,y,z NGX =    48 NGY =   48 NGZ =  144
   dimension x,y,z NGXF=    96 NGYF=   96 NGZF=  288
   support grid    NGXF=    96 NGYF=   96 NGZF=  288
   ions per type =              35   1   2   1
   NGX,Y,Z   is equivalent  to a cutoff of   9.05,  9.05,  9.23 a.u.
   NGXF,Y,Z  is equivalent  to a cutoff of  18.11, 18.11, 18.47 a.u.

 SYSTEM =  unknown system                          
 POSCAR =  Au-Cr-OOH                               

 Startparameter for this run:
   NWRITE =      2    write-flag & timer
   PREC   = normal    normal or accurate (medium, high low for compatibility)
   ISTART =      0    job   : 0-new  1-cont  2-samecut
   ICHARG =     11    charge: 1-file 2-atom 10-const
   ISPIN  =      1    spin polarized calculation?
   LNONCOLLINEAR =      F non collinear calculations
   LSORBIT =      F    spin-orbit coupling
   INIWAV =      1    electr: 0-lowe 1-rand  2-diag
   LASPH  =      F    aspherical Exc in radial PAW
   METAGGA=      F    non-selfconsistent MetaGGA calc.

 Electronic Relaxation 1
   ENCUT  =  500.0 eV  36.75 Ry    6.06 a.u.  16.07 16.07 47.26*2*pi/ulx,y,z
   ENINI  =  500.0     initial cutoff
   ENAUG  =  605.4 eV  augmentation charge cutoff
   NELM   =    150;   NELMIN=  2; NELMDL= -5     # of ELM steps 
   EDIFF  = 0.1E-04   stopping-criterion for ELM
   LREAL  =      T    real-space projection
   NLSPLINE    = F    spline interpolate recip. space projectors
   LCOMPAT=      F    compatible to vasp.4.4
   GGA_COMPAT  = T    GGA compatible to vasp.4.4-vasp.4.6
   LMAXPAW     = -100 max onsite density
   LMAXMIX     =    2 max onsite mixed and CHGCAR
   VOSKOWN=      0    Vosko Wilk Nusair interpolation
   ROPT   =   -0.00050  -0.00050  -0.00050  -0.00050
 Ionic relaxation
   EDIFFG = -.1E-01   stopping-criterion for IOM
   NSW    =      0    number of steps for IOM
   NBLOCK =      1;   KBLOCK =      1    inner block; outer block 
   IBRION =     -1    ionic relax: 0-MD 1-quasi-New 2-CG
   NFREE  =      1    steps in history (QN), initial steepest desc. (CG)
   ISIF   =      2    stress and relaxation
   IWAVPR =     10    prediction:  0-non 1-charg 2-wave 3-comb
   ISYM   =      2    0-nonsym 1-usesym 2-fastsym
   LCORR  =      T    Harris-Foulkes like correction to forces

   POTIM  = 0.5000    time-step for ionic-motion
   TEIN   =    0.0    initial temperature
   TEBEG  =    0.0;   TEEND  =   0.0 temperature during run
   SMASS  =  -3.00    Nose mass-parameter (am)
   estimated Nose-frequenzy (Omega)   =  0.10E-29 period in steps = 0.13E+47 mass=  -0.178E-26a.u.
   SCALEE = 1.0000    scale energy and forces
   NPACO  =    256;   APACO  = 16.0  distance and # of slots for P.C.
   PSTRESS=    0.0 pullay stress

  Mass of Ions in am
   POMASS = 196.97 52.00 16.00  1.00
  Ionic Valenz
   ZVAL   =  11.00  6.00  6.00  1.00
  Atomic Wigner-Seitz radii
   RWIGS  =  -1.00 -1.00 -1.00 -1.00
  virtual crystal weights 
   VCA    =   1.00  1.00  1.00  1.00
   NELECT =     404.0000    total number of electrons
   NUPDOWN=      -1.0000    fix difference up-down

 DOS related values:
   EMIN   =  10.00;   EMAX   =-10.00  energy-range for DOS
   EFERMI =   0.00
   ISMEAR =    -5;   SIGMA  =   0.10  broadening in eV -4-tet -1-fermi 0-gaus

 Electronic relaxation 2 (details)
   IALGO  =     68    algorithm
   LDIAG  =      T    sub-space diagonalisation (order eigenvalues)
   LSUBROT=      F    optimize rotation matrix (better conditioning)
   TURBO    =      0    0=normal 1=particle mesh
   IRESTART =      0    0=no restart 2=restart with 2 vectors
   NREBOOT  =      0    no. of reboots
   NMIN     =      0    reboot dimension
   EREF     =   0.00    reference energy to select bands
   IMIX   =      4    mixing-type and parameters
     AMIX     =   0.40;   BMIX     =  1.00
     AMIX_MAG =   1.60;   BMIX_MAG =  1.00
     AMIN     =   0.10
     WC   =   100.;   INIMIX=   1;  MIXPRE=   1;  MAXMIX= -45

 Intra band minimization:
   WEIMIN = 0.0000     energy-eigenvalue tresh-hold
   EBREAK =  0.99E-08  absolut break condition
   DEPER  =   0.30     relativ break condition  

   TIME   =   0.40     timestep for ELM

  volume/ion in A,a.u.               =      44.71       301.75
  Fermi-wavevector in a.u.,A,eV,Ry     =   1.005460  1.900044 13.754808  1.010950
  Thomas-Fermi vector in A             =   2.138141
 
 Write flags
   LWAVE        =      F    write WAVECAR
   LDOWNSAMPLE  =      F    k-point downsampling of WAVECAR
   LCHARG       =      F    write CHGCAR
   LVTOT        =      F    write LOCPOT, total local potential
   LVHAR        =      F    write LOCPOT, Hartree potential only
   LELF         =      F    write electronic localiz. function (ELF)
   LORBIT       =     10    0 simple, 1 ext, 2 COOP (PROOUT), +10 PAW based schemes


 Dipole corrections
   LMONO  =      F    monopole corrections only (constant potential shift)
   LDIPOL =      F    correct potential (dipole corrections)
   IDIPOL =      0    1-x, 2-y, 3-z, 4-all directions 
   EPSILON=  1.0000000 bulk dielectric constant

 Exchange correlation treatment:
   GGA     =    --    GGA type
   LEXCH   =     8    internal setting for exchange type
   VOSKOWN=      0    Vosko Wilk Nusair interpolation
   LHFCALC =     F    Hartree Fock is set to
   LHFONE  =     F    Hartree Fock one center treatment
   AEXX    =    0.0000 exact exchange contribution

 Linear response parameters
   LEPSILON=     F    determine dielectric tensor
   LRPA    =     F    only Hartree local field effects (RPA)
   LNABLA  =     F    use nabla operator in PAW spheres
   LVEL    =     F    velocity operator in full k-point grid
   LINTERFAST=   F  fast interpolation
   KINTER  =     0    interpolate to denser k-point grid
   CSHIFT  =0.1000    complex shift for real part using Kramers Kronig
   OMEGAMAX=  -1.0    maximum frequency
   DEG_THRESHOLD= 0.2000000E-02 threshold for treating states as degnerate
   RTIME   =   -0.100 relaxation time in fs
  (WPLASMAI=    0.000 imaginary part of plasma frequency in eV, 0.658/RTIME)
   DFIELD  = 0.0000000 0.0000000 0.0000000 field for delta impulse in time
 
 Orbital magnetization related:
   ORBITALMAG=     F  switch on orbital magnetization
   LCHIMAG   =     F  perturbation theory with respect to B field
   DQ        =  0.001000  dq finite difference perturbation B field
   LLRAUG    =     F  two centre corrections for induced B field



--------------------------------------------------------------------------------------------------------


 Static calculation
 charge density and potential remain constant during run
 non-spin polarized calculation
 RMM-DIIS sequential band-by-band and
  variant of blocked Davidson during initial phase
 perform sub-space diagonalisation
    before iterative eigenvector-optimisation
 no mixing
 using additional bands           50
 real space projection scheme for non local part
 use partial core corrections
 calculate Harris-corrections to forces 
   (improved forces if not selfconsistent)
 use gradient corrections 
 WARNING: stress and forces are not correct
  (second derivative of E(xc) not defined)
 use of overlap-Matrix (Vanderbilt PP)
 Fermi weights with tetrahedron method with Bloechl corrections


--------------------------------------------------------------------------------------------------------


  energy-cutoff  :      500.00
  volume of cell :     1743.86
      direct lattice vectors                 reciprocal lattice vectors
     8.813512802  0.000000000  0.000000000     0.113462137 -0.065507406  0.000000000
     4.406756909  7.632725690  0.000000000     0.000000000  0.131014796  0.000000000
     0.000000000  0.000000000 25.922848430     0.000000000  0.000000000  0.038576008

  length of vectors
     8.813512802  8.813512802 25.922848430     0.131014796  0.131014796  0.038576008


 
 k-points in units of 2pi/SCALE and weight: Automatic mesh                          
   0.00000000  0.00000000  0.00000000       0.016
   0.01418277 -0.00818843  0.00000000       0.031
   0.01418277  0.00818842  0.00000000       0.031
   0.00000000  0.01637685  0.00000000       0.031
   0.02836553 -0.01637685  0.00000000       0.031
   0.02836553  0.01637685  0.00000000       0.031
   0.00000000  0.03275370  0.00000000       0.031
   0.04254830 -0.02456528  0.00000000       0.031
   0.04254830  0.02456527  0.00000000       0.031
   0.00000000  0.04913055  0.00000000       0.031
   0.05673107 -0.03275370  0.00000000       0.016
   0.05673107  0.03275370  0.00000000       0.016
   0.00000000  0.06550740  0.00000000       0.016
   0.02836553 -0.00000000  0.00000000       0.031
   0.01418277  0.02456527  0.00000000       0.031
  -0.01418277  0.02456528  0.00000000       0.031
   0.04254830 -0.00818843  0.00000000       0.031
   0.02836553  0.03275370  0.00000000       0.031
  -0.01418277  0.04094212  0.00000000       0.031
   0.02836553 -0.03275370  0.00000000       0.031
  -0.01418277 -0.04094212  0.00000000       0.031
  -0.04254830 -0.00818842  0.00000000       0.031
   0.05673107 -0.01637685  0.00000000       0.031
   0.04254830  0.04094212  0.00000000       0.031
  -0.01418277  0.05731897  0.00000000       0.031
   0.04254830 -0.04094213  0.00000000       0.031
  -0.01418277  0.07369582  0.00000000       0.031
   0.05673107 -0.08188425  0.00000000       0.031
   0.05673107 -0.00000000  0.00000000       0.031
   0.02836553  0.04913055  0.00000000       0.031
  -0.02836553  0.04913055  0.00000000       0.031
  -0.04254830  0.05731898  0.00000000       0.031
   0.04254830 -0.07369583  0.00000000       0.031
  -0.02836553  0.06550740  0.00000000       0.031
 
 k-points in reciprocal lattice and weights: Automatic mesh                          
   0.00000000  0.00000000  0.00000000       0.016
   0.12500000  0.00000000  0.00000000       0.031
   0.12500000  0.12500000  0.00000000       0.031
   0.00000000  0.12500000  0.00000000       0.031
   0.25000000  0.00000000  0.00000000       0.031
   0.25000000  0.25000000  0.00000000       0.031
   0.00000000  0.25000000  0.00000000       0.031
   0.37500000 -0.00000000  0.00000000       0.031
   0.37500000  0.37500000  0.00000000       0.031
   0.00000000  0.37500000  0.00000000       0.031
   0.50000000  0.00000000  0.00000000       0.016
   0.50000000  0.50000000  0.00000000       0.016
   0.00000000  0.50000000  0.00000000       0.016
   0.25000000  0.12500000  0.00000000       0.031
   0.12500000  0.25000000  0.00000000       0.031
  -0.12500000  0.12500000  0.00000000       0.031
   0.37500000  0.12500000  0.00000000       0.031
   0.25000000  0.37500000  0.00000000       0.031
  -0.12500000  0.25000000  0.00000000       0.031
   0.25000000 -0.12500000  0.00000000       0.031
  -0.12500000 -0.37500000  0.00000000       0.031
  -0.37500000 -0.25000000  0.00000000       0.031
   0.50000000  0.12500000  0.00000000       0.031
   0.37500000  0.50000000  0.00000000       0.031
  -0.12500000  0.37500000  0.00000000       0.031
   0.37500000 -0.12500000  0.00000000       0.031
  -0.12500000  0.50000000  0.00000000       0.031
   0.50000000 -0.37500000  0.00000000       0.031
   0.50000000  0.25000000  0.00000000       0.031
   0.25000000  0.50000000  0.00000000       0.031
  -0.25000000  0.25000000  0.00000000       0.031
  -0.37500000  0.25000000  0.00000000       0.031
   0.37500000 -0.37500000  0.00000000       0.031
  -0.25000000  0.37500000  0.00000000       0.031
 
 position of ions in fractional coordinates (direct lattice) 
   0.00000000  0.00000000  0.20369598
   0.33333334  0.00000000  0.20369598
   0.66666669  0.00000000  0.20369598
   0.00000000  0.33333334  0.20369598
   0.33333331  0.33333334  0.20369598
   0.66666669  0.33333334  0.20369598
   0.00000000  0.66666669  0.20369598
   0.33333334  0.66666669  0.20369598
   0.66666663  0.66666669  0.20369598
   0.11111112  0.11111111  0.29622956
   0.44444442  0.11111111  0.29622956
   0.77777779  0.11111111  0.29622956
   0.11111113  0.44444445  0.29622956
   0.44444448  0.44444445  0.29622956
   0.77777773  0.44444445  0.29622956
   0.11111109  0.77777779  0.29622956
   0.44444445  0.77777779  0.29622956
   0.77777785  0.77777779  0.29622956
   0.88891208  0.22217586  0.38865383
   0.22329876  0.22329875  0.38763903
   0.55340254  0.22329875  0.38763903
   0.88629239  0.55685383  0.38799216
   0.22329872  0.55340254  0.38763903
   0.55685383  0.55685383  0.38799216
   0.88891208  0.88891208  0.38865383
   0.22217589  0.88891208  0.38865383
   0.55685377  0.88629239  0.38799216
   0.00000000  0.00000000  0.48173632
   0.33365273  0.01095203  0.48148739
   0.65539527  0.01095203  0.48148739
   0.01095203  0.33365273  0.48148739
   0.65539527  0.33365273  0.48148739
   0.01095203  0.65539527  0.48148739
   0.33365273  0.65539527  0.48148739
   0.66666663  0.66666669  0.48203826
   0.33333331  0.33333334  0.46970780
   0.33642460  0.33681233  0.53171492
   0.15361711  0.15463674  0.54933263
   0.21162852  0.21274321  0.56559724
 
 position of ions in cartesian coordinates  (Angst):
   0.00000000  0.00000000  5.28037993
   2.93783769  0.00000000  5.28037993
   5.87567538  0.00000000  5.28037993
   1.46891901  2.54424197  5.28037993
   4.40675643  2.54424197  5.28037993
   7.34459439  2.54424197  5.28037993
   2.93783803  5.08848395  5.28037993
   5.87567571  5.08848395  5.28037993
   8.81351288  5.08848395  5.28037993
   1.46891893  0.84808064  7.67911405
   4.40675623  0.84808064  7.67911405
   7.34459418  0.84808064  7.67911405
   2.93783798  3.39232256  7.67911405
   5.87567574  3.39232256  7.67911405
   8.81351263  3.39232256  7.67911405
   4.40675667  5.93656453  7.67911405
   7.34459449  5.93656453  7.67911405
  10.28243270  5.93656453  7.67911405
   8.81351299  1.69580738 10.07501421
   2.95206978  1.70437808 10.04870776
   5.86144364  1.70437808 10.04870776
  10.26526884  4.25031255 10.05786203
   4.40675655  4.22396977 10.04870776
   7.36175786  4.25031255 10.05786203
  11.75165743  6.78482206 10.07501421
   5.87536948  6.78482206 10.07501421
   8.81351299  6.76482673 10.05786203
   0.00000000  0.00000000 12.48797758
   2.98891551  0.08359383 12.48152458
   5.82459757  0.08359383 12.48152458
   1.56685231  2.54667974 12.48152458
   7.24666110  2.54667974 12.48152458
   2.98469350  5.00245235 12.48152458
   5.82882023  5.00245235 12.48152458
   8.81351288  5.08848395 12.49580478
   4.40675643  2.54424197 12.17616408
   4.44933264  2.57079616 13.78356515
   2.03535288  1.18029984 14.24026660
   2.80269825  1.62381055 14.66189159
 


--------------------------------------------------------------------------------------------------------


 k-point   1 :   0.0000 0.0000 0.0000  plane waves:   44177
 k-point   2 :   0.1250 0.0000 0.0000  plane waves:   44218
 k-point   3 :   0.1250 0.1250 0.0000  plane waves:   44218
 k-point   4 :   0.0000 0.1250 0.0000  plane waves:   44218
 k-point   5 :   0.2500 0.0000 0.0000  plane waves:   44240
 k-point   6 :   0.2500 0.2500 0.0000  plane waves:   44240
 k-point   7 :   0.0000 0.2500 0.0000  plane waves:   44240
 k-point   8 :   0.3750-0.0000 0.0000  plane waves:   44282
 k-point   9 :   0.3750 0.3750 0.0000  plane waves:   44282
 k-point  10 :   0.0000 0.3750 0.0000  plane waves:   44282
 k-point  11 :   0.5000 0.0000 0.0000  plane waves:   44256
 k-point  12 :   0.5000 0.5000 0.0000  plane waves:   44256
 k-point  13 :   0.0000 0.5000 0.0000  plane waves:   44256
 k-point  14 :   0.2500 0.1250 0.0000  plane waves:   44224
 k-point  15 :   0.1250 0.2500 0.0000  plane waves:   44224
 k-point  16 :  -0.1250 0.1250 0.0000  plane waves:   44224
 k-point  17 :   0.3750 0.1250 0.0000  plane waves:   44278
 k-point  18 :   0.2500 0.3750 0.0000  plane waves:   44278
 k-point  19 :  -0.1250 0.2500 0.0000  plane waves:   44278
 k-point  20 :   0.2500-0.1250 0.0000  plane waves:   44278
 k-point  21 :  -0.1250-0.3750 0.0000  plane waves:   44278
 k-point  22 :  -0.3750-0.2500 0.0000  plane waves:   44278
 k-point  23 :   0.5000 0.1250 0.0000  plane waves:   44300
 k-point  24 :   0.3750 0.5000 0.0000  plane waves:   44300
 k-point  25 :  -0.1250 0.3750 0.0000  plane waves:   44300
 k-point  26 :   0.3750-0.1250 0.0000  plane waves:   44300
 k-point  27 :  -0.1250 0.5000 0.0000  plane waves:   44300
 k-point  28 :   0.5000-0.3750 0.0000  plane waves:   44300
 k-point  29 :   0.5000 0.2500 0.0000  plane waves:   44334
 k-point  30 :   0.2500 0.5000 0.0000  plane waves:   44334
 k-point  31 :  -0.2500 0.2500 0.0000  plane waves:   44334
 k-point  32 :  -0.3750 0.2500 0.0000  plane waves:   44304
 k-point  33 :   0.3750-0.3750 0.0000  plane waves:   44304
 k-point  34 :  -0.2500 0.3750 0.0000  plane waves:   44304

 maximum and minimum number of plane-waves per node :     44334    44177

 maximum number of plane-waves:     44334
 maximum index in each direction: 
   IXMAX=   16   IYMAX=   16   IZMAX=   47
   IXMIN=  -16   IYMIN=  -16   IZMIN=  -47


 serial   3D FFT for wavefunctions
 parallel 3D FFT for charge:
    minimum data exchange during FFTs selected (reduces bandwidth)


 total amount of memory used by VASP MPI-rank0   290888. kBytes
=======================================================================

   base      :      30000. kBytes
   nonlr-proj:      13584. kBytes
   fftplans  :       4948. kBytes
   grid      :      21313. kBytes
   one-center:        606. kBytes
   wavefun   :     220437. kBytes
 
     INWAV:  cpu time    0.0000: real time    0.0001
 initial charge density was supplied:
 number of electron     404.0000078 magnetization 
 keeping initial charge density in first step


--------------------------------------------------------------------------------------------------------


 Maximum index for non-local projection operator         2260
 Maximum index for augmentation-charges          838 (set IRDMAX)


--------------------------------------------------------------------------------------------------------


 First call to EWALD:  gamma=   0.147
 Maximum number of real-space cells 4x 4x 2
 Maximum number of reciprocal cells 2x 2x 5

    FEWALD:  cpu time    0.0013: real time    0.0014


--------------------------------------- Iteration      1(   1)  ---------------------------------------


    POTLOK:  cpu time    0.0576: real time    0.0584
    SETDIJ:  cpu time    0.0048: real time    0.0050
     EDDAV:  cpu time   27.1243: real time   27.1260
 BZINTS: Fermi energy:   10.853377;  404.000000 electrons
         Band energy: 0.129177E+04;  BLOECHL correction:   -0.009810
       DOS:  cpu time    0.0598: real time    0.0598
    --------------------------------------------
      LOOP:  cpu time   27.2466: real time   27.2493

 eigenvalue-minimisations  : 17136
 total energy-change (2. order) : 0.2798263E+04  (-0.1782668E+05)
 number of electron     404.0000078 magnetization 
 augmentation part      404.0000078 magnetization 

 Free energy of the ion-electron system (eV)
  ---------------------------------------------------
  alpha Z        PSCENC =       885.86172922
  Ewald energy   TEWEN  =    153343.19687342
  -Hartree energ DENC   =   -187591.16501458
  -exchange      EXHF   =         0.00000000
  -V(xc)+E(xc)   XCENC  =       556.95955356
  PAW double counting   =     36613.66361077   -35868.99231470
  entropy T*S    EENTRO =         0.00000000
  eigenvalues    EBANDS =      1291.76832033
  atomic energy  EATOM  =     33566.97019550
  Solvation  Ediel_sol  =         0.00000000
  ---------------------------------------------------
  free energy    TOTEN  =      2798.26295354 eV

  energy without entropy =     2798.26295354  energy(sigma->0) =     2798.26295354


--------------------------------------------------------------------------------------------------------




--------------------------------------- Iteration      1(   2)  ---------------------------------------


     EDDAV:  cpu time   29.3924: real time   29.3926
 BZINTS: Fermi energy:    0.846454;  404.000000 electrons
         Band energy:-0.145586E+04;  BLOECHL correction:   -0.041746
       DOS:  cpu time    0.0590: real time    0.0589
    --------------------------------------------
      LOOP:  cpu time   29.4513: real time   29.4516

 eigenvalue-minimisations  : 18984
 total energy-change (2. order) :-0.2747629E+04  (-0.2537368E+04)
 number of electron     404.0000078 magnetization 
 augmentation part      404.0000078 magnetization 

 Free energy of the ion-electron system (eV)
  ---------------------------------------------------
  alpha Z        PSCENC =       885.86172922
  Ewald energy   TEWEN  =    153343.19687342
  -Hartree energ DENC   =   -187591.16501458
  -exchange      EXHF   =         0.00000000
  -V(xc)+E(xc)   XCENC  =       556.95955356
  PAW double counting   =     36613.66361077   -35868.99231470
  entropy T*S    EENTRO =         0.00000000
  eigenvalues    EBANDS =     -1455.86072409
  atomic energy  EATOM  =     33566.97019550
  Solvation  Ediel_sol  =         0.00000000
  ---------------------------------------------------
  free energy    TOTEN  =        50.63390911 eV

  energy without entropy =       50.63390911  energy(sigma->0) =       50.63390911


--------------------------------------------------------------------------------------------------------




--------------------------------------- Iteration      1(   3)  ---------------------------------------


     EDDAV:  cpu time   31.0225: real time   31.0225
 BZINTS: Fermi energy:   -0.143781;  404.000000 electrons
         Band energy:-0.163266E+04;  BLOECHL correction:   -0.030914
       DOS:  cpu time    0.0586: real time    0.0586
    --------------------------------------------
      LOOP:  cpu time   31.0810: real time   31.0811

 eigenvalue-minimisations  : 20216
 total energy-change (2. order) :-0.1768032E+03  (-0.1699696E+03)
 number of electron     404.0000078 magnetization 
 augmentation part      404.0000078 magnetization 

 Free energy of the ion-electron system (eV)
  ---------------------------------------------------
  alpha Z        PSCENC =       885.86172922
  Ewald energy   TEWEN  =    153343.19687342
  -Hartree energ DENC   =   -187591.16501458
  -exchange      EXHF   =         0.00000000
  -V(xc)+E(xc)   XCENC  =       556.95955356
  PAW double counting   =     36613.66361077   -35868.99231470
  entropy T*S    EENTRO =         0.00000000
  eigenvalues    EBANDS =     -1632.66395974
  atomic energy  EATOM  =     33566.97019550
  Solvation  Ediel_sol  =         0.00000000
  ---------------------------------------------------
  free energy    TOTEN  =      -126.16932653 eV

  energy without entropy =     -126.16932653  energy(sigma->0) =     -126.16932653


--------------------------------------------------------------------------------------------------------




--------------------------------------- Iteration      1(   4)  ---------------------------------------


     EDDAV:  cpu time   29.4014: real time   29.4014
 BZINTS: Fermi energy:   -0.169100;  404.000000 electrons
         Band energy:-0.163744E+04;  BLOECHL correction:   -0.030249
       DOS:  cpu time    0.0587: real time    0.0587
    --------------------------------------------
      LOOP:  cpu time   29.4601: real time   29.4600

 eigenvalue-minimisations  : 18928
 total energy-change (2. order) :-0.4771351E+01  (-0.4754204E+01)
 number of electron     404.0000078 magnetization 
 augmentation part      404.0000078 magnetization 

 Free energy of the ion-electron system (eV)
  ---------------------------------------------------
  alpha Z        PSCENC =       885.86172922
  Ewald energy   TEWEN  =    153343.19687342
  -Hartree energ DENC   =   -187591.16501458
  -exchange      EXHF   =         0.00000000
  -V(xc)+E(xc)   XCENC  =       556.95955356
  PAW double counting   =     36613.66361077   -35868.99231470
  entropy T*S    EENTRO =         0.00000000
  eigenvalues    EBANDS =     -1637.43531085
  atomic energy  EATOM  =     33566.97019550
  Solvation  Ediel_sol  =         0.00000000
  ---------------------------------------------------
  free energy    TOTEN  =      -130.94067764 eV

  energy without entropy =     -130.94067764  energy(sigma->0) =     -130.94067764


--------------------------------------------------------------------------------------------------------




--------------------------------------- Iteration      1(   5)  ---------------------------------------


     EDDAV:  cpu time   32.7521: real time   32.7560
 BZINTS: Fermi energy:   -0.169700;  404.000000 electrons
         Band energy:-0.163760E+04;  BLOECHL correction:   -0.030232
       DOS:  cpu time    0.0587: real time    0.0587
    --------------------------------------------
      LOOP:  cpu time   32.8109: real time   32.8148

 eigenvalue-minimisations  : 21532
 total energy-change (2. order) :-0.1612981E+00  (-0.1612552E+00)
 number of electron     404.0000078 magnetization 
 augmentation part      404.0000078 magnetization 

 Free energy of the ion-electron system (eV)
  ---------------------------------------------------
  alpha Z        PSCENC =       885.86172922
  Ewald energy   TEWEN  =    153343.19687342
  -Hartree energ DENC   =   -187591.16501458
  -exchange      EXHF   =         0.00000000
  -V(xc)+E(xc)   XCENC  =       556.95955356
  PAW double counting   =     36613.66361077   -35868.99231470
  entropy T*S    EENTRO =         0.00000000
  eigenvalues    EBANDS =     -1637.59660892
  atomic energy  EATOM  =     33566.97019550
  Solvation  Ediel_sol  =         0.00000000
  ---------------------------------------------------
  free energy    TOTEN  =      -131.10197572 eV

  energy without entropy =     -131.10197572  energy(sigma->0) =     -131.10197572


--------------------------------------------------------------------------------------------------------




--------------------------------------- Iteration      1(   6)  ---------------------------------------


    EDDIAG:  cpu time    5.4261: real time    5.4263
  RMM-DIIS:  cpu time   15.8598: real time   15.8598
    ORTHCH:  cpu time    1.0153: real time    1.0153
 BZINTS: Fermi energy:   -0.169702;  404.000000 electrons
         Band energy:-0.163760E+04;  BLOECHL correction:   -0.030232
       DOS:  cpu time    0.0588: real time    0.0588
    --------------------------------------------
      LOOP:  cpu time   22.3600: real time   22.3602

 eigenvalue-minimisations  : 17617
 total energy-change (2. order) :-0.4092694E-02  (-0.4092383E-02)
 number of electron     404.0000078 magnetization 
 augmentation part      404.0000078 magnetization 

 Free energy of the ion-electron system (eV)
  ---------------------------------------------------
  alpha Z        PSCENC =       885.86172922
  Ewald energy   TEWEN  =    153343.19687342
  -Hartree energ DENC   =   -187591.16501458
  -exchange      EXHF   =         0.00000000
  -V(xc)+E(xc)   XCENC  =       556.95955356
  PAW double counting   =     36613.66361077   -35868.99231470
  entropy T*S    EENTRO =         0.00000000
  eigenvalues    EBANDS =     -1637.60070162
  atomic energy  EATOM  =     33566.97019550
  Solvation  Ediel_sol  =         0.00000000
  ---------------------------------------------------
  free energy    TOTEN  =      -131.10606841 eV

  energy without entropy =     -131.10606841  energy(sigma->0) =     -131.10606841


--------------------------------------------------------------------------------------------------------




--------------------------------------- Iteration      1(   7)  ---------------------------------------


    EDDIAG:  cpu time    5.4236: real time    5.4238
  RMM-DIIS:  cpu time   22.2832: real time   22.2831
    ORTHCH:  cpu time    1.0148: real time    1.0148
 BZINTS: Fermi energy:   -0.169703;  404.000000 electrons
         Band energy:-0.163760E+04;  BLOECHL correction:   -0.030233
       DOS:  cpu time    0.0599: real time    0.0599
    --------------------------------------------
      LOOP:  cpu time   28.7815: real time   28.7816

 eigenvalue-minimisations  : 24941
 total energy-change (2. order) :-0.2085665E-02  (-0.2025591E-02)
 number of electron     404.0000078 magnetization 
 augmentation part      404.0000078 magnetization 

 Free energy of the ion-electron system (eV)
  ---------------------------------------------------
  alpha Z        PSCENC =       885.86172922
  Ewald energy   TEWEN  =    153343.19687342
  -Hartree energ DENC   =   -187591.16501458
  -exchange      EXHF   =         0.00000000
  -V(xc)+E(xc)   XCENC  =       556.95955356
  PAW double counting   =     36613.66361077   -35868.99231470
  entropy T*S    EENTRO =         0.00000000
  eigenvalues    EBANDS =     -1637.60278728
  atomic energy  EATOM  =     33566.97019550
  Solvation  Ediel_sol  =         0.00000000
  ---------------------------------------------------
  free energy    TOTEN  =      -131.10815408 eV

  energy without entropy =     -131.10815408  energy(sigma->0) =     -131.10815408


--------------------------------------------------------------------------------------------------------




--------------------------------------- Iteration      1(   8)  ---------------------------------------


    EDDIAG:  cpu time    5.4242: real time    5.4243
  RMM-DIIS:  cpu time   18.9545: real time   18.9545
    ORTHCH:  cpu time    1.0145: real time    1.0145
 BZINTS: Fermi energy:   -0.169703;  404.000000 electrons
         Band energy:-0.163760E+04;  BLOECHL correction:   -0.030233
       DOS:  cpu time    0.0587: real time    0.0587
    --------------------------------------------
      LOOP:  cpu time   25.4519: real time   25.4520

 eigenvalue-minimisations  : 20937
 total energy-change (2. order) :-0.2003780E-03  (-0.2006399E-03)
 number of electron     404.0000078 magnetization 
 augmentation part      404.0000078 magnetization 

 Free energy of the ion-electron system (eV)
  ---------------------------------------------------
  alpha Z        PSCENC =       885.86172922
  Ewald energy   TEWEN  =    153343.19687342
  -Hartree energ DENC   =   -187591.16501458
  -exchange      EXHF   =         0.00000000
  -V(xc)+E(xc)   XCENC  =       556.95955356
  PAW double counting   =     36613.66361077   -35868.99231470
  entropy T*S    EENTRO =         0.00000000
  eigenvalues    EBANDS =     -1637.60298766
  atomic energy  EATOM  =     33566.97019550
  Solvation  Ediel_sol  =         0.00000000
  ---------------------------------------------------
  free energy    TOTEN  =      -131.10835446 eV

  energy without entropy =     -131.10835446  energy(sigma->0) =     -131.10835446


--------------------------------------------------------------------------------------------------------




--------------------------------------- Iteration      1(   9)  ---------------------------------------


    EDDIAG:  cpu time    5.4265: real time    5.4267
  RMM-DIIS:  cpu time   20.6612: real time   20.6611
    ORTHCH:  cpu time    1.0154: real time    1.0155
 BZINTS: Fermi energy:   -0.169703;  404.000000 electrons
         Band energy:-0.163760E+04;  BLOECHL correction:   -0.030233
       DOS:  cpu time    0.0587: real time    0.0587
    --------------------------------------------
      LOOP:  cpu time   27.1619: real time   27.1619

 eigenvalue-minimisations  : 21994
 total energy-change (2. order) :-0.4403931E-04  (-0.4385174E-04)
 number of electron     404.0000078 magnetization 
 augmentation part      404.0000078 magnetization 

 Free energy of the ion-electron system (eV)
  ---------------------------------------------------
  alpha Z        PSCENC =       885.86172922
  Ewald energy   TEWEN  =    153343.19687342
  -Hartree energ DENC   =   -187591.16501458
  -exchange      EXHF   =         0.00000000
  -V(xc)+E(xc)   XCENC  =       556.95955356
  PAW double counting   =     36613.66361077   -35868.99231470
  entropy T*S    EENTRO =         0.00000000
  eigenvalues    EBANDS =     -1637.60303170
  atomic energy  EATOM  =     33566.97019550
  Solvation  Ediel_sol  =         0.00000000
  ---------------------------------------------------
  free energy    TOTEN  =      -131.10839850 eV

  energy without entropy =     -131.10839850  energy(sigma->0) =     -131.10839850


--------------------------------------------------------------------------------------------------------




--------------------------------------- Iteration      1(  10)  ---------------------------------------


    EDDIAG:  cpu time    5.4281: real time    5.4283
  RMM-DIIS:  cpu time   12.3279: real time   12.3279
    ORTHCH:  cpu time    1.0148: real time    1.0148
 BZINTS: Fermi energy:   -0.169703;  404.000000 electrons
         Band energy:-0.163760E+04;  BLOECHL correction:   -0.030233
       DOS:  cpu time    0.0562: real time    0.0562
    --------------------------------------------
      LOOP:  cpu time   18.8270: real time   18.8272

 eigenvalue-minimisations  : 11868
 total energy-change (2. order) :-0.2889079E-05  (-0.2984382E-05)
 number of electron     404.0000078 magnetization 
 augmentation part      404.0000078 magnetization 

 Free energy of the ion-electron system (eV)
  ---------------------------------------------------
  alpha Z        PSCENC =       885.86172922
  Ewald energy   TEWEN  =    153343.19687342
  -Hartree energ DENC   =   -187591.16501458
  -exchange      EXHF   =         0.00000000
  -V(xc)+E(xc)   XCENC  =       556.95955356
  PAW double counting   =     36613.66361077   -35868.99231470
  entropy T*S    EENTRO =         0.00000000
  eigenvalues    EBANDS =     -1637.60303459
  atomic energy  EATOM  =     33566.97019550
  Solvation  Ediel_sol  =         0.00000000
  ---------------------------------------------------
  free energy    TOTEN  =      -131.10840138 eV

  energy without entropy =     -131.10840138  energy(sigma->0) =     -131.10840138


--------------------------------------------------------------------------------------------------------




 average (electrostatic) potential at core
  the test charge radii are     1.2098  1.1394  0.7215  0.5201
  (the norm of the test charge is              1.0000)
       1 -73.2084       2 -73.1919       3 -73.2190       4 -73.1919       5 -73.1945
       6 -73.1978       7 -73.2186       8 -73.1979       9 -73.1967      10 -73.5363
      11 -73.5204      12 -73.5586      13 -73.5203      14 -73.5336      15 -73.5359
      16 -73.5586      17 -73.5361      18 -73.5720      19 -73.4848      20 -73.7696
      21 -73.7577      22 -73.5376      23 -73.7576      24 -73.5027      25 -73.4491
      26 -73.4848      27 -73.5368      28 -73.0384      29 -73.3381      30 -73.1673
      31 -73.3426      32 -73.1856      33 -73.1669      34 -73.1854      35 -73.0413
      36 -49.9173      37 -76.8438      38 -75.4033      39 -39.2380
 
 
 
 E-fermi :  -0.1697     XC(G=0):  -5.3136     alpha+bet : -4.9761

 Fermi energy:        -0.1697033120

 k-point     1 :       0.0000    0.0000    0.0000
  band No.  band energies     occupation 
      1     -19.0639      2.00000
      2     -18.6364      2.00000
      3      -9.0061      2.00000
      4      -7.8304      2.00000
      5      -7.0649      2.00000
      6      -6.8919      2.00000
      7      -6.8665      2.00000
      8      -6.8624      2.00000
      9      -6.8408      2.00000
     10      -6.8300      2.00000
     11      -6.8111      2.00000
     12      -6.8012      2.00000
     13      -6.5105      2.00000
     14      -6.3875      2.00000
     15      -6.3838      2.00000
     16      -6.3636      2.00000
     17      -6.3412      2.00000
     18      -6.3201      2.00000
     19      -6.3106      2.00000
     20      -6.0061      2.00000
     21      -6.0029      2.00000
     22      -5.9963      2.00000
     23      -5.9668      2.00000
     24      -5.9322      2.00000
     25      -5.9227      2.00000
     26      -5.8754      2.00000
     27      -5.8365      2.00000
     28      -5.8242      2.00000
     29      -5.7972      2.00000
     30      -5.7801      2.00000
     31      -5.7701      2.00000
     32      -5.6679      2.00000
     33      -5.6499      2.00000
     34      -5.6494      2.00000
     35      -5.6318      2.00000
     36      -5.6273      2.00000
     37      -5.6225      2.00000
     38      -5.6131      2.00000
     39      -5.6019      2.00000
     40      -5.5939      2.00000
     41      -5.4895      2.00000
     42      -5.4707      2.00000
     43      -5.4682      2.00000
     44      -5.2443      2.00000
     45      -5.1984      2.00000
     46      -5.1903      2.00000
     47      -5.1218      2.00000
     48      -5.1209      2.00000
     49      -5.0944      2.00000
     50      -5.0715      2.00000
     51      -5.0422      2.00000
     52      -5.0355      2.00000
     53      -5.0323      2.00000
     54      -5.0113      2.00000
     55      -5.0036      2.00000
     56      -4.9604      2.00000
     57      -4.9525      2.00000
     58      -4.9210      2.00000
     59      -4.8583      2.00000
     60      -4.7219      2.00000
     61      -4.5753      2.00000
     62      -4.5469      2.00000
     63      -4.5417      2.00000
     64      -4.5249      2.00000
[...]
  0.000   0.000   0.000   0.000   0.000   0.000   0.000   0.000   0.000   0.000   1.000   0.000   0.000   0.000   0.000   0.000
  0.000   0.000   0.000   0.000   0.000   0.000   0.000   0.000   0.000   0.000   0.000   0.000   0.000   0.000   0.000   0.000
  0.000   0.000   0.000   0.000   0.000   0.000   0.000   0.000   0.000   0.000   0.000   0.000   0.000   0.000   0.000   0.000
  0.000   0.000   0.000   0.000   0.000   0.000   0.000   0.000   0.000   0.000   0.000   0.000   0.000   0.000   0.000   0.000
  0.000   0.000   0.000   0.000   0.000   0.000   0.000   0.000   0.000   0.000   0.000   0.000   0.000   0.000   0.000   0.000
  0.000   0.000   0.000   0.000   0.000   0.000   0.000   0.000   0.000   0.000   0.000   0.000   0.000   0.000   0.000   0.000
  0.000   0.000   0.000   0.000   0.000   0.000   0.000   0.000   0.000   0.000   0.000   0.000   0.000   0.000   0.000   0.000
  0.000   0.000   0.000   0.000   0.000   0.000   0.000   0.000   0.000   0.000   0.000   0.000   0.000   0.000   0.000   0.000


------------------------ aborting loop because EDIFF is reached ----------------------------------------





 total charge

# of ion       s       p       d       tot
------------------------------------------
    1        0.547   0.238   8.766   9.551
    2        0.543   0.241   8.764   9.548
    3        0.543   0.241   8.763   9.546
    4        0.543   0.241   8.764   9.548
    5        0.545   0.240   8.762   9.548
    6        0.543   0.241   8.764   9.548
    7        0.543   0.241   8.763   9.546
    8        0.543   0.241   8.764   9.548
    9        0.545   0.239   8.766   9.550
   10        0.522   0.307   8.773   9.602
   11        0.521   0.309   8.777   9.607
   12        0.521   0.308   8.770   9.598
   13        0.521   0.309   8.777   9.607
   14        0.515   0.312   8.776   9.602
   15        0.517   0.310   8.771   9.598
   16        0.520   0.308   8.770   9.598
   17        0.517   0.310   8.771   9.598
   18        0.515   0.314   8.766   9.595
   19        0.515   0.300   8.773   9.588
   20        0.554   0.338   8.741   9.633
   21        0.554   0.336   8.743   9.632
   22        0.510   0.319   8.763   9.592
   23        0.554   0.336   8.743   9.632
   24        0.507   0.309   8.778   9.595
   25        0.513   0.297   8.780   9.591
   26        0.515   0.300   8.773   9.588
   27        0.510   0.319   8.763   9.592
   28        0.533   0.209   8.785   9.526
   29        0.520   0.291   8.735   9.546
   30        0.551   0.237   8.768   9.556
   31        0.521   0.292   8.734   9.547
   32        0.551   0.237   8.767   9.554
   33        0.551   0.237   8.768   9.556
   34        0.551   0.237   8.767   9.554
   35        0.534   0.221   8.770   9.525
   36        0.472   0.658   4.537   5.667
   37        1.613   3.279   0.000   4.892
   38        1.580   3.413   0.000   4.993
   39        0.611   0.118   0.000   0.729
--------------------------------------------------
tot         22.882  17.235 311.312 351.429
 
    CHARGE:  cpu time    1.2996: real time    1.2996
    FORLOC:  cpu time    0.0128: real time    0.0128
    FORNL :  cpu time    5.4628: real time    5.4630
    STRESS:  cpu time   16.4122: real time   16.4122
    FORCOR:  cpu time    0.0508: real time    0.0509
    FORHAR:  cpu time    0.0201: real time    0.0202
    OFIELD:  cpu time    0.0003: real time    0.0003

  FORCE on cell =-STRESS in cart. coord.  units (eV):
  Direction    XX          YY          ZZ          XY          YZ          ZX
  --------------------------------------------------------------------------------------
  Alpha Z   885.86173   885.86173   885.86173
  Ewald  175985.79939175929.96577************    48.48673     5.73594    10.90178
  Hartree184357.80108184315.29220************    36.77879    -4.13159    -6.71099
  E(xc)   -1816.38542 -1816.48330 -1822.87539     0.08458     0.03734     0.06894
  Local  ************************372546.76670   -80.01729     2.63459     3.26169
  n-local  -109.62283  -110.25106   -87.43209     0.53026     0.15358     0.24176
  augment  2409.18157  2409.67611  2417.41553    -0.42645    -0.28803    -0.52456
  Kinetic  5669.54140  5675.09804  5701.44075    -4.83956    -4.11342    -7.18400
  Fock        0.00000     0.00000     0.00000     0.00000     0.00000     0.00000
  -------------------------------------------------------------------------------------
  Total     -17.88753   -18.58952     0.07409     0.59706     0.02842     0.05462
  in kB     -16.43424   -17.07919     0.06807     0.54855     0.02611     0.05018
  external pressure =      -11.15 kB  Pullay stress =        0.00 kB


 VOLUME and BASIS-vectors are now :
 -----------------------------------------------------------------------------
  energy-cutoff  :      500.00
  volume of cell :     1743.86
      direct lattice vectors                 reciprocal lattice vectors
     8.813512802  0.000000000  0.000000000     0.113462137 -0.065507406  0.000000000
     4.406756909  7.632725690  0.000000000     0.000000000  0.131014796  0.000000000
     0.000000000  0.000000000 25.922848430     0.000000000  0.000000000  0.038576008

  length of vectors
     8.813512802  8.813512802 25.922848430     0.131014796  0.131014796  0.038576008


 FORCES acting on ions
    electron-ion (+dipol)            ewald-force                    non-local-force                 convergence-correction
 -----------------------------------------------------------------------------------------------
   0.291E+00 0.167E+00 0.279E+04   -.182E+00 -.105E+00 -.279E+04   -.252E-01 -.143E-01 -.584E+00   -.706E-01 -.396E-01 -.279E+00
   0.403E+00 0.378E+00 0.279E+04   -.468E+00 -.359E+00 -.279E+04   0.238E-01 0.251E-01 -.270E+00   0.395E-01 -.320E-01 -.252E+00
   -.703E+00 0.151E+00 0.279E+04   0.649E+00 -.263E+00 -.279E+04   0.136E-01 0.626E-01 -.493E+00   0.326E-01 0.350E-01 -.295E+00
   0.530E+00 0.161E+00 0.279E+04   -.545E+00 -.226E+00 -.279E+04   0.335E-01 0.849E-02 -.270E+00   -.865E-02 0.495E-01 -.252E+00
   -.252E+00 -.143E+00 0.279E+04   0.173E+00 0.989E-01 -.279E+04   0.798E-02 0.437E-02 -.284E+00   0.694E-01 0.393E-01 -.282E+00
   -.270E+00 0.370E+00 0.279E+04   0.372E+00 -.338E+00 -.279E+04   -.534E-01 -.328E-01 -.403E+00   -.566E-01 0.805E-02 -.292E+00
   -.219E+00 -.686E+00 0.279E+04   0.972E-01 0.695E+00 -.279E+04   0.606E-01 -.194E-01 -.490E+00   0.460E-01 0.113E-01 -.295E+00
   0.184E+00 -.419E+00 0.279E+04   -.106E+00 0.492E+00 -.279E+04   -.550E-01 -.296E-01 -.404E+00   -.204E-01 -.535E-01 -.292E+00
   0.448E-01 0.245E-01 0.279E+04   0.857E-02 0.582E-02 -.279E+04   -.898E-02 -.536E-02 -.458E+00   -.326E-01 -.181E-01 -.203E+00
   0.472E+01 0.273E+01 0.976E+03   -.446E+01 -.258E+01 -.975E+03   -.250E+00 -.144E+00 -.582E+00   -.358E-01 -.204E-01 -.391E+00
   -.161E+01 0.436E+01 0.981E+03   0.147E+01 -.443E+01 -.980E+03   0.536E-01 0.694E-01 -.446E+00   0.806E-01 -.426E-01 -.479E+00
   -.307E+01 0.252E+01 0.973E+03   0.299E+01 -.237E+01 -.972E+03   0.151E+00 -.172E+00 -.563E+00   -.379E-01 0.337E-01 -.448E+00
   0.296E+01 -.356E+01 0.981E+03   -.309E+01 0.348E+01 -.980E+03   0.877E-01 0.103E-01 -.446E+00   0.390E-02 0.901E-01 -.479E+00
   -.395E+01 -.228E+01 0.980E+03   0.398E+01 0.230E+01 -.979E+03   -.535E-01 -.306E-01 -.354E+00   0.635E-01 0.351E-01 -.509E+00
   0.101E+01 0.313E+01 0.978E+03   -.887E+00 -.331E+01 -.976E+03   -.560E-01 0.689E-01 -.533E+00   -.681E-01 0.670E-01 -.419E+00
   0.647E+00 -.393E+01 0.973E+03   -.549E+00 0.378E+01 -.972E+03   -.727E-01 0.217E+00 -.563E+00   0.967E-02 -.485E-01 -.448E+00
   0.321E+01 -.700E+00 0.978E+03   -.331E+01 0.892E+00 -.976E+03   0.318E-01 -.826E-01 -.534E+00   0.255E-01 -.912E-01 -.419E+00
   -.394E+01 -.228E+01 0.977E+03   0.386E+01 0.223E+01 -.975E+03   0.107E+00 0.637E-01 -.631E+00   -.235E-01 -.124E-01 -.435E+00
   0.111E+02 -.167E+01 -.864E+03   -.109E+02 0.153E+01 0.864E+03   -.896E-01 0.668E-01 0.474E+00   -.281E-01 0.481E-01 -.163E+00
   0.620E+01 0.364E+01 -.819E+03   -.513E+01 -.302E+01 0.821E+03   -.973E+00 -.563E+00 -.101E+01   -.176E+00 -.101E+00 -.332E+00
   -.172E+02 0.686E+01 -.841E+03   0.161E+02 -.621E+01 0.842E+03   0.101E+01 -.594E+00 -.639E+00   0.192E+00 -.102E+00 -.411E+00
   0.368E+00 -.797E+01 -.855E+03   -.595E+00 0.784E+01 0.855E+03   0.390E+00 -.160E+00 0.395E+00   -.985E-01 0.631E-01 -.197E+00
   -.271E+01 -.184E+02 -.841E+03   0.272E+01 0.171E+02 0.842E+03   -.104E-01 0.117E+01 -.639E+00   0.641E-02 0.216E+00 -.409E+00
   0.230E+01 0.131E+01 -.861E+03   -.214E+01 -.121E+01 0.860E+03   -.311E+00 -.180E+00 0.878E+00   0.854E-01 0.490E-01 -.244E+00
   0.262E+01 0.150E+01 -.878E+03   -.260E+01 -.148E+01 0.877E+03   0.574E-01 0.324E-01 0.915E+00   -.268E-01 -.155E-01 -.169E+00
   0.404E+01 0.104E+02 -.865E+03   -.408E+01 -.102E+02 0.864E+03   0.140E-01 -.110E+00 0.476E+00   0.280E-01 -.480E-01 -.163E+00
   -.668E+01 0.426E+01 -.855E+03   0.646E+01 -.439E+01 0.855E+03   0.519E-01 0.418E+00 0.404E+00   0.455E-02 -.117E+00 -.198E+00
   0.648E+02 0.376E+02 -.264E+04   -.662E+02 -.383E+02 0.264E+04   0.809E+00 0.470E+00 0.151E+01   0.830E-01 0.478E-01 0.180E+00
   -.404E+02 0.135E+03 -.254E+04   0.422E+02 -.135E+03 0.254E+04   -.147E+01 -.189E+00 0.105E+01   -.207E+00 -.210E+00 0.193E+00
   -.485E+02 0.575E+02 -.266E+04   0.480E+02 -.567E+02 0.266E+04   0.729E+00 -.953E+00 0.653E+00   0.107E+00 -.209E+00 0.167E+00
   0.969E+02 -.103E+03 -.254E+04   -.963E+02 0.104E+03 0.254E+04   -.906E+00 -.116E+01 0.101E+01   -.285E+00 -.730E-01 0.193E+00
   -.400E+02 -.687E+01 -.266E+04   0.389E+02 0.706E+01 0.266E+04   0.108E+01 -.152E+00 0.804E+00   0.337E+00 0.666E-02 0.239E+00
   0.255E+02 -.711E+02 -.266E+04   -.251E+02 0.702E+02 0.266E+04   -.458E+00 0.110E+01 0.658E+00   -.127E+00 0.195E+00 0.167E+00
   -.261E+02 -.314E+02 -.266E+04   0.258E+02 0.304E+02 0.266E+04   0.404E+00 0.100E+01 0.804E+00   0.173E+00 0.288E+00 0.239E+00
   -.112E+01 -.845E+00 -.269E+04   0.112E+01 0.845E+00 0.269E+04   0.181E-01 0.110E-01 0.543E+00   -.366E-01 -.214E-01 0.127E+00
   -.200E+02 -.113E+02 -.119E+04   0.205E+02 0.115E+02 0.119E+04   -.151E+00 -.851E-01 0.411E+00   -.319E-01 -.171E-01 0.857E-01
   -.582E+02 -.335E+02 -.181E+04   0.596E+02 0.343E+02 0.184E+04   -.136E+01 -.815E+00 -.275E+02   0.209E-01 0.172E-01 0.483E+00
   0.763E+02 0.443E+02 -.180E+04   -.108E+03 -.625E+02 0.180E+04   0.314E+02 0.182E+02 -.118E+00   -.414E-01 -.245E-01 0.315E-01
   -.531E+02 -.307E+02 -.331E+03   0.594E+02 0.343E+02 0.334E+03   -.625E+01 -.361E+01 -.355E+01   -.265E-01 -.152E-01 0.148E-01
 -----------------------------------------------------------------------------------------------
   -.240E+02 -.139E+02 0.375E+02   -.711E-13 0.213E-12 0.102E-11   0.240E+02 0.140E+02 -.308E+02   -.317E-01 -.130E-01 -.663E+01
 
 
 POSITION                                       TOTAL-FORCE (eV/Angst)
 -----------------------------------------------------------------------------------
      0.00000      0.00000      5.28038         0.013907      0.008096     -0.114163
      2.93784      0.00000      5.28038        -0.001435      0.012291     -0.063676
      5.87568      0.00000      5.28038        -0.007125     -0.013531     -0.027959
      1.46892      2.54424      5.28038         0.009867     -0.007372     -0.063969
      4.40676      2.54424      5.28038        -0.001216     -0.000637     -0.085707
      7.34459      2.54424      5.28038        -0.007141      0.008025     -0.048583
      2.93784      5.08848      5.28038        -0.015268      0.000612     -0.028356
      5.87568      5.08848      5.28038         0.003311     -0.010187     -0.048552
      8.81351      5.08848      5.28038         0.012230      0.007085     -0.097368
      1.46892      0.84808      7.67911        -0.028964     -0.016804      0.060855
      4.40676      0.84808      7.67911        -0.005291     -0.043360      0.007183
      7.34459      0.84808      7.67911         0.038178      0.019242      0.106053
      2.93784      3.39232      7.67911        -0.040275      0.017637      0.007008
      5.87568      3.39232      7.67911         0.039502      0.022711      0.047625
      8.81351      3.39232      7.67911        -0.005332     -0.045449      0.077168
      4.40676      5.93656      7.67911         0.035346      0.023269      0.106396
      7.34459      5.93656      7.67911        -0.042185      0.018275      0.077480
     10.28243      5.93656      7.67911         0.003078      0.001167      0.183053
      8.81351      1.69581     10.07501         0.049734     -0.025684      0.045440
      2.95207      1.70438     10.04871        -0.070168     -0.040698     -0.021305
      5.86144      1.70438     10.04871         0.084004     -0.043057     -0.036635
     10.26527      4.25031     10.05786         0.064865     -0.222696      0.236378
      4.40676      4.22397     10.04871         0.004764      0.093850     -0.036176
      7.36176      4.25031     10.05786        -0.060999     -0.035380      0.040695
     11.75166      6.78482     10.07501         0.057196      0.033245     -0.034010
      5.87537      6.78482     10.07501         0.002394      0.056287      0.045755
      8.81351      6.76483     10.05786        -0.159032      0.167085      0.234325
      0.00000      0.00000     12.48798        -0.450417     -0.261410     -0.322832
      2.98892      0.08359     12.48152         0.111914     -0.740058     -0.139716
      5.82460      0.08359     12.48152         0.301337     -0.367932     -0.233960
      1.56685      2.54668     12.48152        -0.587415      0.471963     -0.146827
      7.24666      2.54668     12.48152         0.371297      0.042832     -0.265290
      2.98469      5.00245     12.48152        -0.168155      0.448168     -0.234887
      5.82882      5.00245     12.48152         0.224243      0.302133     -0.265242
      8.81351      5.08848     12.49580        -0.021067     -0.010570     -0.087257
      4.40676      2.54424     12.17616         0.234459      0.134563      1.200654
      4.44933      2.57080     13.78357         0.013909      0.001779     -0.049883
      2.03535      1.18030     14.24027        -0.019181     -0.012368     -0.016116
      2.80270      1.62381     14.66189         0.015129      0.006879     -0.007601
 -----------------------------------------------------------------------------------
    total drift:                               -0.016063     -0.009975      0.118077


--------------------------------------------------------------------------------------------------------



  FREE ENERGIE OF THE ION-ELECTRON SYSTEM (eV)
  ---------------------------------------------------
  free  energy   TOTEN  =      -131.10840138 eV

  energy  without entropy=     -131.10840138  energy(sigma->0) =     -131.10840138
 


--------------------------------------------------------------------------------------------------------


    POTLOK:  cpu time    0.0567: real time    0.0567


--------------------------------------------------------------------------------------------------------


 stress matrix after NEB project (eV)
    -17.88753      0.59706      0.05462
      0.59706    -18.58952      0.02842
      0.05462      0.02842      0.07409
  FORCES: max atom, RMS     0.051816    0.009870
  FORCE total and by dimension    0.061640    0.049883
  Stress total and by dimension   25.812014   18.589522
     LOOP+:  cpu time  296.0640: real time  296.0764
 -----------------------------------------------------------------------------
|                                                                             |
|           W    W    AA    RRRRR   N    N  II  N    N   GGGG   !!!           |
|           W    W   A  A   R    R  NN   N  II  NN   N  G    G  !!!           |
|           W    W  A    A  R    R  N N  N  II  N N  N  G       !!!           |
|           W WW W  AAAAAA  RRRRR   N  N N  II  N  N N  G  GGG   !            |
|           WW  WW  A    A  R   R   N   NN  II  N   NN  G    G                |
|           W    W  A    A  R    R  N    N  II  N    N   GGGG   !!!           |
|                                                                             |
|     Tetrahedron method does not include variations of the Fermi             |
|     occupations, so forces and stress will be inaccurate. We suggest        |
|     using a different smearing scheme ISMEAR = 1 or 2 for metals in         |
|     relaxations.                                                            |
|                                                                             |
 -----------------------------------------------------------------------------

    4ORBIT:  cpu time    0.0000: real time    0.0000



 total charge

# of ion       s       p       d       tot
------------------------------------------
    1        0.547   0.238   8.766   9.551
    2        0.543   0.241   8.764   9.548
    3        0.543   0.241   8.763   9.546
    4        0.543   0.241   8.764   9.548
    5        0.545   0.240   8.762   9.548
    6        0.543   0.241   8.764   9.548
    7        0.543   0.241   8.763   9.546
    8        0.543   0.241   8.764   9.548
    9        0.545   0.239   8.766   9.550
   10        0.522   0.307   8.773   9.602
   11        0.521   0.309   8.777   9.607
   12        0.521   0.308   8.770   9.598
   13        0.521   0.309   8.777   9.607
   14        0.515   0.312   8.776   9.602
   15        0.517   0.310   8.771   9.598
   16        0.520   0.308   8.770   9.598
   17        0.517   0.310   8.771   9.598
   18        0.515   0.314   8.766   9.595
   19        0.515   0.300   8.773   9.588
   20        0.554   0.338   8.741   9.633
   21        0.554   0.336   8.743   9.632
   22        0.510   0.319   8.763   9.592
   23        0.554   0.336   8.743   9.632
   24        0.507   0.309   8.778   9.595
   25        0.513   0.297   8.780   9.591
   26        0.515   0.300   8.773   9.588
   27        0.510   0.319   8.763   9.592
   28        0.533   0.209   8.785   9.526
   29        0.520   0.291   8.735   9.546
   30        0.551   0.237   8.768   9.556
   31        0.521   0.292   8.734   9.547
   32        0.551   0.237   8.767   9.554
   33        0.551   0.237   8.768   9.556
   34        0.551   0.237   8.767   9.554
   35        0.534   0.221   8.770   9.525
   36        0.472   0.658   4.537   5.667
   37        1.613   3.279   0.000   4.892
   38        1.580   3.413   0.000   4.993
   39        0.611   0.118   0.000   0.729
--------------------------------------------------
tot         22.882  17.235 311.312 351.429
 
 BZINTS: Fermi energy:   -0.169703;  404.000000 electrons
         Band energy:-0.163760E+04;  BLOECHL correction:   -0.030233

 total amount of memory used by VASP MPI-rank0   290888. kBytes
=======================================================================

   base      :      30000. kBytes
   nonlr-proj:      13584. kBytes
   fftplans  :       4948. kBytes
   grid      :      21313. kBytes
   one-center:        606. kBytes
   wavefun   :     220437. kBytes
 
  
  
 General timing and accounting informations for this job:
 ========================================================
  
                  Total CPU time used (sec):      320.158
                            User time (sec):      309.622
                          System time (sec):       10.536
                         Elapsed time (sec):      320.964
  
                   Maximum memory used (kb):      596896.
                   Average memory used (kb):          N/A
  
                          Minor page faults:       132404
                          Major page faults:            0
                 Voluntary context switches:         9323
