PROCAR new format
# of k-points:   10         # of bands:  252         # of ions:   37

 k-point     1 :    0.00000000 0.00000000 0.00000000     weight = 0.01562500

band     1 # energy  -18.82859884 # occ.  2.00000000
 
ion      s      p      d    tot
    1  0.000  0.000  0.000  0.000
    2  0.000  0.000  0.000  0.000
    3  0.000  0.000  0.000  0.000
    4  0.000  0.000  0.000  0.000
    5  0.000  0.000  0.000  0.000
    6  0.000  0.000  0.000  0.000
    7  0.000  0.000  0.000  0.000
    8  0.000  0.000  0.000  0.000
    9  0.000  0.000  0.000  0.000
   10  0.000  0.000  0.000  0.000
   11  0.000  0.000  0.000  0.000
   12  0.000  0.000  0.000  0.000
   13  0.000  0.000  0.000  0.000
   14  0.000  0.000  0.000  0.000
   15  0.000  0.000  0.000  0.000
   16  0.000  0.000  0.000  0.000
   17  0.000  0.000  0.000  0.000
   18  0.000  0.000  0.000  0.000
   19  0.000  0.000  0.000  0.000
   20  0.000  0.000  0.000  0.000
   21  0.000  0.000  0.000  0.000
   22  0.000  0.000  0.000  0.000
   23  0.000  0.000  0.000  0.000
   24  0.000  0.000  0.000  0.000
   25  0.000  0.000  0.000  0.000
   26  0.000  0.000  0.000  0.000
   27  0.000  0.000  0.000  0.000
   28  0.000  0.000  0.000  0.000
   29  0.000  0.000  0.000  0.000
   30  0.000  0.000  0.000  0.000
   31  0.000  0.000  0.000  0.000
   32  0.000  0.000  0.000  0.000
   33  0.000  0.000  0.000  0.000
   34  0.000  0.000  0.000  0.000
   35  0.000  0.000  0.000  0.000
   36  0.044  0.046  0.092  0.181
   37  0.763  0.016  0.000  0.779
tot    0.807  0.063  0.092  0.961
 
band     2 # energy   -8.76772948 # occ.  2.00000000
 
ion      s      p      d    tot
    1  0.006  0.001  0.000  0.007
    2  0.006  0.001  0.000  0.007
    3  0.006  0.001  0.000  0.007
    4  0.006  0.001  0.000  0.007
    5  0.006  0.001  0.000  0.007
    6  0.006  0.001  0.000  0.007
    7  0.006  0.001  0.000  0.007
    8  0.006  0.001  0.000  0.007
    9  0.006  0.001  0.000  0.007
   10  0.023  0.000  0.000  0.024
   11  0.024  0.000  0.000  0.024
   12  0.023  0.000  0.000  0.024
   13  0.024  0.000  0.000  0.024
   14  0.024  0.000  0.000  0.024
   15  0.023  0.000  0.000  0.023
   16  0.023  0.000  0.000  0.024
   17  0.023  0.000  0.000  0.023
   18  0.023  0.000  0.000  0.023
   19  0.024  0.000  0.000  0.024
   20  0.028  0.000  0.000  0.028
   21  0.028  0.000  0.000  0.028
   22  0.024  0.000  0.000  0.024
   23  0.028  0.000  0.000  0.028
   24  0.024  0.000  0.000  0.024
   25  0.024  0.000  0.000  0.024
   26  0.024  0.000  0.000  0.024
   27  0.024  0.000  0.000  0.024
   28  0.007  0.001  0.000  0.007
   29  0.007  0.001  0.000  0.008
   30  0.007  0.001  0.000  0.008
   31  0.007  0.001  0.000  0.008
   32  0.007  0.001  0.000  0.008
   33  0.007  0.001  0.000  0.008
   34  0.007  0.001  0.000  0.008
   35  0.007  0.001  0.000  0.007
   36  0.016  0.002  0.000  0.018
   37  0.001  0.001  0.000  0.002
tot    0.567  0.018  0.001  0.586
 
band     3 # energy   -7.50892038 # occ.  2.00000000
 
ion      s      p      d    tot
    1  0.018  0.001  0.000  0.019
    2  0.018  0.001  0.000  0.019
    3  0.018  0.001  0.000  0.019
    4  0.018  0.001  0.000  0.019
    5  0.017  0.001  0.000  0.018
    6  0.018  0.001  0.000  0.019
    7  0.018  0.001  0.000  0.019
    8  0.018  0.001  0.000  0.019
    9  0.018  0.001  0.000  0.019
   10  0.012  0.002  0.001  0.014
   11  0.011  0.002  0.001  0.013
   12  0.012  0.002  0.001  0.014
   13  0.011  0.002  0.001  0.013
   14  0.011  0.002  0.001  0.013
   15  0.012  0.002  0.001  0.014
   16  0.012  0.002  0.001  0.014
   17  0.012  0.002  0.001  0.014
   18  0.012  0.002  0.001  0.014
   19  0.007  0.002  0.000  0.010
   20  0.010  0.003  0.000  0.013
   21  0.010  0.003  0.000  0.013
   22  0.008  0.002  0.000  0.010
   23  0.010  0.003  0.000  0.013
   24  0.008  0.002  0.000  0.010
   25  0.007  0.002  0.000  0.010
   26  0.007  0.002  0.000  0.010
   27  0.008  0.002  0.000  0.010
   28  0.016  0.001  0.001  0.017
   29  0.018  0.001  0.001  0.020
   30  0.018  0.001  0.001  0.020
   31  0.018  0.001  0.001  0.020
   32  0.018  0.001  0.001  0.020
   33  0.018  0.001  0.001  0.020
   34  0.018  0.001  0.001  0.020
   35  0.016  0.001  0.001  0.017
   36  0.037  0.002  0.003  0.042
   37  0.002  0.002  0.000  0.003
tot    0.516  0.056  0.021  0.593
 
band     4 # energy   -6.07380922 # occ.  2.00000000
 
ion      s      p      d    tot
    1  0.004  0.000  0.001  0.005
    2  0.003  0.000  0.001  0.005
    3  0.003  0.000  0.001  0.005
    4  0.003  0.000  0.001  0.005
    5  0.000  0.000  0.002  0.002
    6  0.003  0.000  0.001  0.005
    7  0.003  0.000  0.001  0.005
    8  0.003  0.000  0.001  0.005
    9  0.010  0.000  0.000  0.010
   10  0.000  0.002  0.002  0.004
   11  0.008  0.004  0.001  0.013
   12  0.000  0.002  0.002  0.004
   13  0.008  0.004  0.001  0.013
   14  0.008  0.004  0.001  0.013
   15  0.003  0.001  0.002  0.005
   16  0.000  0.002  0.002  0.004
   17  0.003  0.001  0.002  0.005
   18  0.003  0.001  0.002  0.005
   19  0.001  0.001  0.006  0.008
   20  0.031  0.008  0.013  0.052
   21  0.031  0.008  0.013  0.052
   22  0.001  0.003  0.003  0.007
   23  0.031  0.008  0.013  0.052
   24  0.001  0.003  0.003  0.007
   25  0.001  0.001  0.006  0.008
   26  0.001  0.001  0.006  0.008
   27  0.001  0.003  0.003  0.007
   28  0.015  0.000  0.001  0.016
   29  0.009  0.000  0.004  0.014
   30  0.009  0.000  0.004  0.014
   31  0.009  0.000  0.004  0.014
   32  0.009  0.000  0.004  0.014
   33  0.009  0.000  0.004  0.014
   34  0.009  0.000  0.004  0.014
   35  0.019  0.000  0.002  0.021
   36  0.014  0.001  0.156  0.172
   37  0.011  0.125  0.000  0.135
tot    0.278  0.184  0.279  0.741
 
band     5 # energy   -5.88428177 # occ.  2.00000000
 
ion      s      p      d    tot
    1  0.008  0.000  0.004  0.012
    2  0.012  0.000  0.005  0.017
    3  0.012  0.000  0.005  0.017
    4  0.012  0.000  0.005  0.017
    5  0.028  0.000  0.002  0.031
    6  0.012  0.000  0.005  0.017
    7  0.012  0.000  0.005  0.017
    8  0.012  0.000  0.005  0.017
    9  0.005  0.000  0.006  0.011
   10  0.005  0.004  0.003  0.011
   11  0.001  0.003  0.003  0.008
   12  0.005  0.004  0.003  0.011
   13  0.001  0.003  0.003  0.008
   14  0.001  0.004  0.003  0.008
   15  0.011  0.004  0.002  0.017
   16  0.005  0.004  0.003  0.011
   17  0.011  0.004  0.002  0.017
   18  0.011  0.004  0.002  0.017
   19  0.018  0.002  0.004  0.024
   20  0.002  0.006  0.007  0.015
   21  0.002  0.006  0.007  0.015
   22  0.011  0.004  0.003  0.018
   23  0.002  0.006  0.007  0.015
   24  0.011  0.004  0.003  0.018
   25  0.018  0.002  0.004  0.024
   26  0.018  0.002  0.004  0.024
   27  0.011  0.004  0.003  0.018
   28  0.001  0.001  0.005  0.007
   29  0.009  0.001  0.008  0.019
   30  0.009  0.001  0.008  0.019
   31  0.009  0.001  0.008  0.019
   32  0.009  0.001  0.008  0.019
   33  0.009  0.001  0.008  0.019
   34  0.009  0.001  0.008  0.019
   35  0.001  0.001  0.004  0.006
   36  0.079  0.001  0.001  0.081
   37  0.004  0.017  0.000  0.022
tot    0.398  0.100  0.166  0.664
 
band     6 # energy   -5.84894146 # occ.  2.00000000
 
ion      s      p      d    tot
    1  0.000  0.002  0.004  0.005
    2  0.006  0.002  0.002  0.010
    3  0.000  0.001  0.001  0.002
    4  0.006  0.002  0.002  0.010
    5  0.000  0.002  0.003  0.005
    6  0.003  0.001  0.002  0.006
    7  0.001  0.001  0.001  0.002
    8  0.003  0.001  0.002  0.006
    9  0.000  0.000  0.001  0.001
   10  0.044  0.005  0.003  0.051
   11  0.008  0.008  0.005  0.021
   12  0.011  0.001  0.010  0.022
   13  0.007  0.008  0.005  0.020
   14  0.030  0.001  0.005  0.036
   15  0.000  0.005  0.005  0.010
   16  0.011  0.001  0.010  0.022
   17  0.000  0.005  0.005  0.010
   18  0.001  0.002  0.003  0.005
   19  0.004  0.009  0.002  0.016
   20  0.075  0.002  0.011  0.087
   21  0.018  0.004  0.017  0.039
   22  0.003  0.003  0.009  0.015
   23  0.019  0.004  0.017  0.039
   24  0.014  0.004  0.002  0.020
   25  0.015  0.000  0.006  0.021
   26  0.004  0.009  0.002  0.016
   27  0.003  0.003  0.009  0.015
   28  0.000  0.002  0.003  0.004
   29  0.008  0.003  0.005  0.017
   30  0.002  0.001  0.002  0.005
   31  0.008  0.003  0.005  0.017
   32  0.002  0.002  0.005  0.009
   33  0.002  0.001  0.002  0.005
   34  0.002  0.002  0.005  0.009
   35  0.000  0.000  0.002  0.003
   36  0.000  0.004  0.059  0.063
   37  0.000  0.019  0.000  0.019
tot    0.313  0.120  0.233  0.666
 
band     7 # energy   -5.84877782 # occ.  2.00000000
 
ion      s      p      d    tot
    1  0.000  0.002  0.004  0.005
    2  0.000  0.001  0.001  0.003
    3  0.006  0.002  0.002  0.010
    4  0.000  0.001  0.001  0.003
    5  0.000  0.002  0.003  0.005
    6  0.004  0.001  0.001  0.006
    7  0.006  0.002  0.002  0.010
    8  0.003  0.001  0.001  0.006
    9  0.000  0.000  0.001  0.001
   10  0.000  0.000  0.012  0.012
   11  0.022  0.003  0.005  0.031
   12  0.033  0.004  0.005  0.042
   13  0.023  0.003  0.005  0.031
   14  0.000  0.010  0.005  0.015
   15  0.001  0.003  0.003  0.007
   16  0.033  0.004  0.005  0.041
   17  0.001  0.003  0.003  0.007
   18  0.000  0.006  0.005  0.011
   19  0.011  0.003  0.005  0.019
   20  0.000  0.004  0.019  0.023
   21  0.056  0.003  0.013  0.072
   22  0.010  0.004  0.004  0.018
   23  0.056  0.003  0.013  0.071
   24  0.000  0.003  0.011  0.014
   25  0.000  0.012  0.001  0.014
   26  0.012  0.003  0.005  0.019
   27  0.010  0.004  0.005  0.018
   28  0.000  0.002  0.003  0.004
   29  0.000  0.001  0.003  0.004
   30  0.006  0.003  0.006  0.016
   31  0.000  0.001  0.003  0.004
   32  0.006  0.002  0.003  0.012
   33  0.006  0.003  0.006  0.016
   34  0.006  0.002  0.003  0.012
   35  0.000  0.000  0.002  0.003
   36  0.000  0.004  0.059  0.063
   37  0.000  0.019  0.000  0.019
tot    0.313  0.120  0.233  0.666
 
band     8 # energy   -5.72915173 # occ.  2.00000000
 
ion      s      p      d    tot
    1  0.000  0.001  0.002  0.004
    2  0.009  0.002  0.002  0.013
    3  0.001  0.001  0.002  0.003
    4  0.009  0.002  0.002  0.013
    5  0.000  0.000  0.003  0.004
    6  0.005  0.002  0.002  0.009
    7  0.001  0.001  0.002  0.003
    8  0.005  0.002  0.002  0.009
    9  0.000  0.003  0.005  0.008
   10  0.000  0.012  0.002  0.014
   11  0.017  0.003  0.005  0.025
   12  0.006  0.003  0.005  0.014
   13  0.017  0.003  0.005  0.025
   14  0.000  0.001  0.013  0.015
   15  0.042  0.004  0.006  0.052
   16  0.006  0.003  0.005  0.014
   17  0.043  0.004  0.006  0.052
   18  0.000  0.005  0.011  0.017
   19  0.034  0.003  0.006  0.044
   20  0.000  0.012  0.003  0.015
   21  0.000  0.004  0.005  0.009
   22  0.037  0.004  0.006  0.046
   23  0.000  0.004  0.005  0.009
   24  0.000  0.010  0.006  0.016
   25  0.000  0.000  0.017  0.017
   26  0.034  0.004  0.006  0.044
   27  0.037  0.004  0.006  0.046
   28  0.000  0.002  0.005  0.007
   29  0.013  0.003  0.003  0.018
   30  0.002  0.002  0.004  0.007
   31  0.013  0.003  0.003  0.018
   32  0.005  0.001  0.003  0.009
   33  0.002  0.002  0.004  0.007
   34  0.005  0.001  0.003  0.009
   35  0.000  0.004  0.005  0.008
   36  0.000  0.000  0.012  0.013
   37  0.000  0.000  0.000  0.000
tot    0.341  0.115  0.181  0.637
 
band     9 # energy   -5.72900558 # occ.  2.00000000
 
ion      s      p      d    tot
    1  0.000  0.001  0.002  0.004
    2  0.001  0.001  0.002  0.004
    3  0.009  0.002  0.002  0.013
    4  0.001  0.001  0.002  0.004
    5  0.000  0.000  0.003  0.004
    6  0.005  0.002  0.002  0.008
    7  0.009  0.002  0.002  0.013
    8  0.005  0.002  0.002  0.008
    9  0.000  0.003  0.005  0.008
   10  0.008  0.000  0.006  0.014
   11  0.006  0.002  0.010  0.018
   12  0.002  0.009  0.003  0.014
   13  0.006  0.002  0.010  0.018
   14  0.023  0.004  0.002  0.029
   15  0.014  0.005  0.010  0.029
   16  0.002  0.009  0.003  0.014
   17  0.014  0.005  0.010  0.028
   18  0.057  0.003  0.005  0.064
   19  0.012  0.001  0.013  0.026
   20  0.000  0.001  0.005  0.007
   21  0.000  0.009  0.004  0.013
   22  0.012  0.008  0.006  0.026
   23  0.000  0.009  0.004  0.013
   24  0.049  0.002  0.005  0.056
   25  0.046  0.005  0.002  0.053
   26  0.011  0.001  0.013  0.026
   27  0.012  0.008  0.006  0.026
   28  0.000  0.002  0.005  0.007
   29  0.000  0.001  0.003  0.005
   30  0.012  0.002  0.003  0.016
   31  0.000  0.001  0.003  0.005
   32  0.008  0.002  0.003  0.014
   33  0.011  0.002  0.003  0.016
   34  0.008  0.002  0.003  0.014
   35  0.000  0.004  0.005  0.008
   36  0.000  0.000  0.012  0.013
   37  0.000  0.000  0.000  0.000
tot    0.341  0.115  0.181  0.637
 
band    10 # energy   -5.71446845 # occ.  2.00000000
 
ion      s      p      d    tot
    1  0.024  0.003  0.001  0.028
    2  0.000  0.002  0.004  0.006
    3  0.000  0.002  0.004  0.006
    4  0.000  0.002  0.004  0.006
    5  0.001  0.000  0.001  0.002
    6  0.000  0.002  0.004  0.006
    7  0.000  0.002  0.004  0.006
    8  0.000  0.002  0.004  0.006
    9  0.008  0.002  0.001  0.010
   10  0.029  0.006  0.006  0.041
   11  0.006  0.000  0.012  0.018
   12  0.029  0.006  0.006  0.041
   13  0.006  0.000  0.012  0.018
   14  0.006  0.000  0.012  0.018
   15  0.013  0.008  0.003  0.024
   16  0.029  0.006  0.006  0.041
   17  0.013  0.008  0.003  0.024
   18  0.013  0.008  0.003  0.024
   19  0.021  0.009  0.002  0.032
   20  0.000  0.003  0.012  0.014
   21  0.000  0.003  0.012  0.014
   22  0.025  0.002  0.009  0.036
   23  0.000  0.003  0.012  0.014
   24  0.025  0.002  0.009  0.036
   25  0.021  0.009  0.002  0.032
   26  0.021  0.009  0.002  0.032
   27  0.025  0.002  0.009  0.036
   28  0.019  0.002  0.000  0.022
   29  0.000  0.002  0.004  0.006
   30  0.000  0.002  0.004  0.006
   31  0.000  0.002  0.004  0.006
   32  0.000  0.002  0.004  0.006
   33  0.000  0.002  0.004  0.006
   34  0.000  0.002  0.004  0.006
   35  0.010  0.002  0.002  0.014
   36  0.000  0.000  0.000  0.000
   37  0.000  0.000  0.000  0.000
tot    0.343  0.113  0.183  0.639
 
band    11 # energy   -5.42215666 # occ.  2.00000000
 
ion      s      p      d    tot
    1  0.009  0.000  0.002  0.011
    2  0.003  0.002  0.007  0.012
    3  0.003  0.002  0.007  0.012
    4  0.003  0.002  0.007  0.012
    5  0.010  0.004  0.005  0.019
    6  0.003  0.002  0.007  0.012
    7  0.003  0.002  0.007  0.012
    8  0.003  0.002  0.007  0.012
    9  0.026  0.001  0.000  0.028
   10  0.001  0.002  0.011  0.014
   11  0.031  0.006  0.001  0.039
   12  0.001  0.002  0.011  0.014
   13  0.031  0.006  0.001  0.039
   14  0.031  0.006  0.001  0.039
   15  0.007  0.002  0.013  0.021
   16  0.001  0.002  0.011  0.014
   17  0.007  0.002  0.013  0.021
   18  0.007  0.002  0.013  0.021
   19  0.000  0.000  0.001  0.002
   20  0.002  0.004  0.024  0.030
   21  0.002  0.004  0.024  0.030
   22  0.002  0.002  0.004  0.007
   23  0.002  0.004  0.024  0.030
   24  0.002  0.002  0.004  0.007
   25  0.000  0.000  0.001  0.002
   26  0.000  0.000  0.001  0.002
   27  0.002  0.002  0.004  0.007
   28  0.000  0.000  0.000  0.000
   29  0.000  0.000  0.001  0.001
   30  0.000  0.000  0.001  0.001
   31  0.000  0.000  0.001  0.001
   32  0.000  0.000  0.001  0.001
   33  0.000  0.000  0.001  0.001
   34  0.000  0.000  0.001  0.001
   35  0.001  0.000  0.000  0.001
   36  0.013  0.002  0.110  0.126
   37  0.011  0.157  0.000  0.168
tot    0.215  0.225  0.325  0.765
 
band    12 # energy   -5.21957303 # occ.  2.00000000
 
ion      s      p      d    tot
    1  0.000  0.001  0.004  0.004
    2  0.006  0.001  0.002  0.009
    3  0.000  0.001  0.002  0.003
    4  0.006  0.001  0.002  0.009
    5  0.000  0.003  0.004  0.006
    6  0.007  0.002  0.002  0.011
    7  0.000  0.001  0.002  0.003
    8  0.007  0.002  0.002  0.011
    9  0.000  0.001  0.003  0.004
   10  0.009  0.001  0.002  0.012
   11  0.005  0.001  0.005  0.012
   12  0.002  0.001  0.008  0.011
   13  0.005  0.001  0.005  0.011
   14  0.019  0.001  0.002  0.022
   15  0.000  0.003  0.003  0.006
   16  0.002  0.001  0.008  0.011
   17  0.000  0.003  0.003  0.006
   18  0.001  0.000  0.003  0.005
   19  0.000  0.000  0.002  0.002
   20  0.000  0.004  0.007  0.011
   21  0.000  0.001  0.023  0.024
   22  0.000  0.000  0.002  0.003
   23  0.000  0.001  0.023  0.024
   24  0.000  0.002  0.005  0.007
   25  0.001  0.000  0.002  0.003
   26  0.000  0.000  0.002  0.002
   27  0.000  0.000  0.002  0.003
   28  0.000  0.000  0.000  0.000
   29  0.002  0.001  0.011  0.014
   30  0.002  0.000  0.002  0.004
   31  0.002  0.001  0.011  0.014
   32  0.000  0.002  0.010  0.012
   33  0.002  0.000  0.002  0.004
   34  0.000  0.002  0.010  0.012
   35  0.000  0.000  0.001  0.001
   36  0.000  0.004  0.211  0.215
   37  0.000  0.238  0.000  0.238
tot    0.080  0.282  0.388  0.750
 
band    13 # energy   -5.21952280 # occ.  2.00000000
 
ion      s      p      d    tot
    1  0.000  0.001  0.004  0.004
    2  0.003  0.001  0.002  0.006
    3  0.008  0.002  0.002  0.012
    4  0.003  0.001  0.002  0.006
    5  0.000  0.003  0.004  0.006
    6  0.002  0.001  0.002  0.004
    7  0.008  0.002  0.002  0.012
    8  0.001  0.001  0.002  0.004
    9  0.000  0.001  0.003  0.004
   10  0.000  0.000  0.010  0.011
   11  0.014  0.001  0.003  0.018
   12  0.007  0.001  0.004  0.012
   13  0.014  0.001  0.003  0.019
   14  0.000  0.001  0.007  0.008
   15  0.001  0.001  0.003  0.005
   16  0.007  0.001  0.004  0.012
   17  0.001  0.001  0.003  0.005
   18  0.000  0.004  0.003  0.006
   19  0.001  0.000  0.002  0.003
   20  0.000  0.000  0.028  0.029
   21  0.000  0.003  0.012  0.015
   22  0.000  0.001  0.004  0.006
   23  0.000  0.003  0.012  0.016
   24  0.000  0.000  0.001  0.002
   25  0.000  0.000  0.001  0.002
   26  0.001  0.000  0.002  0.003
   27  0.000  0.001  0.004  0.006
   28  0.000  0.000  0.000  0.000
   29  0.001  0.001  0.004  0.006
   30  0.001  0.002  0.013  0.016
   31  0.001  0.001  0.004  0.006
   32  0.003  0.000  0.005  0.008
   33  0.001  0.002  0.013  0.016
   34  0.003  0.000  0.005  0.008
   35  0.000  0.000  0.001  0.001
   36  0.000  0.004  0.211  0.215
   37  0.000  0.238  0.000  0.238
tot    0.080  0.282  0.388  0.750
 
band    14 # energy   -5.05390873 # occ.  2.00000000
 
ion      s      p      d    tot
    1  0.000  0.002  0.008  0.011
    2  0.005  0.001  0.010  0.016
    3  0.005  0.001  0.010  0.016
    4  0.005  0.001  0.010  0.016
    5  0.032  0.000  0.004  0.036
    6  0.005  0.001  0.010  0.016
    7  0.005  0.001  0.010  0.016
    8  0.005  0.001  0.010  0.016
    9  0.001  0.001  0.008  0.011
   10  0.012  0.001  0.019  0.031
   11  0.000  0.002  0.020  0.022
   12  0.012  0.001  0.019  0.031
   13  0.000  0.002  0.020  0.022
   14  0.000  0.002  0.020  0.022
   15  0.011  0.000  0.020  0.031
   16  0.012  0.001  0.019  0.031
   17  0.011  0.000  0.020  0.031
   18  0.011  0.000  0.020  0.031
   19  0.011  0.002  0.013  0.025
   20  0.000  0.001  0.030  0.031
   21  0.000  0.001  0.030  0.031
   22  0.003  0.000  0.014  0.017
   23  0.000  0.001  0.030  0.031
   24  0.003  0.000  0.014  0.017
   25  0.011  0.002  0.013  0.025
   26  0.011  0.002  0.013  0.025
   27  0.003  0.000  0.014  0.017
   28  0.004  0.002  0.003  0.009
   29  0.001  0.002  0.011  0.014
   30  0.001  0.002  0.011  0.014
   31  0.001  0.002  0.011  0.014
   32  0.001  0.002  0.011  0.014
   33  0.001  0.002  0.011  0.014
   34  0.001  0.002  0.011  0.014
   35  0.000  0.001  0.002  0.003
   36  0.037  0.000  0.011  0.049
   37  0.001  0.001  0.000  0.001
tot    0.221  0.042  0.505  0.768
 
band    15 # energy   -5.04129641 # occ.  2.00000000
 
ion      s      p      d    tot
    1  0.000  0.005  0.009  0.014
    2  0.013  0.003  0.005  0.020
    3  0.000  0.001  0.005  0.006
    4  0.012  0.003  0.005  0.019
    5  0.000  0.000  0.009  0.009
    6  0.016  0.003  0.005  0.024
    7  0.000  0.001  0.004  0.006
    8  0.016  0.003  0.005  0.025
    9  0.000  0.004  0.008  0.012
   10  0.000  0.004  0.016  0.020
   11  0.001  0.001  0.009  0.011
   12  0.013  0.002  0.008  0.023
   13  0.001  0.001  0.008  0.010
   14  0.000  0.003  0.014  0.017
   15  0.018  0.003  0.008  0.029
   16  0.012  0.002  0.009  0.023
   17  0.018  0.003  0.007  0.029
   18  0.000  0.000  0.019  0.019
   19  0.007  0.004  0.008  0.019
   20  0.000  0.002  0.013  0.015
   21  0.001  0.002  0.012  0.015
   22  0.006  0.002  0.007  0.014
   23  0.001  0.002  0.012  0.015
   24  0.000  0.001  0.024  0.025
   25  0.000  0.000  0.013  0.013
   26  0.007  0.004  0.008  0.019
   27  0.005  0.002  0.008  0.015
   28  0.000  0.004  0.006  0.010
   29  0.021  0.002  0.010  0.033
   30  0.000  0.003  0.011  0.014
   31  0.020  0.002  0.010  0.032
   32  0.018  0.002  0.009  0.029
   33  0.000  0.003  0.011  0.014
   34  0.019  0.002  0.008  0.030
   35  0.000  0.005  0.007  0.011
   36  0.000  0.000  0.056  0.057
   37  0.000  0.011  0.000  0.011
tot    0.223  0.099  0.385  0.708
 
band    16 # energy   -5.04127847 # occ.  2.00000000
 
ion      s      p      d    tot
    1  0.000  0.005  0.009  0.014
    2  0.006  0.002  0.005  0.013
    3  0.019  0.004  0.005  0.027
    4  0.007  0.002  0.005  0.014
    5  0.000  0.000  0.009  0.010
    6  0.003  0.002  0.004  0.010
    7  0.019  0.004  0.005  0.027
    8  0.003  0.002  0.004  0.009
    9  0.000  0.004  0.008  0.012
   10  0.016  0.002  0.006  0.024
   11  0.000  0.003  0.012  0.015
   12  0.004  0.004  0.014  0.021
   13  0.000  0.003  0.012  0.015
   14  0.001  0.001  0.007  0.008
   15  0.006  0.001  0.015  0.023
   16  0.004  0.003  0.013  0.021
   17  0.005  0.001  0.015  0.022
   18  0.024  0.005  0.004  0.033
   19  0.002  0.002  0.011  0.015
   20  0.002  0.002  0.012  0.016
   21  0.000  0.002  0.012  0.015
   22  0.002  0.002  0.019  0.022
   23  0.000  0.002  0.012  0.015
   24  0.007  0.002  0.002  0.011
   25  0.009  0.006  0.006  0.021
   26  0.002  0.001  0.012  0.015
   27  0.002  0.002  0.018  0.022
   28  0.000  0.004  0.006  0.010
   29  0.005  0.003  0.010  0.018
   30  0.026  0.002  0.009  0.037
   31  0.006  0.003  0.010  0.018
   32  0.008  0.002  0.011  0.022
   33  0.026  0.002  0.008  0.036
   34  0.007  0.002  0.011  0.021
   35  0.000  0.005  0.007  0.011
   36  0.000  0.000  0.056  0.057
   37  0.000  0.011  0.000  0.011
tot    0.224  0.099  0.386  0.708
 
band    17 # energy   -4.95183817 # occ.  2.00000000
 
ion      s      p      d    tot
    1  0.032  0.003  0.000  0.035
    2  0.000  0.003  0.010  0.013
    3  0.000  0.003  0.010  0.013
    4  0.000  0.003  0.010  0.013
    5  0.001  0.000  0.001  0.002
    6  0.000  0.003  0.010  0.013
    7  0.000  0.003  0.010  0.013
    8  0.000  0.003  0.010  0.013
    9  0.029  0.004  0.001  0.035
   10  0.006  0.003  0.011  0.020
   11  0.001  0.000  0.017  0.018
   12  0.006  0.003  0.011  0.020
   13  0.001  0.000  0.017  0.018
   14  0.001  0.000  0.017  0.018
   15  0.009  0.004  0.017  0.029
   16  0.006  0.003  0.011  0.020
   17  0.009  0.004  0.017  0.030
   18  0.009  0.004  0.017  0.029
   19  0.003  0.003  0.017  0.024
   20  0.000  0.000  0.017  0.017
   21  0.000  0.000  0.017  0.017
   22  0.014  0.003  0.011  0.028
   23  0.000  0.000  0.017  0.017
   24  0.014  0.003  0.011  0.028
   25  0.003  0.003  0.017  0.024
   26  0.003  0.003  0.017  0.024
   27  0.014  0.003  0.011  0.028
   28  0.034  0.003  0.000  0.037
   29  0.000  0.003  0.010  0.013
   30  0.000  0.003  0.010  0.013
   31  0.000  0.003  0.010  0.013
   32  0.000  0.003  0.010  0.013
   33  0.000  0.003  0.010  0.013
   34  0.000  0.003  0.010  0.013
   35  0.026  0.004  0.002  0.032
   36  0.000  0.000  0.000  0.000
   37  0.000  0.000  0.000  0.000
tot    0.225  0.088  0.396  0.708
 
band    18 # energy   -4.94443948 # occ.  2.00000000
 
ion      s      p      d    tot
    1  0.000  0.001  0.007  0.008
    2  0.012  0.002  0.004  0.018
    3  0.000  0.001  0.003  0.005
    4  0.011  0.002  0.004  0.017
    5  0.000  0.004  0.006  0.010
    6  0.010  0.002  0.004  0.015
    7  0.000  0.001  0.003  0.005
    8  0.010  0.002  0.004  0.016
    9  0.000  0.001  0.008  0.009
   10  0.008  0.003  0.006  0.017
   11  0.003  0.001  0.016  0.020
   12  0.002  0.001  0.010  0.013
   13  0.003  0.001  0.016  0.020
   14  0.013  0.003  0.004  0.019
   15  0.000  0.002  0.012  0.014
   16  0.002  0.001  0.009  0.013
   17  0.000  0.002  0.012  0.014
   18  0.001  0.000  0.006  0.006
   19  0.001  0.003  0.016  0.020
   20  0.015  0.004  0.011  0.029
   21  0.004  0.001  0.018  0.023
   22  0.002  0.001  0.011  0.015
   23  0.004  0.001  0.018  0.023
   24  0.009  0.003  0.007  0.019
   25  0.002  0.000  0.006  0.008
   26  0.001  0.003  0.017  0.020
   27  0.002  0.001  0.011  0.015
   28  0.000  0.002  0.014  0.017
   29  0.022  0.003  0.004  0.029
   30  0.000  0.002  0.007  0.008
   31  0.022  0.003  0.004  0.029
   32  0.020  0.003  0.004  0.027
   33  0.000  0.002  0.007  0.009
   34  0.021  0.003  0.004  0.028
   35  0.000  0.001  0.012  0.013
   36  0.000  0.023  0.018  0.041
   37  0.000  0.089  0.000  0.089
tot    0.199  0.181  0.319  0.699
 
band    19 # energy   -4.94436995 # occ.  2.00000000
 
ion      s      p      d    tot
    1  0.000  0.001  0.006  0.008
    2  0.003  0.001  0.004  0.007
    3  0.014  0.003  0.004  0.020
    4  0.003  0.001  0.004  0.008
    5  0.000  0.004  0.006  0.010
    6  0.005  0.001  0.003  0.010
    7  0.014  0.003  0.004  0.020
    8  0.004  0.001  0.003  0.009
    9  0.000  0.001  0.008  0.009
   10  0.000  0.000  0.011  0.011
   11  0.009  0.002  0.008  0.020
   12  0.006  0.002  0.007  0.015
   13  0.010  0.003  0.007  0.020
   14  0.000  0.001  0.020  0.021
   15  0.000  0.001  0.008  0.009
   16  0.006  0.002  0.007  0.015
   17  0.000  0.001  0.008  0.009
   18  0.000  0.002  0.014  0.016
   19  0.002  0.001  0.010  0.012
   20  0.000  0.001  0.021  0.021
   21  0.011  0.003  0.013  0.027
   22  0.007  0.003  0.008  0.018
   23  0.011  0.003  0.013  0.027
   24  0.000  0.001  0.013  0.013
   25  0.000  0.004  0.020  0.024
   26  0.002  0.001  0.009  0.012
   27  0.007  0.002  0.008  0.017
   28  0.000  0.002  0.014  0.017
   29  0.006  0.002  0.006  0.014
   30  0.029  0.003  0.003  0.035
   31  0.007  0.002  0.005  0.014
   32  0.008  0.002  0.006  0.016
   33  0.028  0.003  0.003  0.035
   34  0.008  0.002  0.006  0.016
   35  0.000  0.001  0.012  0.013
   36  0.000  0.023  0.018  0.041
   37  0.000  0.089  0.000  0.089
tot    0.199  0.181  0.319  0.699
 
band    20 # energy   -4.76363791 # occ.  2.00000000
 
ion      s      p      d    tot
    1  0.009  0.000  0.001  0.011
    2  0.000  0.001  0.006  0.008
    3  0.000  0.001  0.006  0.008
    4  0.000  0.001  0.006  0.008
    5  0.013  0.003  0.002  0.018
    6  0.000  0.001  0.006  0.008
    7  0.000  0.001  0.006  0.008
    8  0.000  0.001  0.006  0.008
    9  0.007  0.000  0.001  0.008
   10  0.000  0.000  0.018  0.018
   11  0.005  0.003  0.017  0.025
   12  0.000  0.000  0.018  0.018
   13  0.005  0.003  0.017  0.025
   14  0.005  0.003  0.017  0.025
   15  0.000  0.000  0.007  0.007
   16  0.000  0.000  0.018  0.018
   17  0.000  0.000  0.007  0.007
   18  0.000  0.000  0.007  0.007
   19  0.000  0.000  0.017  0.017
   20  0.015  0.000  0.004  0.020
   21  0.015  0.000  0.004  0.020
   22  0.000  0.002  0.023  0.026
   23  0.015  0.000  0.004  0.020
   24  0.000  0.002  0.023  0.026
   25  0.000  0.000  0.017  0.017
   26  0.000  0.000  0.017  0.017
   27  0.000  0.002  0.023  0.026
   28  0.010  0.000  0.002  0.012
   29  0.001  0.003  0.015  0.020
   30  0.001  0.003  0.015  0.020
   31  0.001  0.003  0.015  0.020
   32  0.001  0.003  0.015  0.020
   33  0.001  0.003  0.015  0.020
   34  0.001  0.003  0.015  0.020
   35  0.027  0.001  0.003  0.031
   36  0.001  0.017  0.076  0.093
   37  0.005  0.117  0.000  0.122
tot    0.144  0.181  0.473  0.798
 
band    21 # energy   -4.45426525 # occ.  2.00000000
 
ion      s      p      d    tot
    1  0.000  0.001  0.024  0.025
    2  0.015  0.002  0.007  0.023
    3  0.007  0.001  0.007  0.015
    4  0.015  0.002  0.007  0.023
    5  0.000  0.001  0.011  0.012
    6  0.001  0.001  0.007  0.009
    7  0.007  0.001  0.007  0.015
    8  0.001  0.001  0.007  0.009
    9  0.000  0.003  0.005  0.008
   10  0.000  0.000  0.056  0.056
   11  0.000  0.003  0.015  0.018
   12  0.000  0.000  0.019  0.019
   13  0.000  0.003  0.014  0.018
   14  0.000  0.000  0.002  0.002
   15  0.000  0.005  0.014  0.019
   16  0.000  0.000  0.019  0.019
   17  0.000  0.004  0.014  0.019
   18  0.000  0.000  0.029  0.029
   19  0.007  0.002  0.009  0.018
   20  0.000  0.000  0.069  0.069
   21  0.000  0.000  0.034  0.034
   22  0.003  0.001  0.015  0.020
   23  0.000  0.000  0.033  0.034
   24  0.000  0.001  0.007  0.007
   25  0.000  0.000  0.021  0.021
   26  0.007  0.002  0.010  0.018
   27  0.003  0.002  0.015  0.020
   28  0.000  0.000  0.005  0.005
   29  0.007  0.001  0.021  0.028
   30  0.000  0.001  0.018  0.019
   31  0.007  0.001  0.021  0.028
   32  0.007  0.000  0.019  0.026
   33  0.000  0.001  0.018  0.019
   34  0.007  0.000  0.019  0.026
   35  0.000  0.001  0.003  0.004
   36  0.000  0.000  0.076  0.076