PROCAR new format
# of k-points:   10         # of bands:  240         # of ions:   38

 k-point     1 :    0.00000000 0.00000000 0.00000000     weight = 0.01562500

band     1 # energy  -20.12509464 # occ.  2.00000000
 
ion      s      p      d    tot
    1  0.000  0.000  0.000  0.000
    2  0.000  0.000  0.000  0.000
    3  0.000  0.000  0.000  0.000
    4  0.000  0.000  0.000  0.000
    5  0.000  0.000  0.000  0.000
    6  0.000  0.000  0.000  0.000
    7  0.000  0.000  0.000  0.000
    8  0.000  0.000  0.000  0.000
    9  0.000  0.000  0.000  0.000
   10  0.000  0.000  0.000  0.000
   11  0.000  0.000  0.000  0.000
   12  0.000  0.000  0.000  0.000
   13  0.000  0.000  0.000  0.000
   14  0.000  0.000  0.000  0.000
   15  0.000  0.000  0.000  0.000
   16  0.000  0.000  0.000  0.000
   17  0.000  0.000  0.000  0.000
   18  0.000  0.000  0.000  0.000
   19  0.000  0.000  0.000  0.000
   20  0.000  0.000  0.000  0.000
   21  0.000  0.000  0.000  0.000
   22  0.000  0.000  0.000  0.000
   23  0.000  0.000  0.000  0.000
   24  0.000  0.000  0.000  0.000
   25  0.000  0.000  0.000  0.000
   26  0.000  0.000  0.000  0.000
   27  0.000  0.000  0.000  0.000
   28  0.000  0.000  0.000  0.000
   29  0.000  0.000  0.000  0.000
   30  0.000  0.000  0.000  0.000
   31  0.000  0.000  0.000  0.000
   32  0.000  0.000  0.000  0.000
   33  0.000  0.000  0.000  0.000
   34  0.000  0.000  0.000  0.000
   35  0.000  0.000  0.000  0.000
   36  0.013  0.021  0.036  0.070
   37  0.742  0.017  0.000  0.759
   38  0.118  0.024  0.000  0.143
tot    0.874  0.063  0.036  0.972
 
band     2 # energy   -8.50337561 # occ.  2.00000000
 
ion      s      p      d    tot
    1  0.000  0.000  0.000  0.000
    2  0.000  0.000  0.000  0.000
    3  0.000  0.000  0.000  0.000
    4  0.000  0.000  0.000  0.000
    5  0.000  0.000  0.000  0.000
    6  0.000  0.000  0.000  0.000
    7  0.000  0.000  0.000  0.000
    8  0.000  0.000  0.000  0.000
    9  0.000  0.000  0.000  0.000
   10  0.000  0.000  0.000  0.000
   11  0.000  0.000  0.000  0.000
   12  0.000  0.000  0.000  0.000
   13  0.000  0.000  0.000  0.000
   14  0.000  0.000  0.000  0.000
   15  0.000  0.000  0.000  0.000
   16  0.000  0.000  0.000  0.000
   17  0.000  0.000  0.000  0.000
   18  0.000  0.000  0.000  0.000
   19  0.000  0.000  0.000  0.000
   20  0.002  0.001  0.002  0.005
   21  0.002  0.001  0.002  0.005
   22  0.000  0.000  0.000  0.000
   23  0.002  0.001  0.002  0.005
   24  0.000  0.000  0.000  0.000
   25  0.000  0.000  0.000  0.000
   26  0.000  0.000  0.000  0.000
   27  0.000  0.000  0.000  0.000
   28  0.000  0.000  0.000  0.000
   29  0.000  0.000  0.000  0.001
   30  0.000  0.000  0.000  0.001
   31  0.000  0.000  0.000  0.001
   32  0.000  0.000  0.000  0.001
   33  0.000  0.000  0.000  0.001
   34  0.000  0.000  0.000  0.001
   35  0.000  0.000  0.000  0.000
   36  0.083  0.045  0.156  0.284
   37  0.029  0.529  0.000  0.557
   38  0.177  0.018  0.000  0.195
tot    0.296  0.594  0.165  1.055
 
band     3 # energy   -6.71383830 # occ.  2.00000000
 
ion      s      p      d    tot
    1  0.005  0.001  0.000  0.006
    2  0.005  0.001  0.000  0.006
    3  0.005  0.001  0.000  0.006
    4  0.005  0.001  0.000  0.006
    5  0.005  0.001  0.000  0.006
    6  0.005  0.001  0.000  0.006
    7  0.005  0.001  0.000  0.006
    8  0.005  0.001  0.000  0.006
    9  0.005  0.001  0.000  0.006
   10  0.022  0.000  0.000  0.022
   11  0.022  0.000  0.000  0.023
   12  0.022  0.000  0.000  0.022
   13  0.022  0.000  0.000  0.023
   14  0.022  0.000  0.000  0.023
   15  0.021  0.000  0.000  0.021
   16  0.022  0.000  0.000  0.022
   17  0.021  0.000  0.000  0.021
   18  0.021  0.000  0.000  0.021
   19  0.022  0.000  0.000  0.023
   20  0.026  0.000  0.000  0.027
   21  0.026  0.000  0.000  0.027
   22  0.022  0.000  0.000  0.023
   23  0.026  0.000  0.000  0.027
   24  0.022  0.000  0.000  0.023
   25  0.022  0.000  0.000  0.023
   26  0.022  0.000  0.000  0.023
   27  0.022  0.000  0.000  0.023
   28  0.006  0.001  0.000  0.007
   29  0.007  0.001  0.000  0.008
   30  0.007  0.001  0.000  0.008
   31  0.007  0.001  0.000  0.008
   32  0.007  0.001  0.000  0.008
   33  0.007  0.001  0.000  0.008
   34  0.007  0.001  0.000  0.008
   35  0.006  0.000  0.000  0.006
   36  0.008  0.006  0.004  0.018
   37  0.001  0.006  0.000  0.007
   38  0.002  0.000  0.000  0.002
tot    0.519  0.024  0.011  0.553
 
band     4 # energy   -5.87022766 # occ.  2.00000000
 
ion      s      p      d    tot
    1  0.009  0.000  0.000  0.010
    2  0.009  0.000  0.000  0.010
    3  0.009  0.000  0.000  0.010
    4  0.009  0.000  0.000  0.010
    5  0.009  0.000  0.000  0.010
    6  0.009  0.000  0.000  0.010
    7  0.009  0.000  0.000  0.010
    8  0.009  0.000  0.000  0.010
    9  0.010  0.000  0.000  0.011
   10  0.013  0.001  0.012  0.026
   11  0.013  0.001  0.012  0.025
   12  0.013  0.001  0.012  0.026
   13  0.013  0.001  0.012  0.025
   14  0.013  0.001  0.012  0.025
   15  0.013  0.001  0.010  0.024
   16  0.013  0.001  0.012  0.026
   17  0.013  0.001  0.010  0.024
   18  0.013  0.001  0.010  0.024
   19  0.007  0.001  0.009  0.017
   20  0.011  0.002  0.011  0.023
   21  0.011  0.002  0.011  0.023
   22  0.007  0.001  0.009  0.017
   23  0.011  0.002  0.011  0.023
   24  0.007  0.001  0.009  0.017
   25  0.007  0.001  0.009  0.017
   26  0.007  0.001  0.009  0.017
   27  0.007  0.001  0.009  0.017
   28  0.009  0.000  0.002  0.011
   29  0.011  0.000  0.004  0.015
   30  0.011  0.000  0.004  0.015
   31  0.011  0.000  0.004  0.015
   32  0.011  0.000  0.004  0.015
   33  0.011  0.000  0.004  0.015
   34  0.011  0.000  0.004  0.015
   35  0.008  0.000  0.001  0.010
   36  0.019  0.004  0.007  0.029
   37  0.001  0.004  0.000  0.005
   38  0.001  0.000  0.000  0.001
tot    0.377  0.035  0.227  0.639
 
band     5 # energy   -5.67496481 # occ.  2.00000000
 
ion      s      p      d    tot
    1  0.001  0.000  0.005  0.006
    2  0.002  0.000  0.003  0.004
    3  0.002  0.000  0.003  0.004
    4  0.002  0.000  0.003  0.004
    5  0.001  0.000  0.001  0.003
    6  0.002  0.000  0.003  0.004
    7  0.002  0.000  0.003  0.004
    8  0.002  0.000  0.003  0.004
    9  0.002  0.000  0.002  0.004
   10  0.000  0.000  0.015  0.015
   11  0.000  0.000  0.011  0.011
   12  0.000  0.000  0.015  0.015
   13  0.000  0.000  0.011  0.011
   14  0.000  0.000  0.011  0.011
   15  0.000  0.000  0.006  0.006
   16  0.000  0.000  0.015  0.015
   17  0.000  0.000  0.006  0.006
   18  0.000  0.000  0.006  0.006
   19  0.005  0.000  0.020  0.026
   20  0.001  0.001  0.070  0.072
   21  0.001  0.001  0.070  0.072
   22  0.002  0.000  0.015  0.017
   23  0.001  0.001  0.070  0.072
   24  0.002  0.000  0.015  0.017
   25  0.005  0.000  0.020  0.026
   26  0.005  0.000  0.020  0.026
   27  0.002  0.000  0.015  0.017
   28  0.004  0.000  0.014  0.018
   29  0.011  0.000  0.030  0.041
   30  0.011  0.000  0.030  0.041
   31  0.011  0.000  0.030  0.041
   32  0.011  0.000  0.030  0.041
   33  0.011  0.000  0.030  0.041
   34  0.011  0.000  0.030  0.041
   35  0.006  0.000  0.014  0.021
   36  0.033  0.001  0.021  0.054
   37  0.000  0.001  0.000  0.001
   38  0.000  0.000  0.000  0.000
tot    0.149  0.006  0.667  0.822
 
band     6 # energy   -5.49765940 # occ.  2.00000000
 
ion      s      p      d    tot
    1  0.005  0.001  0.001  0.006
    2  0.000  0.000  0.004  0.004
    3  0.000  0.000  0.004  0.004
    4  0.000  0.000  0.004  0.004
    5  0.001  0.000  0.000  0.002
    6  0.000  0.000  0.004  0.004
    7  0.000  0.000  0.004  0.004
    8  0.000  0.000  0.004  0.004
    9  0.000  0.000  0.000  0.001
   10  0.004  0.000  0.021  0.026
   11  0.000  0.000  0.015  0.016
   12  0.004  0.000  0.021  0.026
   13  0.000  0.000  0.015  0.016
   14  0.000  0.000  0.015  0.016
   15  0.003  0.001  0.004  0.007
   16  0.004  0.000  0.021  0.026
   17  0.003  0.001  0.004  0.007
   18  0.003  0.001  0.004  0.007
   19  0.001  0.001  0.036  0.037
   20  0.006  0.000  0.129  0.135
   21  0.006  0.000  0.129  0.135
   22  0.016  0.000  0.009  0.026
   23  0.006  0.000  0.129  0.135
   24  0.016  0.000  0.009  0.026
   25  0.001  0.001  0.036  0.037
   26  0.001  0.001  0.036  0.037
   27  0.016  0.000  0.009  0.026
   28  0.000  0.000  0.001  0.001
   29  0.000  0.000  0.004  0.005
   30  0.000  0.000  0.004  0.005
   31  0.000  0.000  0.004  0.005
   32  0.000  0.000  0.004  0.005
   33  0.000  0.000  0.004  0.005
   34  0.000  0.000  0.004  0.005
   35  0.006  0.001  0.002  0.009
   36  0.003  0.009  0.001  0.013
   37  0.001  0.004  0.000  0.005
   38  0.001  0.000  0.000  0.002
tot    0.108  0.024  0.697  0.829
 
band     7 # energy   -5.48462506 # occ.  2.00000000
 
ion      s      p      d    tot
    1  0.000  0.000  0.006  0.006
    2  0.000  0.000  0.002  0.002
    3  0.000  0.000  0.002  0.002
    4  0.000  0.000  0.002  0.002
    5  0.000  0.000  0.003  0.003
    6  0.001  0.000  0.002  0.003
    7  0.000  0.000  0.002  0.002
    8  0.001  0.000  0.002  0.003
    9  0.000  0.000  0.001  0.001
   10  0.005  0.001  0.014  0.021
   11  0.000  0.000  0.020  0.021
   12  0.001  0.001  0.018  0.020
   13  0.000  0.000  0.020  0.021
   14  0.000  0.000  0.019  0.020
   15  0.001  0.000  0.006  0.007
   16  0.002  0.001  0.017  0.020
   17  0.000  0.000  0.006  0.006
   18  0.003  0.000  0.008  0.011
   19  0.007  0.001  0.030  0.038
   20  0.026  0.000  0.009  0.035
   21  0.004  0.000  0.167  0.172
   22  0.000  0.001  0.038  0.039
   23  0.009  0.000  0.131  0.140
   24  0.000  0.000  0.033  0.033
   25  0.021  0.000  0.041  0.062
   26  0.003  0.001  0.027  0.031
   27  0.000  0.001  0.037  0.038
   28  0.000  0.000  0.005  0.005
   29  0.001  0.000  0.004  0.006
   30  0.000  0.000  0.009  0.010
   31  0.001  0.001  0.005  0.006
   32  0.000  0.000  0.008  0.008
   33  0.000  0.000  0.008  0.009
   34  0.000  0.000  0.007  0.007
   35  0.000  0.000  0.000  0.000
   36  0.000  0.001  0.009  0.010
   37  0.000  0.003  0.000  0.003
   38  0.000  0.000  0.000  0.000
tot    0.089  0.016  0.718  0.823
 
band     8 # energy   -5.48462103 # occ.  2.00000000
 
ion      s      p      d    tot
    1  0.000  0.000  0.006  0.006
    2  0.001  0.000  0.002  0.002
    3  0.001  0.000  0.002  0.002
    4  0.001  0.000  0.002  0.002
    5  0.000  0.000  0.003  0.003
    6  0.000  0.000  0.002  0.002
    7  0.001  0.000  0.002  0.002
    8  0.000  0.000  0.002  0.002
    9  0.000  0.000  0.001  0.001
   10  0.000  0.001  0.019  0.019
   11  0.000  0.000  0.020  0.020
   12  0.005  0.001  0.015  0.021
   13  0.000  0.000  0.019  0.020
   14  0.000  0.001  0.020  0.021
   15  0.002  0.000  0.007  0.009
   16  0.004  0.001  0.016  0.020
   17  0.002  0.000  0.008  0.010
   18  0.000  0.000  0.005  0.005
   19  0.013  0.001  0.035  0.049
   20  0.000  0.000  0.196  0.196
   21  0.022  0.000  0.037  0.060
   22  0.000  0.001  0.034  0.034
   23  0.017  0.000  0.074  0.091
   24  0.000  0.001  0.039  0.040
   25  0.000  0.001  0.024  0.026
   26  0.017  0.000  0.039  0.056
   27  0.000  0.001  0.035  0.036
   28  0.000  0.000  0.005  0.005
   29  0.000  0.000  0.009  0.010
   30  0.001  0.000  0.005  0.006
   31  0.000  0.000  0.009  0.009
   32  0.001  0.001  0.006  0.007
   33  0.000  0.000  0.006  0.006
   34  0.001  0.001  0.007  0.008
   35  0.000  0.000  0.000  0.000
   36  0.000  0.001  0.009  0.010
   37  0.000  0.003  0.000  0.003
   38  0.000  0.000  0.000  0.000
tot    0.089  0.016  0.718  0.823
 
band     9 # energy   -5.45598458 # occ.  2.00000000
 
ion      s      p      d    tot
    1  0.017  0.000  0.008  0.026
    2  0.011  0.000  0.023  0.033
    3  0.011  0.000  0.023  0.033
    4  0.011  0.000  0.023  0.033
    5  0.013  0.000  0.033  0.046
    6  0.011  0.000  0.023  0.033
    7  0.011  0.000  0.023  0.033
    8  0.011  0.000  0.023  0.033
    9  0.005  0.000  0.025  0.030
   10  0.000  0.001  0.023  0.023
   11  0.001  0.000  0.038  0.040
   12  0.000  0.001  0.023  0.023
   13  0.001  0.000  0.038  0.040
   14  0.001  0.000  0.038  0.040
   15  0.005  0.000  0.021  0.026
   16  0.000  0.001  0.023  0.023
   17  0.005  0.000  0.021  0.026
   18  0.005  0.000  0.021  0.026
   19  0.003  0.000  0.002  0.005
   20  0.000  0.000  0.029  0.029
   21  0.000  0.000  0.029  0.029
   22  0.000  0.000  0.010  0.011
   23  0.000  0.000  0.029  0.029
   24  0.000  0.000  0.010  0.011
   25  0.003  0.000  0.002  0.005
   26  0.003  0.000  0.002  0.005
   27  0.000  0.000  0.010  0.011
   28  0.003  0.000  0.000  0.004
   29  0.000  0.000  0.013  0.013
   30  0.000  0.000  0.013  0.013
   31  0.000  0.000  0.013  0.013
   32  0.000  0.000  0.013  0.013
   33  0.000  0.000  0.013  0.013
   34  0.000  0.000  0.013  0.013
   35  0.000  0.000  0.001  0.001
   36  0.008  0.001  0.003  0.013
   37  0.000  0.000  0.000  0.001
   38  0.000  0.000  0.000  0.000
tot    0.138  0.009  0.656  0.803
 
band    10 # energy   -5.43612542 # occ.  2.00000000
 
ion      s      p      d    tot
    1  0.000  0.000  0.004  0.004
    2  0.000  0.000  0.002  0.002
    3  0.001  0.000  0.006  0.007
    4  0.000  0.000  0.002  0.002
    5  0.000  0.000  0.008  0.008
    6  0.001  0.001  0.005  0.007
    7  0.001  0.000  0.006  0.007
    8  0.001  0.001  0.005  0.007
    9  0.000  0.000  0.001  0.001
   10  0.008  0.001  0.016  0.024
   11  0.008  0.001  0.066  0.075
   12  0.002  0.000  0.072  0.074
   13  0.007  0.001  0.067  0.075
   14  0.031  0.001  0.016  0.047
   15  0.002  0.001  0.013  0.016
   16  0.002  0.000  0.070  0.073
   17  0.001  0.001  0.013  0.015
   18  0.006  0.000  0.034  0.040
   19  0.000  0.000  0.022  0.023
   20  0.013  0.000  0.050  0.064
   21  0.003  0.001  0.035  0.039
   22  0.003  0.000  0.023  0.025
   23  0.003  0.001  0.036  0.040
   24  0.011  0.001  0.008  0.019
   25  0.000  0.000  0.014  0.015
   26  0.000  0.000  0.023  0.023
   27  0.003  0.000  0.022  0.025
   28  0.000  0.000  0.001  0.001
   29  0.002  0.000  0.007  0.009
   30  0.001  0.000  0.005  0.006
   31  0.002  0.000  0.007  0.009
   32  0.000  0.000  0.004  0.004
   33  0.001  0.000  0.005  0.006
   34  0.000  0.000  0.004  0.004
   35  0.000  0.000  0.007  0.007
   36  0.000  0.000  0.005  0.006
   37  0.000  0.000  0.000  0.000
   38  0.000  0.000  0.000  0.000
tot    0.114  0.016  0.681  0.811
 
band    11 # energy   -5.43611980 # occ.  2.00000000
 
ion      s      p      d    tot
    1  0.000  0.000  0.004  0.004
    2  0.001  0.001  0.006  0.008
    3  0.001  0.000  0.002  0.003
    4  0.001  0.001  0.006  0.008
    5  0.000  0.000  0.008  0.008
    6  0.000  0.000  0.003  0.004
    7  0.001  0.000  0.003  0.004
    8  0.000  0.000  0.004  0.004
    9  0.000  0.000  0.001  0.001
   10  0.000  0.000  0.090  0.090
   11  0.023  0.001  0.033  0.057
   12  0.006  0.001  0.033  0.040
   13  0.024  0.001  0.032  0.056
   14  0.000  0.001  0.083  0.084
   15  0.004  0.000  0.027  0.032
   16  0.006  0.001  0.035  0.041
   17  0.005  0.000  0.027  0.032
   18  0.000  0.002  0.006  0.008
   19  0.000  0.000  0.017  0.018
   20  0.000  0.001  0.031  0.032
   21  0.010  0.001  0.046  0.056
   22  0.008  0.001  0.012  0.021
   23  0.009  0.001  0.045  0.055
   24  0.000  0.000  0.027  0.027
   25  0.000  0.000  0.025  0.026
   26  0.000  0.000  0.017  0.017
   27  0.008  0.001  0.013  0.022
   28  0.000  0.000  0.001  0.001
   29  0.000  0.000  0.004  0.004
   30  0.001  0.000  0.005  0.007
   31  0.000  0.000  0.004  0.004
   32  0.002  0.000  0.006  0.009
   33  0.001  0.000  0.005  0.007
   34  0.002  0.000  0.006  0.009
   35  0.000  0.000  0.007  0.007
   36  0.000  0.000  0.005  0.006
   37  0.000  0.000  0.000  0.000
   38  0.000  0.000  0.000  0.000
tot    0.114  0.016  0.681  0.811
 
band    12 # energy   -5.41867959 # occ.  2.00000000
 
ion      s      p      d    tot
    1  0.000  0.000  0.000  0.001
    2  0.000  0.000  0.006  0.006
    3  0.000  0.000  0.006  0.006
    4  0.000  0.000  0.006  0.006
    5  0.004  0.001  0.002  0.007
    6  0.000  0.000  0.006  0.006
    7  0.000  0.000  0.006  0.006
    8  0.000  0.000  0.006  0.006
    9  0.001  0.000  0.005  0.006
   10  0.007  0.001  0.009  0.016
   11  0.015  0.001  0.033  0.048
   12  0.007  0.001  0.009  0.016
   13  0.015  0.001  0.033  0.048
   14  0.015  0.001  0.033  0.048
   15  0.002  0.000  0.049  0.051
   16  0.007  0.001  0.009  0.016
   17  0.002  0.000  0.049  0.051
   18  0.002  0.000  0.049  0.051
   19  0.011  0.000  0.029  0.041
   20  0.007  0.001  0.024  0.033
   21  0.007  0.001  0.024  0.033
   22  0.000  0.000  0.035  0.036
   23  0.007  0.001  0.024  0.033
   24  0.000  0.000  0.035  0.036
   25  0.011  0.000  0.029  0.041
   26  0.011  0.000  0.029  0.041
   27  0.000  0.000  0.035  0.036
   28  0.005  0.001  0.001  0.007
   29  0.000  0.000  0.009  0.009
   30  0.000  0.000  0.009  0.010
   31  0.000  0.000  0.009  0.009
   32  0.000  0.000  0.009  0.010
   33  0.000  0.000  0.009  0.010
   34  0.000  0.000  0.009  0.010
   35  0.001  0.000  0.002  0.003
   36  0.000  0.000  0.000  0.000
   37  0.000  0.000  0.000  0.000
   38  0.000  0.000  0.000  0.000
tot    0.136  0.019  0.637  0.792
 
band    13 # energy   -5.40852313 # occ.  2.00000000
 
ion      s      p      d    tot
    1  0.002  0.000  0.034  0.037
    2  0.006  0.000  0.015  0.021
    3  0.006  0.000  0.015  0.021
    4  0.006  0.000  0.015  0.021
    5  0.003  0.000  0.004  0.008
    6  0.006  0.000  0.015  0.021
    7  0.006  0.000  0.015  0.021
    8  0.006  0.000  0.015  0.021
    9  0.015  0.000  0.008  0.024
   10  0.006  0.000  0.038  0.044
   11  0.001  0.000  0.029  0.031
   12  0.006  0.000  0.038  0.044
   13  0.001  0.000  0.029  0.031
   14  0.001  0.000  0.029  0.031
   15  0.001  0.001  0.006  0.007
   16  0.006  0.000  0.038  0.044
   17  0.001  0.001  0.006  0.007
   18  0.001  0.001  0.006  0.007
   19  0.000  0.000  0.011  0.011
   20  0.003  0.000  0.018  0.021
   21  0.003  0.000  0.018  0.021
   22  0.002  0.000  0.021  0.023
   23  0.003  0.000  0.018  0.021
   24  0.002  0.000  0.021  0.023
   25  0.000  0.000  0.011  0.011
   26  0.000  0.000  0.011  0.011
   27  0.002  0.000  0.021  0.023
   28  0.014  0.000  0.011  0.025
   29  0.004  0.000  0.019  0.024
   30  0.004  0.000  0.019  0.024
   31  0.004  0.000  0.019  0.024
   32  0.004  0.000  0.019  0.024
   33  0.004  0.000  0.019  0.024
   34  0.004  0.000  0.019  0.024
   35  0.004  0.000  0.018  0.023
   36  0.000  0.001  0.001  0.002
   37  0.000  0.000  0.000  0.000
   38  0.000  0.000  0.000  0.000
tot    0.138  0.009  0.652  0.798
 
band    14 # energy   -5.39324565 # occ.  2.00000000
 
ion      s      p      d    tot
    1  0.000  0.001  0.007  0.007
    2  0.004  0.001  0.005  0.010
    3  0.002  0.000  0.004  0.007
    4  0.004  0.001  0.005  0.010
    5  0.000  0.000  0.007  0.007
    6  0.000  0.000  0.006  0.007
    7  0.002  0.000  0.004  0.006
    8  0.000  0.000  0.006  0.006
    9  0.000  0.000  0.011  0.011
   10  0.015  0.000  0.012  0.027
   11  0.000  0.000  0.012  0.012
   12  0.005  0.000  0.027  0.032
   13  0.000  0.000  0.013  0.014
   14  0.001  0.000  0.019  0.020
   15  0.001  0.000  0.036  0.037
   16  0.003  0.000  0.030  0.033
   17  0.002  0.000  0.032  0.035
   18  0.008  0.000  0.015  0.023
   19  0.002  0.000  0.073  0.075
   20  0.001  0.000  0.053  0.055
   21  0.000  0.001  0.030  0.031
   22  0.006  0.000  0.046  0.053
   23  0.000  0.001  0.025  0.026
   24  0.020  0.000  0.012  0.032
   25  0.010  0.000  0.010  0.021
   26  0.003  0.000  0.063  0.066
   27  0.004  0.000  0.053  0.057
   28  0.000  0.000  0.011  0.011
   29  0.000  0.000  0.011  0.012
   30  0.002  0.000  0.006  0.008
   31  0.001  0.000  0.012  0.013
   32  0.005  0.001  0.009  0.015
   33  0.003  0.000  0.005  0.009
   34  0.005  0.001  0.008  0.014
   35  0.000  0.001  0.006  0.007
   36  0.000  0.000  0.004  0.004
   37  0.000  0.000  0.000  0.000
   38  0.000  0.000  0.000  0.000
tot    0.111  0.013  0.691  0.815
 
band    15 # energy   -5.39323927 # occ.  2.00000000
 
ion      s      p      d    tot
    1  0.000  0.001  0.007  0.007
    2  0.000  0.000  0.005  0.006
    3  0.002  0.001  0.006  0.008
    4  0.000  0.000  0.005  0.006
    5  0.000  0.000  0.007  0.007
    6  0.004  0.001  0.004  0.008
    7  0.002  0.001  0.006  0.009
    8  0.004  0.001  0.004  0.009
    9  0.000  0.000  0.011  0.011
   10  0.000  0.000  0.034  0.034
   11  0.001  0.000  0.017  0.018
   12  0.010  0.000  0.019  0.030
   13  0.001  0.000  0.016  0.017
   14  0.000  0.000  0.010  0.011
   15  0.006  0.000  0.019  0.026
   16  0.013  0.000  0.016  0.029
   17  0.005  0.000  0.023  0.029
   18  0.000  0.000  0.041  0.041
   19  0.008  0.000  0.024  0.033
   20  0.000  0.001  0.018  0.019
   21  0.001  0.001  0.042  0.044
   22  0.014  0.000  0.028  0.042
   23  0.001  0.000  0.047  0.049
   24  0.000  0.000  0.062  0.063
   25  0.000  0.000  0.087  0.087
   26  0.007  0.000  0.035  0.042
   27  0.016  0.000  0.021  0.038
   28  0.000  0.000  0.011  0.011
   29  0.005  0.001  0.006  0.012
   30  0.003  0.001  0.011  0.015
   31  0.004  0.001  0.006  0.011
   32  0.001  0.000  0.008  0.009
   33  0.002  0.001  0.012  0.015
   34  0.000  0.000  0.009  0.009
   35  0.000  0.001  0.006  0.007
   36  0.000  0.000  0.004  0.004
   37  0.000  0.000  0.000  0.000
   38  0.000  0.000  0.000  0.000
tot    0.111  0.013  0.691  0.815
 
band    16 # energy   -5.38468274 # occ.  2.00000000
 
ion      s      p      d    tot
    1  0.001  0.000  0.002  0.002
    2  0.000  0.000  0.006  0.006
    3  0.000  0.000  0.006  0.006
    4  0.000  0.000  0.006  0.006
    5  0.001  0.000  0.000  0.001
    6  0.000  0.000  0.006  0.006
    7  0.000  0.000  0.006  0.006
    8  0.000  0.000  0.006  0.006
    9  0.000  0.000  0.008  0.009
   10  0.000  0.000  0.047  0.047
   11  0.002  0.000  0.003  0.005
   12  0.000  0.000  0.047  0.047
   13  0.002  0.000  0.003  0.005
   14  0.002  0.000  0.003  0.005
   15  0.004  0.000  0.047  0.051
   16  0.000  0.000  0.047  0.047
   17  0.004  0.000  0.047  0.051
   18  0.004  0.000  0.047  0.051
   19  0.004  0.000  0.048  0.052
   20  0.001  0.000  0.017  0.019
   21  0.001  0.000  0.017  0.019
   22  0.000  0.000  0.053  0.054
   23  0.001  0.000  0.017  0.019
   24  0.000  0.000  0.053  0.054
   25  0.004  0.000  0.048  0.052
   26  0.004  0.000  0.048  0.052
   27  0.000  0.000  0.053  0.054
   28  0.000  0.000  0.009  0.010
   29  0.000  0.000  0.016  0.016
   30  0.000  0.000  0.016  0.016
   31  0.000  0.000  0.016  0.016
   32  0.000  0.000  0.016  0.016
   33  0.000  0.000  0.016  0.016
   34  0.000  0.000  0.016  0.016
   35  0.004  0.000  0.007  0.011
   36  0.001  0.002  0.000  0.003
   37  0.000  0.000  0.000  0.000
   38  0.000  0.000  0.000  0.000
tot    0.040  0.009  0.803  0.851
 
band    17 # energy   -5.37293370 # occ.  2.00000000
 
ion      s      p      d    tot
    1  0.000  0.000  0.008  0.008
    2  0.000  0.000  0.009  0.009
    3  0.001  0.001  0.006  0.007
    4  0.000  0.000  0.009  0.009
    5  0.000  0.000  0.001  0.001
    6  0.001  0.000  0.005  0.006
    7  0.001  0.001  0.005  0.007
    8  0.001  0.000  0.004  0.005
    9  0.000  0.000  0.012  0.012
   10  0.007  0.000  0.045  0.052
   11  0.000  0.000  0.055  0.056
   12  0.002  0.000  0.022  0.025
   13  0.000  0.000  0.050  0.051
   14  0.001  0.000  0.021  0.023
   15  0.003  0.000  0.090  0.093
   16  0.001  0.000  0.018  0.020
   17  0.004  0.000  0.080  0.084
   18  0.014  0.000  0.014  0.028
   19  0.000  0.000  0.048  0.049
   20  0.000  0.000  0.037  0.037
   21  0.000  0.000  0.015  0.016
   22  0.000  0.000  0.033  0.033
   23  0.000  0.000  0.012  0.012
   24  0.001  0.000  0.032  0.033
   25  0.001  0.001  0.011  0.012
   26  0.000  0.000  0.043  0.044
   27  0.000  0.000  0.033  0.033
   28  0.000  0.000  0.013  0.013
   29  0.002  0.000  0.008  0.010
   30  0.001  0.000  0.006  0.007
   31  0.002  0.000  0.008  0.011
   32  0.001  0.000  0.008  0.009
   33  0.000  0.000  0.006  0.007
   34  0.001  0.000  0.008  0.008
   35  0.000  0.000  0.016  0.016
   36  0.000  0.000  0.000  0.001
   37  0.000  0.000  0.000  0.000
   38  0.000  0.000  0.000  0.000
tot    0.047  0.007  0.792  0.846
 
band    18 # energy   -5.37292181 # occ.  2.00000000
 
ion      s      p      d    tot
    1  0.000  0.000  0.008  0.008
    2  0.001  0.000  0.004  0.005
    3  0.000  0.000  0.007  0.007
    4  0.001  0.000  0.004  0.005
    5  0.000  0.000  0.001  0.001
    6  0.000  0.000  0.008  0.009
    7  0.000  0.000  0.007  0.008
    8  0.000  0.000  0.008  0.009
    9  0.000  0.000  0.012  0.012
   10  0.000  0.001  0.012  0.012
   11  0.001  0.000  0.029  0.031
   12  0.005  0.000  0.035  0.040
   13  0.001  0.000  0.034  0.035
   14  0.000  0.000  0.063  0.064
   15  0.011  0.000  0.032  0.044
   16  0.006  0.000  0.039  0.045
   17  0.010  0.000  0.043  0.053
   18  0.000  0.000  0.109  0.109
   19  0.001  0.000  0.020  0.021
   20  0.000  0.000  0.006  0.006
   21  0.000  0.000  0.027  0.027
   22  0.001  0.000  0.033  0.033
   23  0.000  0.000  0.031  0.031
   24  0.000  0.000  0.033  0.033
   25  0.000  0.000  0.057  0.057
   26  0.001  0.000  0.025  0.026
   27  0.001  0.000  0.032  0.033
   28  0.000  0.000  0.013  0.013
   29  0.000  0.000  0.007  0.007
   30  0.002  0.000  0.009  0.010
   31  0.000  0.000  0.007  0.007
   32  0.001  0.000  0.007  0.008
   33  0.002  0.000  0.009  0.011
   34  0.002  0.000  0.007  0.009
   35  0.000  0.000  0.016  0.016
   36  0.000  0.000  0.000  0.001
   37  0.000  0.000  0.000  0.000
   38  0.000  0.000  0.000  0.000
tot    0.047  0.007  0.792  0.846
 
band    19 # energy   -5.27823793 # occ.  2.00000000
 
ion      s      p      d    tot
    1  0.000  0.000  0.001  0.001
    2  0.001  0.000  0.005  0.007
    3  0.000  0.000  0.005  0.005
    4  0.001  0.000  0.005  0.007
    5  0.000  0.001  0.014  0.014
    6  0.001  0.000  0.004  0.006
    7  0.000  0.000  0.005  0.005
    8  0.001  0.000  0.004  0.006
    9  0.000  0.000  0.007  0.007
   10  0.001  0.001  0.021  0.023
   11  0.001  0.000  0.060  0.061
   12  0.000  0.000  0.012  0.013
   13  0.001  0.000  0.061  0.062
   14  0.004  0.000  0.043  0.047
   15  0.001  0.000  0.011  0.012
   16  0.000  0.000  0.013  0.013
   17  0.001  0.000  0.010  0.011
   18  0.003  0.000  0.019  0.022
   19  0.000  0.000  0.007  0.007
   20  0.002  0.000  0.086  0.089
   21  0.000  0.000  0.121  0.121
   22  0.000  0.000  0.032  0.032
   23  0.001  0.000  0.119  0.120
   24  0.000  0.001  0.022  0.023
   25  0.001  0.001  0.024  0.026
   26  0.000  0.000  0.006  0.006
   27  0.000  0.000  0.031  0.032
   28  0.000  0.000  0.003  0.003
   29  0.000  0.000  0.009  0.009
   30  0.000  0.000  0.011  0.011
   31  0.000  0.000  0.009  0.009
   32  0.001  0.001  0.012  0.014
   33  0.000  0.000  0.011  0.011
   34  0.001  0.001  0.011  0.014
   35  0.000  0.000  0.001  0.001
   36  0.000  0.002  0.013  0.015
   37  0.000  0.005  0.000  0.005
   38  0.000  0.000  0.000  0.000
tot    0.022  0.020  0.828  0.870
 
band    20 # energy   -5.27822903 # occ.  2.00000000
 
ion      s      p      d    tot
    1  0.000  0.000  0.001  0.001
    2  0.000  0.000  0.005  0.005
    3  0.001  0.001  0.005  0.007
    4  0.001  0.000  0.005  0.005
    5  0.000  0.001  0.014  0.014
    6  0.000  0.000  0.006  0.006
    7  0.001  0.001  0.005  0.007
    8  0.000  0.000  0.006  0.006
    9  0.000  0.000  0.007  0.007
   10  0.000  0.000  0.010  0.010
   11  0.003  0.000  0.049  0.052
   12  0.001  0.001  0.018  0.020
   13  0.003  0.000  0.048  0.051
   14  0.000  0.001  0.066  0.066
   15  0.002  0.000  0.016  0.018
   16  0.001  0.001  0.018  0.019
   17  0.002  0.000  0.016  0.019
   18  0.000  0.000  0.008  0.008
   19  0.000  0.001  0.018  0.019
   20  0.000  0.000  0.131  0.131
   21  0.002  0.000  0.097  0.099
   22  0.000  0.001  0.025  0.026
   23  0.002  0.000  0.098  0.100
   24  0.000  0.000  0.035  0.035
   25  0.000  0.000  0.000  0.000
   26  0.000  0.001  0.019  0.020
   27  0.000  0.001  0.026  0.026
   28  0.000  0.000  0.003  0.003
   29  0.001  0.001  0.012  0.014
   30  0.001  0.001  0.010  0.011
   31  0.001  0.001  0.012  0.014
   32  0.000  0.000  0.009  0.009
   33  0.001  0.001  0.010  0.011
   34  0.000  0.000  0.009  0.009
   35  0.000  0.000  0.001  0.001
   36  0.000  0.002  0.013  0.015
   37  0.000  0.005  0.000  0.005
   38  0.000  0.000  0.000  0.000
tot    0.022  0.020  0.828  0.870
 
band    21 # energy   -5.25290958 # occ.  2.00000000
 
ion      s      p      d    tot
    1  0.000  0.000  0.000  0.000
    2  0.000  0.000  0.003  0.003
    3  0.000  0.000  0.003  0.003
    4  0.000  0.000  0.003  0.003
    5  0.001  0.000  0.015  0.016
    6  0.000  0.000  0.003  0.003
    7  0.000  0.000  0.003  0.003
    8  0.000  0.000  0.003  0.003
    9  0.001  0.000  0.005  0.006
   10  0.000  0.000  0.011  0.011
   11  0.000  0.001  0.076  0.077
   12  0.000  0.000  0.011  0.011
   13  0.000  0.001  0.076  0.077
   14  0.000  0.001  0.076  0.077
   15  0.001  0.001  0.034  0.035
   16  0.000  0.000  0.011  0.011