PROCAR new format
# of k-points:   10         # of bands:  252         # of ions:   38

 k-point     1 :    0.00000000 0.00000000 0.00000000     weight = 0.01562500

band     1 # energy  -21.86689018 # occ.  2.00000000
 
ion      s      p      d    tot
    1  0.000  0.000  0.000  0.000
    2  0.000  0.000  0.000  0.000
    3  0.000  0.000  0.000  0.000
    4  0.000  0.000  0.000  0.000
    5  0.000  0.000  0.000  0.000
    6  0.000  0.000  0.000  0.000
    7  0.000  0.000  0.000  0.000
    8  0.000  0.000  0.000  0.000
    9  0.000  0.000  0.000  0.000
   10  0.000  0.000  0.000  0.000
   11  0.000  0.000  0.000  0.000
   12  0.000  0.000  0.000  0.000
   13  0.000  0.000  0.000  0.000
   14  0.000  0.000  0.000  0.000
   15  0.000  0.000  0.000  0.000
   16  0.000  0.000  0.000  0.000
   17  0.000  0.000  0.000  0.000
   18  0.000  0.000  0.000  0.000
   19  0.000  0.000  0.000  0.000
   20  0.000  0.000  0.000  0.000
   21  0.000  0.000  0.000  0.000
   22  0.000  0.000  0.000  0.000
   23  0.000  0.000  0.000  0.000
   24  0.000  0.000  0.000  0.000
   25  0.000  0.000  0.000  0.000
   26  0.000  0.000  0.000  0.000
   27  0.000  0.000  0.000  0.000
   28  0.000  0.000  0.000  0.000
   29  0.000  0.000  0.000  0.000
   30  0.000  0.000  0.000  0.000
   31  0.000  0.000  0.000  0.000
   32  0.000  0.000  0.000  0.000
   33  0.000  0.000  0.000  0.000
   34  0.000  0.000  0.000  0.000
   35  0.000  0.000  0.000  0.000
   36  0.000  0.000  0.000  0.001
   37  0.154  0.110  0.000  0.264
   38  0.636  0.091  0.000  0.727
tot    0.791  0.202  0.000  0.992
 
band     2 # energy   -7.99199464 # occ.  2.00000000
 
ion      s      p      d    tot
    1  0.000  0.000  0.000  0.000
    2  0.000  0.000  0.000  0.000
    3  0.000  0.000  0.000  0.000
    4  0.000  0.000  0.000  0.000
    5  0.000  0.000  0.000  0.000
    6  0.000  0.000  0.000  0.000
    7  0.000  0.000  0.000  0.000
    8  0.000  0.000  0.000  0.000
    9  0.000  0.000  0.000  0.000
   10  0.000  0.000  0.000  0.000
   11  0.000  0.000  0.000  0.000
   12  0.000  0.000  0.000  0.000
   13  0.000  0.000  0.000  0.000
   14  0.000  0.000  0.000  0.000
   15  0.000  0.000  0.000  0.000
   16  0.000  0.000  0.000  0.000
   17  0.000  0.000  0.000  0.000
   18  0.000  0.000  0.000  0.000
   19  0.000  0.000  0.000  0.000
   20  0.001  0.000  0.001  0.002
   21  0.001  0.000  0.001  0.002
   22  0.000  0.000  0.000  0.000
   23  0.001  0.000  0.001  0.002
   24  0.000  0.000  0.000  0.000
   25  0.000  0.000  0.000  0.000
   26  0.000  0.000  0.000  0.000
   27  0.000  0.000  0.000  0.000
   28  0.000  0.000  0.000  0.000
   29  0.001  0.000  0.000  0.001
   30  0.001  0.000  0.000  0.001
   31  0.001  0.000  0.000  0.001
   32  0.001  0.000  0.000  0.001
   33  0.001  0.000  0.000  0.001
   34  0.001  0.000  0.000  0.001
   35  0.000  0.000  0.000  0.000
   36  0.064  0.039  0.113  0.215
   37  0.292  0.013  0.000  0.305
   38  0.130  0.175  0.000  0.305
tot    0.493  0.228  0.119  0.840
 
band     3 # energy   -6.30531680 # occ.  2.00000000
 
ion      s      p      d    tot
    1  0.006  0.001  0.000  0.007
    2  0.006  0.001  0.000  0.007
    3  0.006  0.001  0.000  0.007
    4  0.006  0.001  0.000  0.007
    5  0.006  0.001  0.000  0.007
    6  0.006  0.001  0.000  0.007
    7  0.006  0.001  0.000  0.007
    8  0.006  0.001  0.000  0.007
    9  0.006  0.001  0.000  0.007
   10  0.024  0.000  0.000  0.024
   11  0.024  0.000  0.000  0.024
   12  0.024  0.000  0.000  0.024
   13  0.024  0.000  0.000  0.024
   14  0.024  0.000  0.000  0.024
   15  0.023  0.000  0.000  0.024
   16  0.024  0.000  0.000  0.024
   17  0.023  0.000  0.000  0.024
   18  0.023  0.000  0.000  0.024
   19  0.022  0.000  0.000  0.022
   20  0.023  0.000  0.000  0.024
   21  0.023  0.000  0.000  0.024
   22  0.022  0.000  0.000  0.022
   23  0.023  0.000  0.000  0.024
   24  0.022  0.000  0.000  0.022
   25  0.022  0.000  0.000  0.022
   26  0.022  0.000  0.000  0.022
   27  0.022  0.000  0.000  0.022
   28  0.005  0.001  0.000  0.006
   29  0.005  0.001  0.000  0.005
   30  0.005  0.001  0.000  0.005
   31  0.005  0.001  0.000  0.005
   32  0.005  0.001  0.000  0.005
   33  0.005  0.001  0.000  0.005
   34  0.005  0.001  0.000  0.005
   35  0.005  0.001  0.000  0.006
   36  0.008  0.001  0.000  0.009
   37  0.001  0.003  0.000  0.004
   38  0.003  0.013  0.000  0.016
tot    0.518  0.029  0.007  0.554
 
band     4 # energy   -5.55433792 # occ.  2.00000000
 
ion      s      p      d    tot
    1  0.004  0.000  0.000  0.004
    2  0.005  0.000  0.000  0.005
    3  0.005  0.000  0.000  0.005
    4  0.005  0.000  0.000  0.005
    5  0.005  0.000  0.000  0.006
    6  0.005  0.000  0.000  0.005
    7  0.005  0.000  0.000  0.005
    8  0.005  0.000  0.000  0.005
    9  0.005  0.000  0.000  0.006
   10  0.005  0.001  0.009  0.014
   11  0.007  0.000  0.004  0.012
   12  0.005  0.001  0.009  0.014
   13  0.007  0.000  0.004  0.012
   14  0.007  0.000  0.004  0.012
   15  0.009  0.000  0.004  0.013
   16  0.005  0.001  0.009  0.014
   17  0.009  0.000  0.004  0.013
   18  0.009  0.000  0.004  0.013
   19  0.002  0.000  0.006  0.009
   20  0.008  0.002  0.019  0.028
   21  0.008  0.002  0.019  0.028
   22  0.001  0.001  0.004  0.005
   23  0.008  0.002  0.019  0.028
   24  0.001  0.001  0.004  0.005
   25  0.002  0.000  0.006  0.009
   26  0.002  0.000  0.006  0.009
   27  0.001  0.001  0.004  0.005
   28  0.002  0.000  0.000  0.002
   29  0.003  0.000  0.001  0.004
   30  0.003  0.000  0.001  0.004
   31  0.003  0.000  0.001  0.004
   32  0.003  0.000  0.001  0.004
   33  0.003  0.000  0.001  0.004
   34  0.003  0.000  0.001  0.004
   35  0.001  0.000  0.000  0.002
   36  0.059  0.006  0.082  0.148
   37  0.002  0.114  0.000  0.116
   38  0.023  0.196  0.000  0.219
tot    0.246  0.331  0.224  0.801
 
band     5 # energy   -5.33703089 # occ.  2.00000000
 
ion      s      p      d    tot
    1  0.004  0.000  0.000  0.005
    2  0.002  0.000  0.000  0.002
    3  0.002  0.000  0.000  0.002
    4  0.002  0.000  0.000  0.002
    5  0.001  0.000  0.000  0.002
    6  0.002  0.000  0.000  0.002
    7  0.002  0.000  0.000  0.002
    8  0.002  0.000  0.000  0.002
    9  0.001  0.000  0.000  0.001
   10  0.007  0.000  0.009  0.017
   11  0.004  0.001  0.016  0.020
   12  0.007  0.000  0.009  0.017
   13  0.004  0.001  0.016  0.020
   14  0.004  0.001  0.016  0.020
   15  0.002  0.001  0.015  0.018
   16  0.007  0.000  0.009  0.017
   17  0.002  0.001  0.015  0.018
   18  0.002  0.001  0.015  0.018
   19  0.011  0.000  0.020  0.031
   20  0.003  0.000  0.036  0.040
   21  0.003  0.000  0.036  0.040
   22  0.018  0.000  0.018  0.035
   23  0.003  0.000  0.036  0.040
   24  0.018  0.000  0.018  0.035
   25  0.011  0.000  0.020  0.031
   26  0.011  0.000  0.020  0.031
   27  0.018  0.000  0.018  0.035
   28  0.004  0.001  0.001  0.006
   29  0.002  0.001  0.002  0.004
   30  0.002  0.001  0.002  0.004
   31  0.002  0.001  0.002  0.004
   32  0.002  0.001  0.002  0.004
   33  0.002  0.001  0.002  0.004
   34  0.002  0.001  0.002  0.004
   35  0.005  0.001  0.001  0.006
   36  0.018  0.008  0.058  0.084
   37  0.004  0.064  0.000  0.068
   38  0.009  0.090  0.000  0.099
tot    0.202  0.177  0.414  0.793
 
band     6 # energy   -5.14191370 # occ.  2.00000000
 
ion      s      p      d    tot
    1  0.021  0.000  0.027  0.049
    2  0.017  0.000  0.028  0.045
    3  0.017  0.000  0.028  0.045
    4  0.017  0.000  0.028  0.045
    5  0.015  0.000  0.027  0.043
    6  0.017  0.000  0.028  0.045
    7  0.017  0.000  0.028  0.045
    8  0.017  0.000  0.028  0.045
    9  0.016  0.000  0.029  0.045
   10  0.000  0.001  0.026  0.027
   11  0.001  0.001  0.018  0.019
   12  0.000  0.001  0.026  0.027
   13  0.001  0.001  0.018  0.019
   14  0.001  0.001  0.018  0.019
   15  0.001  0.001  0.018  0.020
   16  0.000  0.001  0.026  0.027
   17  0.001  0.001  0.018  0.020
   18  0.001  0.001  0.018  0.020
   19  0.000  0.000  0.006  0.006
   20  0.000  0.000  0.009  0.009
   21  0.000  0.000  0.009  0.009
   22  0.001  0.000  0.005  0.007
   23  0.000  0.000  0.009  0.009
   24  0.001  0.000  0.005  0.007
   25  0.000  0.000  0.006  0.006
   26  0.000  0.000  0.006  0.006
   27  0.001  0.000  0.005  0.007
   28  0.005  0.000  0.003  0.009
   29  0.004  0.000  0.004  0.009
   30  0.004  0.000  0.004  0.009
   31  0.004  0.000  0.004  0.009
   32  0.004  0.000  0.004  0.009
   33  0.004  0.000  0.004  0.009
   34  0.004  0.000  0.004  0.009
   35  0.007  0.000  0.004  0.011
   36  0.000  0.000  0.008  0.008
   37  0.000  0.001  0.000  0.001
   38  0.000  0.001  0.000  0.001
tot    0.206  0.010  0.539  0.755
 
band     7 # energy   -5.05798325 # occ.  2.00000000
 
ion      s      p      d    tot
    1  0.000  0.000  0.006  0.006
    2  0.001  0.000  0.002  0.003
    3  0.000  0.000  0.002  0.002
    4  0.001  0.000  0.002  0.003
    5  0.000  0.000  0.001  0.001
    6  0.000  0.000  0.002  0.002
    7  0.000  0.000  0.002  0.002
    8  0.000  0.000  0.002  0.002
    9  0.000  0.000  0.003  0.003
   10  0.013  0.001  0.013  0.026
   11  0.000  0.001  0.014  0.015
   12  0.003  0.001  0.015  0.018
   13  0.000  0.001  0.014  0.015
   14  0.001  0.000  0.013  0.014
   15  0.002  0.000  0.025  0.026
   16  0.003  0.001  0.015  0.018
   17  0.002  0.000  0.024  0.026
   18  0.007  0.000  0.003  0.011
   19  0.003  0.001  0.021  0.025
   20  0.013  0.000  0.008  0.021
   21  0.003  0.000  0.044  0.047
   22  0.000  0.000  0.019  0.019
   23  0.003  0.000  0.044  0.048
   24  0.000  0.000  0.016  0.016
   25  0.013  0.000  0.015  0.028
   26  0.003  0.001  0.021  0.025
   27  0.000  0.000  0.019  0.019
   28  0.000  0.000  0.004  0.005
   29  0.000  0.000  0.005  0.006
   30  0.000  0.000  0.004  0.005
   31  0.000  0.000  0.005  0.006
   32  0.001  0.000  0.007  0.008
   33  0.000  0.000  0.004  0.005
   34  0.001  0.000  0.007  0.008
   35  0.000  0.000  0.001  0.001
   36  0.000  0.001  0.035  0.036
   37  0.000  0.073  0.000  0.073
   38  0.000  0.159  0.000  0.159
tot    0.074  0.242  0.436  0.752
 
band     8 # energy   -5.05794099 # occ.  2.00000000
 
ion      s      p      d    tot
    1  0.000  0.000  0.006  0.006
    2  0.000  0.000  0.001  0.002
    3  0.001  0.000  0.002  0.003
    4  0.000  0.000  0.001  0.002
    5  0.000  0.000  0.001  0.001
    6  0.000  0.000  0.002  0.002
    7  0.001  0.000  0.002  0.003
    8  0.000  0.000  0.002  0.002
    9  0.000  0.000  0.003  0.003
   10  0.000  0.001  0.015  0.016
   11  0.001  0.000  0.014  0.015
   12  0.010  0.001  0.013  0.024
   13  0.001  0.000  0.014  0.015
   14  0.000  0.001  0.015  0.015
   15  0.005  0.000  0.010  0.016
   16  0.010  0.001  0.013  0.024
   17  0.005  0.000  0.010  0.016
   18  0.000  0.000  0.032  0.032
   19  0.010  0.001  0.017  0.027
   20  0.000  0.000  0.056  0.056
   21  0.009  0.000  0.020  0.030
   22  0.000  0.000  0.017  0.017
   23  0.010  0.000  0.020  0.029
   24  0.000  0.001  0.020  0.020
   25  0.000  0.001  0.023  0.024
   26  0.010  0.001  0.017  0.027
   27  0.000  0.000  0.017  0.017
   28  0.000  0.000  0.004  0.005
   29  0.001  0.000  0.005  0.006
   30  0.001  0.000  0.006  0.007
   31  0.001  0.000  0.005  0.006
   32  0.000  0.000  0.004  0.004
   33  0.001  0.000  0.006  0.007
   34  0.000  0.000  0.004  0.004
   35  0.000  0.000  0.001  0.001
   36  0.000  0.001  0.035  0.036
   37  0.000  0.073  0.000  0.073
   38  0.000  0.159  0.000  0.159
tot    0.074  0.242  0.436  0.752
 
band     9 # energy   -5.02637129 # occ.  2.00000000
 
ion      s      p      d    tot
    1  0.000  0.000  0.000  0.001
    2  0.000  0.000  0.006  0.006
    3  0.000  0.000  0.006  0.006
    4  0.000  0.000  0.006  0.006
    5  0.004  0.001  0.005  0.009
    6  0.000  0.000  0.006  0.006
    7  0.000  0.000  0.006  0.006
    8  0.000  0.000  0.006  0.006
    9  0.003  0.001  0.005  0.008
   10  0.005  0.001  0.012  0.017
   11  0.016  0.001  0.029  0.046
   12  0.005  0.001  0.011  0.017
   13  0.016  0.001  0.029  0.046
   14  0.015  0.001  0.030  0.046
   15  0.003  0.000  0.066  0.068
   16  0.005  0.001  0.011  0.017
   17  0.003  0.000  0.066  0.069
   18  0.003  0.000  0.068  0.070
   19  0.009  0.000  0.035  0.044
   20  0.008  0.001  0.011  0.021
   21  0.008  0.001  0.011  0.020
   22  0.000  0.000  0.039  0.040
   23  0.008  0.001  0.011  0.020
   24  0.000  0.000  0.040  0.040
   25  0.008  0.000  0.035  0.043
   26  0.009  0.000  0.035  0.044
   27  0.000  0.000  0.039  0.040
   28  0.004  0.001  0.004  0.009
   29  0.000  0.000  0.004  0.004
   30  0.000  0.000  0.003  0.004
   31  0.000  0.000  0.004  0.004
   32  0.000  0.000  0.004  0.004
   33  0.000  0.000  0.003  0.004
   34  0.000  0.000  0.003  0.004
   35  0.001  0.000  0.004  0.005
   36  0.000  0.000  0.000  0.000
   37  0.000  0.000  0.000  0.000
   38  0.000  0.000  0.000  0.000
tot    0.131  0.018  0.651  0.800
 
band    10 # energy   -5.02523433 # occ.  2.00000000
 
ion      s      p      d    tot
    1  0.000  0.000  0.003  0.003
    2  0.001  0.001  0.006  0.008
    3  0.000  0.000  0.003  0.003
    4  0.001  0.001  0.006  0.008
    5  0.000  0.000  0.009  0.009
    6  0.000  0.000  0.004  0.005
    7  0.000  0.000  0.003  0.003
    8  0.000  0.000  0.004  0.005
    9  0.000  0.000  0.003  0.003
   10  0.000  0.000  0.083  0.083
   11  0.023  0.001  0.027  0.050
   12  0.003  0.000  0.036  0.039
   13  0.021  0.001  0.031  0.053
   14  0.000  0.000  0.083  0.084
   15  0.009  0.001  0.032  0.041
   16  0.003  0.000  0.032  0.036
   17  0.008  0.001  0.030  0.039
   18  0.000  0.002  0.008  0.010
   19  0.002  0.000  0.022  0.024
   20  0.000  0.001  0.018  0.020
   21  0.006  0.001  0.027  0.034
   22  0.013  0.001  0.019  0.033
   23  0.007  0.001  0.028  0.035
   24  0.000  0.000  0.045  0.045
   25  0.000  0.000  0.045  0.045
   26  0.002  0.000  0.023  0.025
   27  0.015  0.001  0.017  0.032
   28  0.000  0.000  0.002  0.002
   29  0.000  0.000  0.002  0.002
   30  0.001  0.000  0.003  0.004
   31  0.000  0.000  0.002  0.002
   32  0.001  0.000  0.003  0.003
   33  0.001  0.000  0.003  0.004
   34  0.001  0.000  0.003  0.004
   35  0.000  0.000  0.007  0.007
   36  0.000  0.000  0.001  0.001
   37  0.000  0.000  0.000  0.000
   38  0.000  0.000  0.000  0.000
tot    0.119  0.016  0.670  0.806
 
band    11 # energy   -5.02523084 # occ.  2.00000000
 
ion      s      p      d    tot
    1  0.000  0.000  0.003  0.003
    2  0.000  0.000  0.003  0.003
    3  0.001  0.000  0.006  0.007
    4  0.000  0.000  0.002  0.003
    5  0.000  0.000  0.009  0.009
    6  0.001  0.001  0.004  0.006
    7  0.001  0.000  0.006  0.008
    8  0.001  0.001  0.005  0.006
    9  0.000  0.000  0.003  0.003
   10  0.004  0.000  0.018  0.022
   11  0.006  0.001  0.068  0.074
   12  0.001  0.000  0.064  0.066
   13  0.008  0.001  0.063  0.072
   14  0.030  0.001  0.010  0.041
   15  0.002  0.001  0.016  0.019
   16  0.001  0.000  0.068  0.070
   17  0.003  0.001  0.018  0.022
   18  0.011  0.000  0.037  0.049
   19  0.000  0.000  0.038  0.039
   20  0.009  0.001  0.030  0.040
   21  0.003  0.001  0.022  0.025
   22  0.005  0.001  0.035  0.041
   23  0.002  0.001  0.021  0.024
   24  0.019  0.001  0.009  0.029
   25  0.002  0.000  0.015  0.018
   26  0.001  0.000  0.036  0.037
   27  0.004  0.000  0.037  0.042
   28  0.000  0.000  0.002  0.002
   29  0.001  0.000  0.003  0.005
   30  0.000  0.000  0.002  0.002
   31  0.001  0.000  0.003  0.005
   32  0.000  0.000  0.002  0.003
   33  0.000  0.000  0.002  0.002
   34  0.000  0.000  0.002  0.003
   35  0.000  0.000  0.007  0.007
   36  0.000  0.000  0.001  0.001
   37  0.000  0.000  0.000  0.000
   38  0.000  0.000  0.000  0.000
tot    0.119  0.016  0.670  0.806
 
band    12 # energy   -5.01334755 # occ.  2.00000000
 
ion      s      p      d    tot
    1  0.000  0.000  0.017  0.018
    2  0.000  0.000  0.005  0.005
    3  0.000  0.000  0.005  0.005
    4  0.000  0.000  0.005  0.005
    5  0.000  0.000  0.000  0.000
    6  0.000  0.000  0.005  0.005
    7  0.000  0.000  0.005  0.005
    8  0.000  0.000  0.005  0.005
    9  0.002  0.001  0.002  0.005
   10  0.006  0.000  0.085  0.091
   11  0.001  0.001  0.033  0.035
   12  0.006  0.000  0.085  0.092
   13  0.001  0.001  0.033  0.035
   14  0.001  0.001  0.033  0.035
   15  0.010  0.001  0.022  0.033
   16  0.006  0.000  0.085  0.092
   17  0.010  0.001  0.022  0.033
   18  0.010  0.001  0.022  0.033
   19  0.004  0.001  0.021  0.026
   20  0.001  0.001  0.015  0.016
   21  0.001  0.001  0.015  0.016
   22  0.003  0.000  0.036  0.039
   23  0.001  0.001  0.015  0.016
   24  0.003  0.000  0.036  0.039
   25  0.004  0.001  0.021  0.026
   26  0.004  0.001  0.021  0.026
   27  0.003  0.000  0.036  0.039
   28  0.000  0.000  0.004  0.005
   29  0.000  0.000  0.004  0.004
   30  0.000  0.000  0.004  0.004
   31  0.000  0.000  0.004  0.004
   32  0.000  0.000  0.004  0.004
   33  0.000  0.000  0.004  0.004
   34  0.000  0.000  0.004  0.004
   35  0.001  0.000  0.000  0.002
   36  0.001  0.001  0.001  0.004
   37  0.000  0.003  0.000  0.004
   38  0.000  0.004  0.000  0.005
tot    0.087  0.022  0.716  0.824
 
band    13 # energy   -4.99515596 # occ.  2.00000000
 
ion      s      p      d    tot
    1  0.000  0.000  0.007  0.008
    2  0.000  0.000  0.009  0.010
    3  0.000  0.000  0.009  0.010
    4  0.000  0.000  0.009  0.010
    5  0.002  0.000  0.004  0.006
    6  0.000  0.000  0.009  0.010
    7  0.000  0.000  0.009  0.010
    8  0.000  0.000  0.009  0.010
    9  0.005  0.001  0.000  0.006
   10  0.002  0.000  0.022  0.025
   11  0.000  0.000  0.053  0.053
   12  0.002  0.000  0.022  0.025
   13  0.000  0.000  0.053  0.053
   14  0.000  0.000  0.053  0.053
   15  0.001  0.000  0.019  0.021
   16  0.002  0.000  0.022  0.025
   17  0.001  0.000  0.019  0.021
   18  0.001  0.000  0.019  0.021
   19  0.005  0.000  0.005  0.010
   20  0.000  0.000  0.059  0.059
   21  0.000  0.000  0.059  0.059
   22  0.004  0.000  0.059  0.063
   23  0.000  0.000  0.059  0.059
   24  0.004  0.000  0.059  0.063
   25  0.005  0.000  0.005  0.010
   26  0.005  0.000  0.005  0.010
   27  0.004  0.000  0.059  0.063
   28  0.006  0.001  0.000  0.007
   29  0.000  0.000  0.008  0.008
   30  0.000  0.000  0.008  0.008
   31  0.000  0.000  0.008  0.008
   32  0.000  0.000  0.008  0.008
   33  0.000  0.000  0.008  0.008
   34  0.000  0.000  0.008  0.008
   35  0.000  0.000  0.016  0.016
   36  0.002  0.000  0.000  0.002
   37  0.000  0.001  0.000  0.001
   38  0.000  0.001  0.000  0.001
tot    0.056  0.008  0.781  0.845
 
band    14 # energy   -4.98961284 # occ.  2.00000000
 
ion      s      p      d    tot
    1  0.000  0.000  0.011  0.012
    2  0.001  0.001  0.010  0.012
    3  0.002  0.001  0.005  0.008
    4  0.001  0.001  0.010  0.012
    5  0.000  0.000  0.003  0.003
    6  0.000  0.000  0.007  0.008
    7  0.002  0.001  0.004  0.007
    8  0.001  0.000  0.007  0.007
    9  0.000  0.000  0.008  0.008
   10  0.014  0.000  0.041  0.054
   11  0.000  0.000  0.034  0.034
   12  0.004  0.000  0.040  0.044
   13  0.000  0.000  0.034  0.034
   14  0.000  0.000  0.034  0.035
   15  0.004  0.000  0.102  0.106
   16  0.003  0.001  0.040  0.043
   17  0.005  0.000  0.093  0.098
   18  0.017  0.000  0.004  0.021
   19  0.000  0.000  0.019  0.019
   20  0.001  0.000  0.005  0.006
   21  0.000  0.000  0.012  0.012
   22  0.000  0.000  0.012  0.013
   23  0.000  0.000  0.012  0.013
   24  0.001  0.000  0.025  0.026
   25  0.000  0.000  0.014  0.014
   26  0.000  0.000  0.019  0.019
   27  0.000  0.000  0.011  0.012
   28  0.000  0.000  0.006  0.006
   29  0.000  0.000  0.004  0.005
   30  0.000  0.000  0.002  0.002
   31  0.001  0.000  0.004  0.005
   32  0.001  0.000  0.004  0.005
   33  0.000  0.000  0.002  0.002
   34  0.001  0.000  0.004  0.005
   35  0.000  0.000  0.004  0.004
   36  0.000  0.000  0.011  0.011
   37  0.000  0.027  0.000  0.027
   38  0.000  0.061  0.000  0.061
tot    0.060  0.097  0.657  0.814
 
band    15 # energy   -4.98960288 # occ.  2.00000000
 
ion      s      p      d    tot
    1  0.000  0.000  0.011  0.012
    2  0.002  0.000  0.004  0.006
    3  0.000  0.000  0.010  0.010
    4  0.002  0.000  0.004  0.006
    5  0.000  0.000  0.003  0.003
    6  0.002  0.001  0.007  0.010
    7  0.000  0.000  0.010  0.011
    8  0.002  0.001  0.008  0.010
    9  0.000  0.000  0.008  0.008
   10  0.000  0.001  0.039  0.040
   11  0.000  0.000  0.034  0.034
   12  0.010  0.000  0.040  0.050
   13  0.000  0.000  0.034  0.034
   14  0.000  0.000  0.034  0.034
   15  0.014  0.000  0.030  0.044
   16  0.011  0.000  0.040  0.051
   17  0.012  0.000  0.040  0.052
   18  0.000  0.000  0.129  0.129
   19  0.000  0.000  0.015  0.016
   20  0.000  0.000  0.014  0.014
   21  0.001  0.000  0.008  0.009
   22  0.001  0.000  0.020  0.021
   23  0.001  0.000  0.007  0.008
   24  0.000  0.000  0.008  0.008
   25  0.000  0.000  0.021  0.021
   26  0.000  0.000  0.016  0.016
   27  0.001  0.000  0.021  0.022
   28  0.000  0.000  0.006  0.006
   29  0.000  0.000  0.003  0.003
   30  0.001  0.000  0.005  0.006
   31  0.000  0.000  0.002  0.003
   32  0.000  0.000  0.002  0.003
   33  0.001  0.000  0.005  0.006
   34  0.000  0.000  0.003  0.003
   35  0.000  0.000  0.004  0.004
   36  0.000  0.000  0.011  0.011
   37  0.000  0.027  0.000  0.027
   38  0.000  0.061  0.000  0.061
tot    0.060  0.096  0.658  0.814
 
band    16 # energy   -4.97303433 # occ.  2.00000000
 
ion      s      p      d    tot
    1  0.000  0.000  0.004  0.004
    2  0.003  0.000  0.006  0.010
    3  0.001  0.000  0.010  0.010
    4  0.003  0.000  0.006  0.010
    5  0.000  0.000  0.014  0.014
    6  0.001  0.000  0.008  0.009
    7  0.001  0.000  0.010  0.010
    8  0.001  0.000  0.008  0.009
    9  0.000  0.000  0.019  0.019
   10  0.004  0.000  0.017  0.021
   11  0.001  0.000  0.047  0.049
   12  0.001  0.000  0.032  0.033
   13  0.001  0.000  0.047  0.048
   14  0.005  0.000  0.015  0.021
   15  0.000  0.000  0.025  0.025
   16  0.001  0.000  0.033  0.034
   17  0.000  0.000  0.025  0.025
   18  0.000  0.000  0.045  0.045
   19  0.001  0.000  0.053  0.054
   20  0.002  0.000  0.048  0.050
   21  0.001  0.000  0.021  0.022
   22  0.003  0.000  0.070  0.074
   23  0.001  0.000  0.020  0.021
   24  0.013  0.000  0.013  0.026
   25  0.004  0.000  0.016  0.020
   26  0.001  0.000  0.052  0.053
   27  0.003  0.000  0.071  0.075
   28  0.000  0.000  0.003  0.003
   29  0.000  0.000  0.007  0.007
   30  0.001  0.000  0.002  0.004
   31  0.000  0.000  0.007  0.007
   32  0.001  0.001  0.005  0.007
   33  0.001  0.000  0.002  0.004
   34  0.001  0.001  0.005  0.007
   35  0.000  0.000  0.008  0.009
   36  0.000  0.000  0.002  0.002
   37  0.000  0.000  0.000  0.000
   38  0.000  0.001  0.000  0.001
tot    0.059  0.009  0.776  0.844
 
band    17 # energy   -4.97299922 # occ.  2.00000000
 
ion      s      p      d    tot
    1  0.000  0.000  0.004  0.004
    2  0.000  0.000  0.009  0.010
    3  0.003  0.000  0.006  0.009
    4  0.000  0.000  0.009  0.010
    5  0.000  0.000  0.014  0.014
    6  0.002  0.000  0.008  0.011
    7  0.003  0.000  0.006  0.009
    8  0.002  0.000  0.008  0.011
    9  0.000  0.000  0.019  0.019
   10  0.000  0.000  0.038  0.038
   11  0.004  0.000  0.026  0.030
   12  0.003  0.000  0.022  0.026
   13  0.004  0.000  0.026  0.030
   14  0.000  0.000  0.058  0.058
   15  0.000  0.000  0.038  0.038
   16  0.003  0.000  0.022  0.025
   17  0.000  0.000  0.038  0.038
   18  0.000  0.000  0.019  0.019
   19  0.003  0.000  0.028  0.031
   20  0.000  0.000  0.011  0.012
   21  0.001  0.000  0.038  0.040
   22  0.010  0.000  0.033  0.043
   23  0.002  0.000  0.039  0.041
   24  0.000  0.000  0.090  0.090
   25  0.000  0.000  0.065  0.066
   26  0.003  0.000  0.028  0.032
   27  0.010  0.000  0.032  0.042
   28  0.000  0.000  0.003  0.003
   29  0.002  0.000  0.003  0.005
   30  0.001  0.000  0.007  0.008
   31  0.002  0.000  0.003  0.005
   32  0.000  0.000  0.004  0.004
   33  0.001  0.000  0.007  0.008
   34  0.000  0.000  0.004  0.005
   35  0.000  0.000  0.008  0.009
   36  0.000  0.000  0.002  0.002
   37  0.000  0.000  0.000  0.000
   38  0.000  0.001  0.000  0.001
tot    0.060  0.008  0.776  0.844
 
band    18 # energy   -4.97080749 # occ.  2.00000000
 
ion      s      p      d    tot
    1  0.000  0.000  0.011  0.011
    2  0.000  0.000  0.003  0.003
    3  0.001  0.000  0.003  0.004
    4  0.000  0.000  0.003  0.003
    5  0.000  0.000  0.005  0.006
    6  0.002  0.000  0.003  0.006
    7  0.001  0.000  0.003  0.004
    8  0.002  0.000  0.003  0.006
    9  0.000  0.000  0.002  0.002
   10  0.001  0.000  0.008  0.009
   11  0.001  0.000  0.008  0.008
   12  0.000  0.000  0.016  0.017
   13  0.000  0.000  0.007  0.008
   14  0.002  0.000  0.023  0.025
   15  0.000  0.000  0.006  0.006
   16  0.000  0.000  0.016  0.016
   17  0.000  0.000  0.006  0.006
   18  0.000  0.000  0.005  0.005
   19  0.004  0.000  0.028  0.032
   20  0.010  0.000  0.008  0.018
   21  0.002  0.000  0.073  0.076
   22  0.000  0.000  0.022  0.022
   23  0.002  0.000  0.071  0.074
   24  0.000  0.000  0.024  0.024
   25  0.014  0.000  0.023  0.037
   26  0.003  0.000  0.028  0.032
   27  0.000  0.000  0.022  0.022
   28  0.000  0.000  0.007  0.007
   29  0.003  0.000  0.002  0.005
   30  0.001  0.001  0.007  0.009
   31  0.003  0.000  0.002  0.006
   32  0.000  0.000  0.004  0.005
   33  0.001  0.001  0.007  0.009
   34  0.000  0.000  0.004  0.005
   35  0.000  0.000  0.002  0.002
   36  0.000  0.004  0.011  0.015
   37  0.000  0.068  0.000  0.068
   38  0.000  0.159  0.000  0.159
tot    0.056  0.237  0.477  0.770
 
band    19 # energy   -4.97079139 # occ.  2.00000000
 
ion      s      p      d    tot
    1  0.000  0.000  0.011  0.011
    2  0.002  0.000  0.003  0.005
    3  0.001  0.000  0.003  0.005
    4  0.002  0.000  0.003  0.005
    5  0.000  0.000  0.005  0.006
    6  0.000  0.000  0.003  0.003
    7  0.002  0.000  0.003  0.005
    8  0.000  0.000  0.003  0.003
    9  0.000  0.000  0.002  0.002
   10  0.000  0.000  0.019  0.019
   11  0.001  0.000  0.018  0.019
   12  0.001  0.000  0.011  0.012
   13  0.002  0.000  0.018  0.020
   14  0.000  0.000  0.002  0.002
   15  0.000  0.000  0.005  0.005
   16  0.001  0.000  0.011  0.012
   17  0.000  0.000  0.005  0.005
   18  0.000  0.000  0.006  0.006
   19  0.010  0.000  0.025  0.035
   20  0.000  0.000  0.094  0.094
   21  0.007  0.000  0.028  0.036
   22  0.000  0.000  0.023  0.024
   23  0.007  0.000  0.030  0.038
   24  0.000  0.001  0.022  0.022
   25  0.000  0.001  0.029  0.029
   26  0.010  0.000  0.025  0.035
   27  0.000  0.000  0.023  0.024
   28  0.000  0.000  0.007  0.007
   29  0.000  0.001  0.006  0.007
   30  0.002  0.000  0.002  0.004
   31  0.000  0.001  0.006  0.007
   32  0.003  0.000  0.005  0.008
   33  0.002  0.000  0.002  0.004
   34  0.003  0.000  0.005  0.008
   35  0.000  0.000  0.002  0.002
   36  0.000  0.004  0.011  0.015
   37  0.000  0.068  0.000  0.068
   38  0.000  0.159  0.000  0.159
tot    0.055  0.238  0.476  0.769
 
band    20 # energy   -4.96052870 # occ.  2.00000000
 
ion      s      p      d    tot
    1  0.001  0.000  0.002  0.003
    2  0.002  0.000  0.012  0.014
    3  0.002  0.000  0.012  0.014
    4  0.002  0.000  0.012  0.014
    5  0.008  0.000  0.001  0.009
    6  0.002  0.000  0.012  0.014
    7  0.002  0.000  0.012  0.014
    8  0.002  0.000  0.012  0.014
    9  0.003  0.000  0.020  0.023
   10  0.004  0.000  0.011  0.016
   11  0.000  0.000  0.015  0.016
   12  0.004  0.000  0.011  0.016
   13  0.000  0.000  0.015  0.016
   14  0.000  0.000  0.015  0.016
   15  0.000  0.000  0.035  0.035
   16  0.004  0.000  0.011  0.016
   17  0.000  0.000  0.035  0.035
   18  0.000  0.000  0.035  0.035
   19  0.001  0.000  0.041  0.042
   20  0.008  0.000  0.036  0.044
   21  0.008  0.000  0.036  0.044
   22  0.002  0.000  0.016  0.018
   23  0.008  0.000  0.036  0.044
   24  0.002  0.000  0.016  0.018
   25  0.001  0.000  0.041  0.042
   26  0.001  0.000  0.041  0.042
   27  0.002  0.000  0.016  0.018
   28  0.002  0.000  0.001  0.003
   29  0.005  0.000  0.015  0.020
   30  0.005  0.000  0.015  0.020
   31  0.005  0.000  0.015  0.020
   32  0.005  0.000  0.015  0.020
   33  0.005  0.000  0.015  0.020
   34  0.005  0.000  0.015  0.020
   35  0.017  0.001  0.010  0.028
   36  0.005  0.005  0.000  0.010
   37  0.000  0.007  0.000  0.007
   38  0.001  0.010  0.000  0.010
tot    0.122  0.030  0.659  0.811
 
band    21 # energy   -4.90037688 # occ.  2.00000000
 
ion      s      p      d    tot
    1  0.006  0.000  0.002  0.008
    2  0.001  0.000  0.008  0.009
    3  0.001  0.000  0.008  0.009
    4  0.001  0.000  0.008  0.009
    5  0.000  0.000  0.016  0.016
    6  0.001  0.000  0.008  0.009
    7  0.001  0.000  0.008  0.009
    8  0.001  0.000  0.008  0.009
    9  0.000  0.000  0.000  0.001
   10  0.000  0.000  0.007  0.007
   11  0.002  0.000  0.035  0.037
   12  0.000  0.000  0.007  0.007
   13  0.002  0.000  0.035  0.037
   14  0.002  0.000  0.035  0.037
   15  0.005  0.000  0.008  0.013
   16  0.000  0.000  0.007  0.007