 vasp.6.2.0 18Jan21 (build Jun 12 2021 23:27:24) complex                        
  
 executed on             LinuxIFC date 2022.05.28  02:08:11
 running on   28 total cores
 distrk:  each k-point on   28 cores,    1 groups
 distr:  one band on NCORE=   1 cores,   28 groups


--------------------------------------------------------------------------------------------------------


 INCAR:
   ISMEAR = -5
   SIGMA = 0.1
   ISPIN = 1
   EDIFF = 1.d-5
   EDIFFG = -0.01
   NSW = 0
   NELM = 150
   ENCUT = 500
   ISIF = 2
   IBRION = 2
   LREAL = Auto
   ALGO = Fast
   ICHARG = 11
   LORBIT = 10
   LCHARG = .F.
   LWAVE = .F.

 POTCAR:    PAW_PBE Ag 02Apr2005                  
 POTCAR:    PAW_PBE Os 17Jan2003                  
 POTCAR:    PAW_PBE O 08Apr2002                   
 POTCAR:    PAW_PBE H 15Jun2001                   
 -----------------------------------------------------------------------------
|                                                                             |
|           W    W    AA    RRRRR   N    N  II  N    N   GGGG   !!!           |
|           W    W   A  A   R    R  NN   N  II  NN   N  G    G  !!!           |
|           W    W  A    A  R    R  N N  N  II  N N  N  G       !!!           |
|           W WW W  AAAAAA  RRRRR   N  N N  II  N  N N  G  GGG   !            |
|           WW  WW  A    A  R   R   N   NN  II  N   NN  G    G                |
|           W    W  A    A  R    R  N    N  II  N    N   GGGG   !!!           |
|                                                                             |
|     For optimal performance we recommend to set                             |
|       NCORE = 2 up to number-of-cores-per-socket                            |
|     NCORE specifies how many cores store one orbital (NPAR=cpu/NCORE).      |
|     This setting can greatly improve the performance of VASP for DFT.       |
|     The default, NCORE=1 might be grossly inefficient on modern             |
|     multi-core architectures or massively parallel machines. Do your        |
|     own testing! More info at https://www.vasp.at/wiki/index.php/NCORE      |
|     Unfortunately you need to use the default for GW and RPA                |
|     calculations (for HF NCORE is supported but not extensively tested      |
|     yet).                                                                   |
|                                                                             |
 -----------------------------------------------------------------------------

 POTCAR:    PAW_PBE Ag 02Apr2005                  
   VRHFIN =Ag : s1 d10                                                                              
   LEXCH  = PE                                                                                      
   EATOM  =  1037.2675 eV,   76.2370 Ry                                                             
                                                                                                    
   TITEL  = PAW_PBE Ag 02Apr2005                                                                    
   LULTRA =        F    use ultrasoft PP ?                                                          
   IUNSCR =        1    unscreen: 0-lin 1-nonlin 2-no                                               
   RPACOR =    2.000    partial core radius                                                         
   POMASS =  107.868; ZVAL   =   11.000    mass and valenz                                          
   RCORE  =    2.500    outmost cutoff radius                                                       
   RWIGS  =    2.840; RWIGS  =    1.503    wigner-seitz radius (au A)                               
   ENMAX  =  249.844; ENMIN  =  187.383 eV                                                          
   ICORE  =        3    local potential                                                             
   LCOR   =        T    correct aug charges                                                         
   LPAW   =        T    paw PP                                                                      
   EAUG   =  412.496                                                                                
   DEXC   =    0.000                                                                                
   RMAX   =    2.560    core radius for proj-oper                                                   
   RAUG   =    1.300    factor for augmentation sphere                                              
   RDEP   =    2.576    radius for radial grids                                                     
   RDEPT  =    2.072    core radius for aug-charge                                                  
                                                                                                    
   Atomic configuration                                                                             
   12 entries                                                                                       
     n  l   j            E        occ.                                                              
     1  0  0.50    -25324.9161   2.0000                                                             
     2  0  0.50     -3728.5341   2.0000                                                             
     2  1  1.50     -3344.0404   6.0000                                                             
     3  0  0.50      -683.5581   2.0000                                                             
     3  1  1.50      -557.3225   6.0000                                                             
     3  2  2.50      -358.3853  10.0000                                                             
     4  0  0.50       -95.0341   2.0000                                                             
     4  1  1.50       -58.5511   6.0000                                                             
     4  2  2.50        -7.4440  10.0000                                                             
     5  0  0.50        -4.4045   1.0000                                                             
     5  1  0.50        -1.3606   0.0000                                                             
     4  3  2.50        -1.3606   0.0000                                                             
   Description                                                                                      
     l       E           TYP  RCUT    TYP  RCUT                                                     
     2     -7.4439781     23  2.400                                                                 
     2     -8.8045607     23  2.400                                                                 
     0     -4.4044681     23  2.400                                                                 
     0      1.9520038     23  2.400                                                                 
     1     -1.3605826     23  2.500                                                                 
     1     27.2116520     23  2.500                                                                 
     3     -4.0817478     23  2.400                                                                 
  local pseudopotential read in
  partial core-charges read in
  partial kinetic energy density read in
  atomic valenz-charges read in
  non local Contribution for L=           2  read in
    real space projection operators read in
  non local Contribution for L=           2  read in
    real space projection operators read in
  non local Contribution for L=           0  read in
    real space projection operators read in
  non local Contribution for L=           0  read in
    real space projection operators read in
  non local Contribution for L=           1  read in
    real space projection operators read in
  non local Contribution for L=           1  read in
    real space projection operators read in
    PAW grid and wavefunctions read in
 
   number of l-projection  operators is LMAX  =           6
   number of lm-projection operators is LMMAX =          18
 
 POTCAR:    PAW_PBE Os 17Jan2003                  
   VRHFIN =Os: 6s5d                                                                                 
   LEXCH  = PE                                                                                      
   EATOM  =   417.5999 eV,   30.6927 Ry                                                             
                                                                                                    
   TITEL  = PAW_PBE Os 17Jan2003                                                                    
   LULTRA =        F    use ultrasoft PP ?                                                          
   IUNSCR =        1    unscreen: 0-lin 1-nonlin 2-no                                               
   RPACOR =    2.250    partial core radius                                                         
   POMASS =  190.200; ZVAL   =    8.000    mass and valenz                                          
   RCORE  =    2.700    outmost cutoff radius                                                       
   RWIGS  =    2.670; RWIGS  =    1.413    wigner-seitz radius (au A)                               
   ENMAX  =  228.022; ENMIN  =  171.017 eV                                                          
   RCLOC  =    2.004    cutoff for local pot                                                        
   LCOR   =        T    correct aug charges                                                         
   LPAW   =        T    paw PP                                                                      
   EAUG   =  365.080                                                                                
   DEXC   =    0.000                                                                                
   RMAX   =    2.766    core radius for proj-oper                                                   
   RAUG   =    1.300    factor for augmentation sphere                                              
   RDEP   =    2.738    radius for radial grids                                                     
   RDEPT  =    2.220    core radius for aug-charge                                                  
                                                                                                    
   Atomic configuration                                                                             
   16 entries                                                                                       
     n  l   j            E        occ.                                                              
     1  0  0.50    -73844.2437   2.0000                                                             
     2  0  0.50    -12856.6893   2.0000                                                             
     2  1  1.50    -11191.7995   6.0000                                                             
     3  0  0.50     -2990.1422   2.0000                                                             
     3  1  1.50     -2501.5221   6.0000                                                             
     3  2  2.50     -1956.5818  10.0000                                                             
     4  0  0.50      -629.1606   2.0000                                                             
     4  1  1.50      -468.9548   6.0000                                                             
     4  2  2.50      -270.2868  10.0000                                                             
     4  3  3.50       -49.5699  14.0000                                                             
     5  0  0.50       -89.1521   2.0000                                                             
     5  1  1.50       -48.6063   6.0000                                                             
     5  2  2.50        -4.7055   7.0000                                                             
     6  0  0.50        -5.4288   1.0000                                                             
     6  1  1.50        -2.7212   0.0000                                                             
     5  3  2.50        -6.8029   0.0000                                                             
   Description                                                                                      
     l       E           TYP  RCUT    TYP  RCUT                                                     
     2     -4.7055230     23  2.500                                                                 
     2     -6.0661056     23  2.500                                                                 
     0     -5.4288441     23  2.500                                                                 
     0      3.7338294     23  2.500                                                                 
     1     -2.7211652     23  2.700                                                                 
     1     27.2116520     23  2.700                                                                 
  local pseudopotential read in
  partial core-charges read in
  partial kinetic energy density read in
  atomic valenz-charges read in
  non local Contribution for L=           2  read in
    real space projection operators read in
  non local Contribution for L=           2  read in
    real space projection operators read in
  non local Contribution for L=           0  read in
    real space projection operators read in
  non local Contribution for L=           0  read in
    real space projection operators read in
  non local Contribution for L=           1  read in
    real space projection operators read in
  non local Contribution for L=           1  read in
    real space projection operators read in
    PAW grid and wavefunctions read in
 
   number of l-projection  operators is LMAX  =           6
   number of lm-projection operators is LMMAX =          18
 
 POTCAR:    PAW_PBE O 08Apr2002                   
   VRHFIN =O: s2p4                                                                                  
   LEXCH  = PE                                                                                      
   EATOM  =   432.3788 eV,   31.7789 Ry                                                             
                                                                                                    
   TITEL  = PAW_PBE O 08Apr2002                                                                     
   LULTRA =        F    use ultrasoft PP ?                                                          
   IUNSCR =        1    unscreen: 0-lin 1-nonlin 2-no                                               
   RPACOR =    1.200    partial core radius                                                         
   POMASS =   16.000; ZVAL   =    6.000    mass and valenz                                          
   RCORE  =    1.520    outmost cutoff radius                                                       
   RWIGS  =    1.550; RWIGS  =    0.820    wigner-seitz radius (au A)                               
   ENMAX  =  400.000; ENMIN  =  300.000 eV                                                          
   ICORE  =        2    local potential                                                             
   LCOR   =        T    correct aug charges                                                         
   LPAW   =        T    paw PP                                                                      
   EAUG   =  605.392                                                                                
   DEXC   =    0.000                                                                                
   RMAX   =    1.553    core radius for proj-oper                                                   
   RAUG   =    1.300    factor for augmentation sphere                                              
   RDEP   =    1.550    radius for radial grids                                                     
   RDEPT  =    1.329    core radius for aug-charge                                                  
                                                                                                    
   Atomic configuration                                                                             
    4 entries                                                                                       
     n  l   j            E        occ.                                                              
     1  0  0.50      -514.6923   2.0000                                                             
     2  0  0.50       -23.9615   2.0000                                                             
     2  1  0.50        -9.0305   4.0000                                                             
     3  2  1.50        -9.5241   0.0000                                                             
   Description                                                                                      
     l       E           TYP  RCUT    TYP  RCUT                                                     
     0    -23.9615318     23  1.200                                                                 
     0     -9.5240782     23  1.200                                                                 
     1     -9.0304911     23  1.520                                                                 
     1      8.1634956     23  1.520                                                                 
     2     -9.5240782      7  1.500                                                                 
  local pseudopotential read in
  partial core-charges read in
  partial kinetic energy density read in
  kinetic energy density of atom read in
  atomic valenz-charges read in
  non local Contribution for L=           0  read in
    real space projection operators read in
  non local Contribution for L=           0  read in
    real space projection operators read in
  non local Contribution for L=           1  read in
    real space projection operators read in
  non local Contribution for L=           1  read in
    real space projection operators read in
    PAW grid and wavefunctions read in
 
   number of l-projection  operators is LMAX  =           4
   number of lm-projection operators is LMMAX =           8
 
 POTCAR:    PAW_PBE H 15Jun2001                   
   VRHFIN =H: ultrasoft test                                                                        
   LEXCH  = PE                                                                                      
   EATOM  =    12.4884 eV,    0.9179 Ry                                                             
                                                                                                    
   TITEL  = PAW_PBE H 15Jun2001                                                                     
   LULTRA =        F    use ultrasoft PP ?                                                          
   IUNSCR =        0    unscreen: 0-lin 1-nonlin 2-no                                               
   RPACOR =    0.000    partial core radius                                                         
   POMASS =    1.000; ZVAL   =    1.000    mass and valenz                                          
   RCORE  =    1.100    outmost cutoff radius                                                       
   RWIGS  =    0.700; RWIGS  =    0.370    wigner-seitz radius (au A)                               
   ENMAX  =  250.000; ENMIN  =  200.000 eV                                                          
   RCLOC  =    0.701    cutoff for local pot                                                        
   LCOR   =        T    correct aug charges                                                         
   LPAW   =        T    paw PP                                                                      
   EAUG   =  400.000                                                                                
   RMAX   =    1.123    core radius for proj-oper                                                   
   RAUG   =    1.200    factor for augmentation sphere                                              
   RDEP   =    1.112    radius for radial grids                                                     
   RDEPT  =    0.926    core radius for aug-charge                                                  
                                                                                                    
   Atomic configuration                                                                             
    2 entries                                                                                       
     n  l   j            E        occ.                                                              
     1  0  0.50        -6.4927   1.0000                                                             
     2  1  0.50        -3.4015   0.0000                                                             
   Description                                                                                      
     l       E           TYP  RCUT    TYP  RCUT                                                     
     0     -6.4927494     23  1.100                                                                 
     0      6.8029130     23  1.100                                                                 
     1     -4.0817478     23  1.100                                                                 
  local pseudopotential read in
  atomic valenz-charges read in
  non local Contribution for L=           0  read in
    real space projection operators read in
  non local Contribution for L=           0  read in
    real space projection operators read in
  non local Contribution for L=           1  read in
    real space projection operators read in
    PAW grid and wavefunctions read in
 
   number of l-projection  operators is LMAX  =           3
   number of lm-projection operators is LMMAX =           5
 
 Optimization of the real space projectors (new method)

 maximal supplied QI-value         = 15.12
 optimisation between [QCUT,QGAM] = [ 11.34, 22.83] = [ 36.00,145.93] Ry 
 Optimized for a Real-space Cutoff    1.43 Angstroem

   l    n(q)    QCUT    max X(q) W(low)/X(q) W(high)/X(q)  e(spline) 
   2      9    11.338    53.897    0.16E-03    0.20E-03    0.28E-06
   2      9    11.338    52.416    0.16E-03    0.20E-03    0.29E-06
   0     10    11.338   122.045    0.31E-04    0.76E-04    0.15E-06
   0     10    11.338    73.629    0.30E-04    0.72E-04    0.15E-06
   1      9    11.338    15.255    0.20E-03    0.19E-04    0.17E-06
   1      9    11.338     9.562    0.16E-03    0.15E-04    0.14E-06
 Optimization of the real space projectors (new method)

 maximal supplied QI-value         = 13.98
 optimisation between [QCUT,QGAM] = [ 11.33, 22.79] = [ 35.93,145.49] Ry 
 Optimized for a Real-space Cutoff    1.56 Angstroem

   l    n(q)    QCUT    max X(q) W(low)/X(q) W(high)/X(q)  e(spline) 
   2     10    11.327   152.873    0.32E-03    0.72E-03    0.11E-05
   2     10    11.327   151.010    0.32E-03    0.72E-03    0.11E-05
   0     11    11.327    72.114    0.43E-04    0.61E-04    0.13E-06
   0     11    11.327    44.596    0.40E-04    0.57E-04    0.12E-06
   1     10    11.327    13.742    0.16E-03    0.10E-03    0.19E-06
   1     10    11.327     8.461    0.12E-03    0.78E-04    0.15E-06
 Optimization of the real space projectors (new method)

 maximal supplied QI-value         = 24.76
 optimisation between [QCUT,QGAM] = [ 11.39, 22.77] = [ 36.31,145.25] Ry 
 Optimized for a Real-space Cutoff    1.00 Angstroem

   l    n(q)    QCUT    max X(q) W(low)/X(q) W(high)/X(q)  e(spline) 
   0      7    11.387    20.381    0.39E-03    0.13E-02    0.15E-06
   0      7    11.387    15.268    0.42E-03    0.14E-02    0.17E-06
   1      6    11.387     5.964    0.41E-03    0.11E-02    0.17E-06
   1      6    11.387     5.382    0.39E-03    0.87E-03    0.15E-06
 Optimization of the real space projectors (new method)

 maximal supplied QI-value         = 34.20
 optimisation between [QCUT,QGAM] = [ 11.29, 22.57] = [ 35.68,142.71] Ry 
 Optimized for a Real-space Cutoff    1.16 Angstroem

   l    n(q)    QCUT    max X(q) W(low)/X(q) W(high)/X(q)  e(spline) 
   0      8    11.287    19.460    0.40E-03    0.73E-03    0.16E-06
   0      8    11.287    12.209    0.38E-03    0.70E-03    0.15E-06
   1      7    11.287     4.655    0.22E-03    0.25E-04    0.22E-06
  PAW_PBE Ag 02Apr2005                  :
 energy of atom  1       EATOM=-1037.2675
 kinetic energy error for atom=    0.0052 (will be added to EATOM!!)
  PAW_PBE Os 17Jan2003                  :
 energy of atom  2       EATOM= -417.5999
 kinetic energy error for atom=    0.0029 (will be added to EATOM!!)
  PAW_PBE O 08Apr2002                   :
 energy of atom  3       EATOM= -432.3788
 kinetic energy error for atom=    0.0224 (will be added to EATOM!!)
  PAW_PBE H 15Jun2001                   :
 energy of atom  4       EATOM=  -12.4884
 kinetic energy error for atom=    0.0020 (will be added to EATOM!!)
 
 
 POSCAR: Ag-Os-OOH
  positions in direct lattice
  velocities in cartesian coordinates
 exchange correlation table for  LEXCH =        8
   RHO(1)=    0.500       N(1)  =     2000
   RHO(2)=  100.500       N(2)  =     4000

 VTST: version 3.2, (02/03/18)

 CHAIN: initializing optimizer
 
 OPT: Using VASP Conjugate-Gradient optimizer
 CHAIN: Read ICHAIN            0
 
 POSCAR: Ag-Os-OOH
  positions in direct lattice
  velocities in cartesian coordinates
 


--------------------------------------------------------------------------------------------------------


 ion  position               nearest neighbor table
   1  0.000  0.000  0.204-   2 2.93   8 2.93   7 2.93   6 2.93   4 2.93  12 2.93  16 2.93  10 2.93
                             3 2.93
   2  0.333  0.000  0.204-   1 2.93   8 2.93   9 2.93   3 2.93   4 2.93   5 2.93  10 2.93  17 2.93
                            11 2.93
   3  0.667  0.000  0.204-   9 2.93   2 2.93   5 2.93  11 2.93   7 2.93  18 2.93   1 2.93   6 2.93
                            12 2.93
   4  0.000  0.333  0.204-   5 2.93   6 2.93   2 2.93   1 2.93   7 2.93  13 2.93  15 2.93   9 2.93
                            10 2.93
   5  0.333  0.333  0.204-   4 2.93   3 2.93   7 2.93   2 2.93   8 2.93  14 2.93  13 2.93  11 2.93
                             6 2.93
   6  0.667  0.333  0.204-   4 2.93   9 2.93   1 2.93  15 2.93   8 2.93  12 2.93   3 2.93   5 2.93
                            14 2.93
   7  0.000  0.667  0.204-   8 2.93   1 2.93   5 2.93   3 2.93   4 2.93  16 2.93  18 2.93  13 2.93
                             9 2.93
   8  0.333  0.667  0.204-   7 2.93   1 2.93   2 2.93   9 2.93   5 2.93  16 2.93   6 2.93  17 2.93
                            14 2.93
   9  0.667  0.667  0.204-   3 2.93   2 2.93   8 2.93   6 2.93  17 2.93   4 2.93  15 2.93   7 2.93
                            18 2.93
  10  0.111  0.111  0.296-  20 2.89  12 2.93  16 2.93  15 2.93  17 2.93  13 2.93  11 2.93   2 2.93
                             1 2.93   4 2.93  19 2.93  26 2.93
  11  0.444  0.111  0.296-  21 2.89  20 2.89  27 2.92  14 2.93  17 2.93  18 2.93   3 2.93  12 2.93
                            13 2.93  10 2.93   5 2.93   2 2.93
  12  0.778  0.111  0.296-  21 2.89  10 2.93  16 2.93  18 2.93  15 2.93  11 2.93   1 2.93  14 2.93
                             6 2.93   3 2.93  25 2.93  19 2.93
  13  0.111  0.444  0.296-  20 2.89  23 2.89  22 2.92  15 2.93  14 2.93  18 2.93  10 2.93  11 2.93
                            16 2.93   4 2.93   5 2.93   7 2.93
  14  0.444  0.444  0.296-  23 2.89  21 2.89  24 2.92  13 2.93  11 2.93  16 2.93   5 2.93  12 2.93
                            17 2.93   8 2.93  15 2.93   6 2.93
  15  0.778  0.444  0.296-  24 2.92  22 2.92  19 2.93  13 2.93  10 2.93  12 2.93  17 2.93  18 2.93
                             4 2.93   6 2.93   9 2.93  14 2.93
  16  0.111  0.778  0.296-  23 2.89  18 2.93  12 2.93  10 2.93  14 2.93  17 2.93  13 2.93   7 2.93
                             8 2.93   1 2.93  26 2.93  25 2.93
  17  0.444  0.778  0.296-  27 2.92  24 2.92  26 2.93  11 2.93  10 2.93   9 2.93  18 2.93  15 2.93
                            16 2.93   2 2.93  14 2.93   8 2.93
  18  0.778  0.778  0.296-  22 2.92  27 2.92  25 2.93  16 2.93  12 2.93  13 2.93  11 2.93  17 2.93
                            15 2.93   7 2.93   3 2.93   9 2.93
  19  0.888  0.223  0.389-  28 2.90  24 2.93  22 2.93  15 2.93  20 2.93  21 2.93  10 2.93  12 2.93
                            26 2.94  25 2.94  32 2.95  31 2.95
  20  0.222  0.222  0.387-  36 2.76  13 2.89  11 2.89  10 2.89  31 2.93  29 2.93  21 2.93  23 2.93
                            19 2.93  26 2.93  27 2.94  22 2.94
  21  0.556  0.222  0.387-  36 2.76  11 2.89  14 2.89  12 2.89  30 2.93  32 2.93  20 2.93  23 2.93
                            25 2.93  19 2.93  27 2.94  24 2.94
  22  0.888  0.556  0.388-  35 2.90  18 2.92  15 2.92  24 2.92  27 2.92  13 2.92  25 2.93  19 2.93
                            33 2.94  31 2.94  23 2.94  20 2.94
  23  0.222  0.556  0.387-  36 2.76  14 2.89  13 2.89  16 2.89  34 2.93  33 2.93  21 2.93  20 2.93
                            26 2.93  25 2.93  22 2.94  24 2.94
  24  0.556  0.556  0.388-  35 2.90  15 2.92  17 2.92  27 2.92  22 2.92  14 2.92  19 2.93  26 2.93
                            32 2.94  34 2.94  23 2.94  21 2.94
  25  0.888  0.888  0.389-  28 2.90  22 2.93  27 2.93  18 2.93  23 2.93  21 2.93  16 2.93  12 2.93
                            26 2.94  19 2.94  33 2.95  30 2.95
  26  0.223  0.888  0.389-  28 2.90  27 2.93  24 2.93  17 2.93  23 2.93  20 2.93  16 2.93  10 2.93
                            25 2.94  19 2.94  34 2.95  29 2.95
  27  0.556  0.888  0.388-  35 2.90  17 2.92  18 2.92  24 2.92  22 2.92  11 2.92  26 2.93  25 2.93
                            29 2.94  30 2.94  20 2.94  21 2.94
  28  0.000  0.000  0.480-  38 2.31  26 2.90  25 2.90  19 2.90  29 2.96  34 2.96  33 2.96  32 2.96
                            31 2.96  30 2.96
  29  0.333  0.008  0.480-  31 2.86  30 2.87  36 2.88  20 2.93  27 2.94  26 2.95  28 2.96  35 2.97
                            34 3.06
  30  0.659  0.008  0.480-  32 2.86  29 2.87  36 2.88  21 2.93  27 2.94  25 2.95  28 2.96  35 2.97
                            33 3.06
  31  0.008  0.333  0.480-  38 2.28  29 2.86  33 2.87  36 2.88  20 2.93  22 2.94  19 2.95  28 2.96
                            35 2.97  32 3.06
  32  0.659  0.333  0.480-  38 2.28  30 2.86  34 2.87  36 2.88  21 2.93  24 2.94  19 2.95  28 2.96
                            35 2.97  31 3.06
  33  0.008  0.659  0.480-  34 2.86  31 2.87  36 2.88  23 2.93  22 2.94  25 2.95  28 2.96  35 2.97
                            30 3.06
  34  0.333  0.659  0.480-  33 2.86  32 2.87  36 2.88  23 2.93  24 2.94  26 2.95  28 2.96  35 2.97
                            29 3.06
  35  0.667  0.667  0.479-  24 2.90  27 2.90  22 2.90  30 2.97  32 2.97  29 2.97  34 2.97  31 2.97
                            33 2.97
  36  0.333  0.333  0.471-  37 1.74  21 2.76  20 2.76  23 2.76  31 2.88  30 2.88  33 2.88  29 2.88
                            34 2.88  32 2.88
  37  0.322  0.324  0.538-  36 1.74
  38  0.885  0.229  0.538-  39 0.97  32 2.28  31 2.28  28 2.31
  39  0.880  0.236  0.576-  38 0.97
 
  LATTYP: Found a hexagonal cell.
 ALAT       =     8.7913665772
 C/A-ratio  =     2.9469639759
  
  Lattice vectors:
  
 A1 = (  -4.3956832886,  -7.6135467898,   0.0000000000)
 A2 = (   8.7913665771,   0.0000000000,   0.0000000000)
 A3 = (   0.0000000000,   0.0000000000,  25.9078406020)


Analysis of symmetry for initial positions (statically):
=====================================================================
 Subroutine PRICEL returns:
 Original cell was already a primitive cell.
 

 Routine SETGRP: Setting up the symmetry group for a 
 hexagonal supercell.


 Subroutine GETGRP returns: Found  1 space group operations
 (whereof  1 operations were pure point group operations)
 out of a pool of 24 trial point group operations.


The static configuration has the point symmetry C_1 .


Analysis of symmetry for dynamics (positions and initial velocities):
=====================================================================
 Subroutine PRICEL returns:
 Original cell was already a primitive cell.
 

 Routine SETGRP: Setting up the symmetry group for a 
 hexagonal supercell.


 Subroutine GETGRP returns: Found  1 space group operations
 (whereof  1 operations were pure point group operations)
 out of a pool of 24 trial point group operations.


The dynamic configuration has the point symmetry C_1 .


Analysis of constrained symmetry for selective dynamics:
=====================================================================
 Subroutine PRICEL returns:
 Original cell was already a primitive cell.
 

 Routine SETGRP: Setting up the symmetry group for a 
 hexagonal supercell.


 Subroutine GETGRP returns: Found  1 space group operations
 (whereof  1 operations were pure point group operations)
 out of a pool of 24 trial point group operations.


The constrained configuration has the point symmetry C_1 .


 Subroutine INISYM returns: Found  1 space group operations
 (whereof  1 operations are pure point group operations),
 and found     1 'primitive' translations


----------------------------------------------------------------------------------------

                                     Primitive cell                                     

  volume of cell :    1734.1020

  direct lattice vectors                    reciprocal lattice vectors
     8.791366577  0.000000000  0.000000000     0.113747958 -0.065672414  0.000000000
     4.395683289  7.613546790  0.000000000     0.000000000  0.131344829  0.000000000
     0.000000000  0.000000000 25.907840602     0.000000000  0.000000000  0.038598354

  length of vectors
     8.791366577  8.791366577 25.907840602     0.131344829  0.131344829  0.038598354

  position of ions in fractional coordinates (direct lattice)
     0.000000000  0.000000000  0.203883767
     0.333333313  0.000000000  0.203883767
     0.666666627  0.000000000  0.203883767
     1.000000000  0.333333343  0.203883767
     0.333333313  0.333333343  0.203883767
     0.666666687  0.333333343  0.203883767
     1.000000000  0.666666687  0.203883767
     0.333333313  0.666666687  0.203883767
     0.666666627  0.666666687  0.203883767
     0.111111104  0.111111112  0.296238327
     0.444444448  0.111111112  0.296238327
     0.777777791  0.111111112  0.296238327
     0.111111097  0.444444448  0.296238327
     0.444444418  0.444444448  0.296238327
     0.777777791  0.444444448  0.296238327
     0.111111104  0.777777791  0.296238327
     0.444444448  0.777777791  0.296238327
     0.777777791  0.777777791  0.296238327
     0.888472583  0.223054850  0.388702475
     0.222244894  0.222244909  0.386833136
     0.555510152  0.222244909  0.386833136
     0.887954736  0.556022662  0.388097996
     0.222244909  0.555510212  0.386833136
     0.556022662  0.556022662  0.388097996
     0.888472583  0.888472583  0.388702475
     0.223054820  0.888472583  0.388702475
     0.556022602  0.887954736  0.388097996
     0.000000000  0.000000000  0.479672460
     0.333023651  0.007549730  0.480488801
     0.659426559  0.007549730  0.480488801
     0.007549730  0.333023681  0.480488801
     0.659426619  0.333023681  0.480488801
     0.007549730  0.659426619  0.480488801
     0.333023651  0.659426619  0.480488801
     0.666666627  0.666666687  0.479438460
     0.333333313  0.333333343  0.471020166
     0.321760983  0.324274411  0.537800708
     0.885038578  0.229245821  0.538176617
     0.880245316  0.236113706  0.575676775

  ion indices of the primitive-cell ions
   primitive index   ion index
                 1           1
                 2           2
                 3           3
                 4           4
                 5           5
                 6           6
                 7           7
                 8           8
                 9           9
                10          10
                11          11
                12          12
                13          13
                14          14
                15          15
                16          16
                17          17
                18          18
                19          19
                20          20
                21          21
                22          22
                23          23
                24          24
                25          25
                26          26
                27          27
                28          28
                29          29
                30          30
                31          31
                32          32
                33          33
                34          34
                35          35
                36          36
                37          37
                38          38
                39          39

----------------------------------------------------------------------------------------

 
 
 KPOINTS: Automatic mesh                          

Automatic generation of k-mesh.
 Grid dimensions read from file:
 generate k-points for:    8    8    1

 Generating k-lattice:

  Cartesian coordinates                     Fractional coordinates (reciprocal lattice)
     0.014218495 -0.008209052  0.000000000     0.125000000 -0.000000000  0.000000000
     0.000000000  0.016418104  0.000000000     0.000000000  0.125000000  0.000000000
     0.000000000  0.000000000  0.038598354     0.000000000  0.000000000  1.000000000

  Length of vectors
     0.016418104  0.016418104  0.038598354

  Shift w.r.t. Gamma in fractional coordinates (k-lattice)
     0.000000000  0.000000000  0.000000000

 TETIRR: Found    192 inequivalent tetrahedra from      384
 
 Subroutine IBZKPT returns following result:
 ===========================================
 
 Found     34 irreducible k-points:
 
 Following reciprocal coordinates:
            Coordinates               Weight
  0.000000  0.000000  0.000000      1.000000
  0.125000  0.000000  0.000000      2.000000
  0.125000  0.125000  0.000000      2.000000
  0.000000  0.125000  0.000000      2.000000
  0.250000  0.000000  0.000000      2.000000
  0.250000  0.250000  0.000000      2.000000
  0.000000  0.250000  0.000000      2.000000
  0.375000  0.000000  0.000000      2.000000
  0.375000  0.375000  0.000000      2.000000
  0.000000  0.375000  0.000000      2.000000
  0.500000  0.000000  0.000000      1.000000
  0.500000  0.500000  0.000000      1.000000
  0.000000  0.500000  0.000000      1.000000
  0.250000  0.125000  0.000000      2.000000
  0.125000  0.250000  0.000000      2.000000
 -0.125000  0.125000  0.000000      2.000000
  0.375000  0.125000  0.000000      2.000000
  0.250000  0.375000  0.000000      2.000000
 -0.125000  0.250000  0.000000      2.000000
  0.250000 -0.125000  0.000000      2.000000
 -0.125000 -0.375000  0.000000      2.000000
 -0.375000 -0.250000  0.000000      2.000000
  0.500000  0.125000  0.000000      2.000000
  0.375000  0.500000  0.000000      2.000000
 -0.125000  0.375000  0.000000      2.000000
  0.375000 -0.125000  0.000000      2.000000
 -0.125000  0.500000  0.000000      2.000000
  0.500000 -0.375000  0.000000      2.000000
  0.500000  0.250000  0.000000      2.000000
  0.250000  0.500000  0.000000      2.000000
 -0.250000  0.250000  0.000000      2.000000
 -0.375000  0.250000  0.000000      2.000000
  0.375000 -0.375000  0.000000      2.000000
 -0.250000  0.375000  0.000000      2.000000
 
 Following cartesian coordinates:
            Coordinates               Weight
  0.000000  0.000000  0.000000      1.000000
  0.014218 -0.008209  0.000000      2.000000
  0.014218  0.008209  0.000000      2.000000
  0.000000  0.016418  0.000000      2.000000
  0.028437 -0.016418  0.000000      2.000000
  0.028437  0.016418  0.000000      2.000000
  0.000000  0.032836  0.000000      2.000000
  0.042655 -0.024627  0.000000      2.000000
  0.042655  0.024627  0.000000      2.000000
  0.000000  0.049254  0.000000      2.000000
  0.056874 -0.032836  0.000000      1.000000
  0.056874  0.032836  0.000000      1.000000
  0.000000  0.065672  0.000000      1.000000
  0.028437 -0.000000  0.000000      2.000000
  0.014218  0.024627  0.000000      2.000000
 -0.014218  0.024627  0.000000      2.000000
  0.042655 -0.008209  0.000000      2.000000
  0.028437  0.032836  0.000000      2.000000
 -0.014218  0.041045  0.000000      2.000000
  0.028437 -0.032836  0.000000      2.000000
 -0.014218 -0.041045  0.000000      2.000000
 -0.042655 -0.008209  0.000000      2.000000
  0.056874 -0.016418  0.000000      2.000000
  0.042655  0.041045  0.000000      2.000000
 -0.014218  0.057463  0.000000      2.000000
  0.042655 -0.041045  0.000000      2.000000
 -0.014218  0.073881  0.000000      2.000000
  0.056874 -0.082091  0.000000      2.000000
  0.056874 -0.000000  0.000000      2.000000
  0.028437  0.049254  0.000000      2.000000
 -0.028437  0.049254  0.000000      2.000000
 -0.042655  0.057463  0.000000      2.000000
  0.042655 -0.073881  0.000000      2.000000
 -0.028437  0.065672  0.000000      2.000000
 


--------------------------------------------------------------------------------------------------------




 Dimension of arrays:
   k-points           NKPTS =     34   k-points in BZ     NKDIM =     34   number of bands    NBANDS=    252
   number of dos      NEDOS =    301   number of ions     NIONS =     39
   non local maximal  LDIM  =      6   non local SUM 2l+1 LMDIM =     18
   total plane-waves  NPLWV = 331776
   max r-space proj   IRMAX =   3117   max aug-charges    IRDMAX=  11496
   dimension x,y,z NGX =    48 NGY =   48 NGZ =  144
   dimension x,y,z NGXF=    96 NGYF=   96 NGZF=  288
   support grid    NGXF=    96 NGYF=   96 NGZF=  288
   ions per type =              35   1   2   1
   NGX,Y,Z   is equivalent  to a cutoff of   9.08,  9.08,  9.24 a.u.
   NGXF,Y,Z  is equivalent  to a cutoff of  18.15, 18.15, 18.48 a.u.

 SYSTEM =  unknown system                          
 POSCAR =  Ag-Os-OOH                               

 Startparameter for this run:
   NWRITE =      2    write-flag & timer
   PREC   = normal    normal or accurate (medium, high low for compatibility)
   ISTART =      0    job   : 0-new  1-cont  2-samecut
   ICHARG =     11    charge: 1-file 2-atom 10-const
   ISPIN  =      1    spin polarized calculation?
   LNONCOLLINEAR =      F non collinear calculations
   LSORBIT =      F    spin-orbit coupling
   INIWAV =      1    electr: 0-lowe 1-rand  2-diag
   LASPH  =      F    aspherical Exc in radial PAW
   METAGGA=      F    non-selfconsistent MetaGGA calc.

 Electronic Relaxation 1
   ENCUT  =  500.0 eV  36.75 Ry    6.06 a.u.  16.03 16.03 47.24*2*pi/ulx,y,z
   ENINI  =  500.0     initial cutoff
   ENAUG  =  605.4 eV  augmentation charge cutoff
   NELM   =    150;   NELMIN=  2; NELMDL= -5     # of ELM steps 
   EDIFF  = 0.1E-04   stopping-criterion for ELM
   LREAL  =      T    real-space projection
   NLSPLINE    = F    spline interpolate recip. space projectors
   LCOMPAT=      F    compatible to vasp.4.4
   GGA_COMPAT  = T    GGA compatible to vasp.4.4-vasp.4.6
   LMAXPAW     = -100 max onsite density
   LMAXMIX     =    2 max onsite mixed and CHGCAR
   VOSKOWN=      0    Vosko Wilk Nusair interpolation
   ROPT   =   -0.00050  -0.00050  -0.00050  -0.00050
 Ionic relaxation
   EDIFFG = -.1E-01   stopping-criterion for IOM
   NSW    =      0    number of steps for IOM
   NBLOCK =      1;   KBLOCK =      1    inner block; outer block 
   IBRION =     -1    ionic relax: 0-MD 1-quasi-New 2-CG
   NFREE  =      1    steps in history (QN), initial steepest desc. (CG)
   ISIF   =      2    stress and relaxation
   IWAVPR =     10    prediction:  0-non 1-charg 2-wave 3-comb
   ISYM   =      2    0-nonsym 1-usesym 2-fastsym
   LCORR  =      T    Harris-Foulkes like correction to forces

   POTIM  = 0.5000    time-step for ionic-motion
   TEIN   =    0.0    initial temperature
   TEBEG  =    0.0;   TEEND  =   0.0 temperature during run
   SMASS  =  -3.00    Nose mass-parameter (am)
   estimated Nose-frequenzy (Omega)   =  0.10E-29 period in steps = 0.13E+47 mass=  -0.177E-26a.u.
   SCALEE = 1.0000    scale energy and forces
   NPACO  =    256;   APACO  = 16.0  distance and # of slots for P.C.
   PSTRESS=    0.0 pullay stress

  Mass of Ions in am
   POMASS = 107.87190.20 16.00  1.00
  Ionic Valenz
   ZVAL   =  11.00  8.00  6.00  1.00
  Atomic Wigner-Seitz radii
   RWIGS  =  -1.00 -1.00 -1.00 -1.00
  virtual crystal weights 
   VCA    =   1.00  1.00  1.00  1.00
   NELECT =     406.0000    total number of electrons
   NUPDOWN=      -1.0000    fix difference up-down

 DOS related values:
   EMIN   =  10.00;   EMAX   =-10.00  energy-range for DOS
   EFERMI =   0.00
   ISMEAR =    -5;   SIGMA  =   0.10  broadening in eV -4-tet -1-fermi 0-gaus

 Electronic relaxation 2 (details)
   IALGO  =     68    algorithm
   LDIAG  =      T    sub-space diagonalisation (order eigenvalues)
   LSUBROT=      F    optimize rotation matrix (better conditioning)
   TURBO    =      0    0=normal 1=particle mesh
   IRESTART =      0    0=no restart 2=restart with 2 vectors
   NREBOOT  =      0    no. of reboots
   NMIN     =      0    reboot dimension
   EREF     =   0.00    reference energy to select bands
   IMIX   =      4    mixing-type and parameters
     AMIX     =   0.40;   BMIX     =  1.00
     AMIX_MAG =   1.60;   BMIX_MAG =  1.00
     AMIN     =   0.10
     WC   =   100.;   INIMIX=   1;  MIXPRE=   1;  MAXMIX= -45

 Intra band minimization:
   WEIMIN = 0.0000     energy-eigenvalue tresh-hold
   EBREAK =  0.99E-08  absolut break condition
   DEPER  =   0.30     relativ break condition  

   TIME   =   0.40     timestep for ELM

  volume/ion in A,a.u.               =      44.46       300.06
  Fermi-wavevector in a.u.,A,eV,Ry     =   1.009002  1.906737 13.851884  1.018085
  Thomas-Fermi vector in A             =   2.141903
 
 Write flags
   LWAVE        =      F    write WAVECAR
   LDOWNSAMPLE  =      F    k-point downsampling of WAVECAR
   LCHARG       =      F    write CHGCAR
   LVTOT        =      F    write LOCPOT, total local potential
   LVHAR        =      F    write LOCPOT, Hartree potential only
   LELF         =      F    write electronic localiz. function (ELF)
   LORBIT       =     10    0 simple, 1 ext, 2 COOP (PROOUT), +10 PAW based schemes


 Dipole corrections
   LMONO  =      F    monopole corrections only (constant potential shift)
   LDIPOL =      F    correct potential (dipole corrections)
   IDIPOL =      0    1-x, 2-y, 3-z, 4-all directions 
   EPSILON=  1.0000000 bulk dielectric constant

 Exchange correlation treatment:
   GGA     =    --    GGA type
   LEXCH   =     8    internal setting for exchange type
   VOSKOWN=      0    Vosko Wilk Nusair interpolation
   LHFCALC =     F    Hartree Fock is set to
   LHFONE  =     F    Hartree Fock one center treatment
   AEXX    =    0.0000 exact exchange contribution

 Linear response parameters
   LEPSILON=     F    determine dielectric tensor
   LRPA    =     F    only Hartree local field effects (RPA)
   LNABLA  =     F    use nabla operator in PAW spheres
   LVEL    =     F    velocity operator in full k-point grid
   LINTERFAST=   F  fast interpolation
   KINTER  =     0    interpolate to denser k-point grid
   CSHIFT  =0.1000    complex shift for real part using Kramers Kronig
   OMEGAMAX=  -1.0    maximum frequency
   DEG_THRESHOLD= 0.2000000E-02 threshold for treating states as degnerate
   RTIME   =   -0.100 relaxation time in fs
  (WPLASMAI=    0.000 imaginary part of plasma frequency in eV, 0.658/RTIME)
   DFIELD  = 0.0000000 0.0000000 0.0000000 field for delta impulse in time
 
 Orbital magnetization related:
   ORBITALMAG=     F  switch on orbital magnetization
   LCHIMAG   =     F  perturbation theory with respect to B field
   DQ        =  0.001000  dq finite difference perturbation B field
   LLRAUG    =     F  two centre corrections for induced B field



--------------------------------------------------------------------------------------------------------


 Static calculation
 charge density and potential remain constant during run
 non-spin polarized calculation
 RMM-DIIS sequential band-by-band and
  variant of blocked Davidson during initial phase
 perform sub-space diagonalisation
    before iterative eigenvector-optimisation
 no mixing
 using additional bands           49
 real space projection scheme for non local part
 use partial core corrections
 calculate Harris-corrections to forces 
   (improved forces if not selfconsistent)
 use gradient corrections 
 WARNING: stress and forces are not correct
  (second derivative of E(xc) not defined)
 use of overlap-Matrix (Vanderbilt PP)
 Fermi weights with tetrahedron method with Bloechl corrections


--------------------------------------------------------------------------------------------------------


  energy-cutoff  :      500.00
  volume of cell :     1734.10
      direct lattice vectors                 reciprocal lattice vectors
     8.791366577  0.000000000  0.000000000     0.113747958 -0.065672414  0.000000000
     4.395683289  7.613546790  0.000000000     0.000000000  0.131344829  0.000000000
     0.000000000  0.000000000 25.907840602     0.000000000  0.000000000  0.038598354

  length of vectors
     8.791366577  8.791366577 25.907840602     0.131344829  0.131344829  0.038598354


 
 k-points in units of 2pi/SCALE and weight: Automatic mesh                          
   0.00000000  0.00000000  0.00000000       0.016
   0.01421849 -0.00820905  0.00000000       0.031
   0.01421849  0.00820905  0.00000000       0.031
   0.00000000  0.01641810  0.00000000       0.031
   0.02843699 -0.01641810  0.00000000       0.031
   0.02843699  0.01641810  0.00000000       0.031
   0.00000000  0.03283621  0.00000000       0.031
   0.04265548 -0.02462716  0.00000000       0.031
   0.04265548  0.02462716  0.00000000       0.031
   0.00000000  0.04925431  0.00000000       0.031
   0.05687398 -0.03283621  0.00000000       0.016
   0.05687398  0.03283621  0.00000000       0.016
   0.00000000  0.06567241  0.00000000       0.016
   0.02843699 -0.00000000  0.00000000       0.031
   0.01421849  0.02462716  0.00000000       0.031
  -0.01421849  0.02462716  0.00000000       0.031
   0.04265548 -0.00820905  0.00000000       0.031
   0.02843699  0.03283621  0.00000000       0.031
  -0.01421849  0.04104526  0.00000000       0.031
   0.02843699 -0.03283621  0.00000000       0.031
  -0.01421849 -0.04104526  0.00000000       0.031
  -0.04265548 -0.00820905  0.00000000       0.031
   0.05687398 -0.01641810  0.00000000       0.031
   0.04265548  0.04104526  0.00000000       0.031
  -0.01421849  0.05746336  0.00000000       0.031
   0.04265548 -0.04104526  0.00000000       0.031
  -0.01421849  0.07388147  0.00000000       0.031
   0.05687398 -0.08209052  0.00000000       0.031
   0.05687398 -0.00000000  0.00000000       0.031
   0.02843699  0.04925431  0.00000000       0.031
  -0.02843699  0.04925431  0.00000000       0.031
  -0.04265548  0.05746336  0.00000000       0.031
   0.04265548 -0.07388147  0.00000000       0.031
  -0.02843699  0.06567241  0.00000000       0.031
 
 k-points in reciprocal lattice and weights: Automatic mesh                          
   0.00000000  0.00000000  0.00000000       0.016
   0.12500000  0.00000000  0.00000000       0.031
   0.12500000  0.12500000  0.00000000       0.031
   0.00000000  0.12500000  0.00000000       0.031
   0.25000000  0.00000000  0.00000000       0.031
   0.25000000  0.25000000  0.00000000       0.031
   0.00000000  0.25000000  0.00000000       0.031
   0.37500000  0.00000000  0.00000000       0.031
   0.37500000  0.37500000  0.00000000       0.031
   0.00000000  0.37500000  0.00000000       0.031
   0.50000000  0.00000000  0.00000000       0.016
   0.50000000  0.50000000  0.00000000       0.016
   0.00000000  0.50000000  0.00000000       0.016
   0.25000000  0.12500000  0.00000000       0.031
   0.12500000  0.25000000  0.00000000       0.031
  -0.12500000  0.12500000  0.00000000       0.031
   0.37500000  0.12500000  0.00000000       0.031
   0.25000000  0.37500000  0.00000000       0.031
  -0.12500000  0.25000000  0.00000000       0.031
   0.25000000 -0.12500000  0.00000000       0.031
  -0.12500000 -0.37500000  0.00000000       0.031
  -0.37500000 -0.25000000  0.00000000       0.031
   0.50000000  0.12500000  0.00000000       0.031
   0.37500000  0.50000000  0.00000000       0.031
  -0.12500000  0.37500000  0.00000000       0.031
   0.37500000 -0.12500000  0.00000000       0.031
  -0.12500000  0.50000000  0.00000000       0.031
   0.50000000 -0.37500000  0.00000000       0.031
   0.50000000  0.25000000  0.00000000       0.031
   0.25000000  0.50000000  0.00000000       0.031
  -0.25000000  0.25000000  0.00000000       0.031
  -0.37500000  0.25000000  0.00000000       0.031
   0.37500000 -0.37500000  0.00000000       0.031
  -0.25000000  0.37500000  0.00000000       0.031
 
 position of ions in fractional coordinates (direct lattice) 
   0.00000000  0.00000000  0.20388377
   0.33333331  0.00000000  0.20388377
   0.66666663  0.00000000  0.20388377
   0.00000000  0.33333334  0.20388377
   0.33333331  0.33333334  0.20388377
   0.66666669  0.33333334  0.20388377
   0.00000000  0.66666669  0.20388377
   0.33333331  0.66666669  0.20388377
   0.66666663  0.66666669  0.20388377
   0.11111110  0.11111111  0.29623833
   0.44444445  0.11111111  0.29623833
   0.77777779  0.11111111  0.29623833
   0.11111110  0.44444445  0.29623833
   0.44444442  0.44444445  0.29623833
   0.77777779  0.44444445  0.29623833
   0.11111110  0.77777779  0.29623833
   0.44444445  0.77777779  0.29623833
   0.77777779  0.77777779  0.29623833
   0.88847258  0.22305485  0.38870248
   0.22224489  0.22224491  0.38683314
   0.55551015  0.22224491  0.38683314
   0.88795474  0.55602266  0.38809800
   0.22224491  0.55551021  0.38683314
   0.55602266  0.55602266  0.38809800
   0.88847258  0.88847258  0.38870248
   0.22305482  0.88847258  0.38870248
   0.55602260  0.88795474  0.38809800
   0.00000000  0.00000000  0.47967246
   0.33302365  0.00754973  0.48048880
   0.65942656  0.00754973  0.48048880
   0.00754973  0.33302368  0.48048880
   0.65942662  0.33302368  0.48048880
   0.00754973  0.65942662  0.48048880
   0.33302365  0.65942662  0.48048880
   0.66666663  0.66666669  0.47943846
   0.33333331  0.33333334  0.47102017
   0.32176098  0.32427441  0.53780071
   0.88503858  0.22924582  0.53817662
   0.88024532  0.23611371  0.57567677
 
 position of ions in cartesian coordinates  (Angst):
   0.00000000  0.00000000  5.28218814
   2.93045535  0.00000000  5.28218814
   5.86091070  0.00000000  5.28218814
   1.46522781  2.53784900  5.28218814
   4.39568315  2.53784900  5.28218814
   7.32613904  2.53784900  5.28218814
   2.93045562  5.07569801  5.28218814
   5.86091096  5.07569801  5.28218814
   8.79136632  5.07569801  5.28218814
   1.46522770  0.84594965  7.67489535
   4.39568332  0.84594965  7.67489535
   7.32613893  0.84594965  7.67489535
   2.93045542  3.38379860  7.67489535
   5.86091083  3.38379860  7.67489535
   8.79136671  3.38379860  7.67489535
   4.39568328  5.92164760  7.67489535
   7.32613890  5.92164760  7.67489535
  10.25659451  5.92164760  7.67489535
   8.79136665  1.69823853 10.07044178
   2.93075457  1.69207201 10.02201122
   5.86061162  1.69207201 10.02201122
  10.25043511  4.23330455 10.05478103
   4.39568342  4.22940299 10.02201122
   7.33229857  4.23330455 10.05478103
  11.71633226  6.76442758 10.07044178
   5.86640077  6.76442758 10.07044178
   8.79136631  6.76048493 10.05478103
   0.00000000  0.00000000 12.42727764
   2.96091922  0.05748023 12.44842727
   5.83044683  0.05748023 12.44842727
   1.53023908  2.53549138 12.44842727
   7.26112776  2.53549138 12.44842727
   2.96500301  5.02057542 12.44842727
   5.82636356  5.02057542 12.44842727
   8.79136632  5.07569801 12.42121520
   4.39568315  2.53784900 12.20311537
   4.25412636  2.46887840 13.93325501
   8.78839060  1.74537379 13.94299401
   8.77644033  1.79766275 14.91454212
 


--------------------------------------------------------------------------------------------------------


 k-point   1 :   0.0000 0.0000 0.0000  plane waves:   43913
 k-point   2 :   0.1250 0.0000 0.0000  plane waves:   43928
 k-point   3 :   0.1250 0.1250 0.0000  plane waves:   43928
 k-point   4 :   0.0000 0.1250 0.0000  plane waves:   43928
 k-point   5 :   0.2500 0.0000 0.0000  plane waves:   43978
 k-point   6 :   0.2500 0.2500 0.0000  plane waves:   43978
 k-point   7 :   0.0000 0.2500 0.0000  plane waves:   43978
 k-point   8 :   0.3750 0.0000 0.0000  plane waves:   44020
 k-point   9 :   0.3750 0.3750 0.0000  plane waves:   44020
 k-point  10 :   0.0000 0.3750 0.0000  plane waves:   44020
 k-point  11 :   0.5000 0.0000 0.0000  plane waves:   44008
 k-point  12 :   0.5000 0.5000 0.0000  plane waves:   44008
 k-point  13 :   0.0000 0.5000 0.0000  plane waves:   44008
 k-point  14 :   0.2500 0.1250 0.0000  plane waves:   43994
 k-point  15 :   0.1250 0.2500 0.0000  plane waves:   43994
 k-point  16 :  -0.1250 0.1250 0.0000  plane waves:   43994
 k-point  17 :   0.3750 0.1250 0.0000  plane waves:   44042
 k-point  18 :   0.2500 0.3750 0.0000  plane waves:   44042
 k-point  19 :  -0.1250 0.2500 0.0000  plane waves:   44042
 k-point  20 :   0.2500-0.1250 0.0000  plane waves:   44042
 k-point  21 :  -0.1250-0.3750 0.0000  plane waves:   44042
 k-point  22 :  -0.3750-0.2500 0.0000  plane waves:   44042
 k-point  23 :   0.5000 0.1250 0.0000  plane waves:   44080
 k-point  24 :   0.3750 0.5000 0.0000  plane waves:   44080
 k-point  25 :  -0.1250 0.3750 0.0000  plane waves:   44080
 k-point  26 :   0.3750-0.1250 0.0000  plane waves:   44080
 k-point  27 :  -0.1250 0.5000 0.0000  plane waves:   44080
 k-point  28 :   0.5000-0.3750 0.0000  plane waves:   44080
 k-point  29 :   0.5000 0.2500 0.0000  plane waves:   44092
 k-point  30 :   0.2500 0.5000 0.0000  plane waves:   44092
 k-point  31 :  -0.2500 0.2500 0.0000  plane waves:   44092
 k-point  32 :  -0.3750 0.2500 0.0000  plane waves:   44050
 k-point  33 :   0.3750-0.3750 0.0000  plane waves:   44050
 k-point  34 :  -0.2500 0.3750 0.0000  plane waves:   44050

 maximum and minimum number of plane-waves per node :     44092    43913

 maximum number of plane-waves:     44092
 maximum index in each direction: 
   IXMAX=   16   IYMAX=   16   IZMAX=   47
   IXMIN=  -16   IYMIN=  -16   IZMIN=  -47


 serial   3D FFT for wavefunctions
 parallel 3D FFT for charge:
    minimum data exchange during FFTs selected (reduces bandwidth)


 total amount of memory used by VASP MPI-rank0   291418. kBytes
=======================================================================

   base      :      30000. kBytes
   nonlr-proj:      15348. kBytes
   fftplans  :       4948. kBytes
   grid      :      21313. kBytes
   one-center:        606. kBytes
   wavefun   :     219203. kBytes
 
     INWAV:  cpu time    0.0000: real time    0.0001
 initial charge density was supplied:
 number of electron     406.0000098 magnetization 
 keeping initial charge density in first step


--------------------------------------------------------------------------------------------------------


 Maximum index for non-local projection operator         2981
 Maximum index for augmentation-charges          695 (set IRDMAX)


--------------------------------------------------------------------------------------------------------


 First call to EWALD:  gamma=   0.148
 Maximum number of real-space cells 4x 4x 2
 Maximum number of reciprocal cells 2x 2x 5

    FEWALD:  cpu time    0.0013: real time    0.0013


--------------------------------------- Iteration      1(   1)  ---------------------------------------


    POTLOK:  cpu time    0.0503: real time    0.0506
    SETDIJ:  cpu time    0.0047: real time    0.0048
     EDDAV:  cpu time   27.1043: real time   27.1063
 BZINTS: Fermi energy:    9.138022;  406.000000 electrons
         Band energy: 0.954113E+03;  BLOECHL correction:   -0.024908
       DOS:  cpu time    0.0563: real time    0.0564
    --------------------------------------------
      LOOP:  cpu time   27.2156: real time   27.2181

 eigenvalue-minimisations  : 17136
 total energy-change (2. order) : 0.2499032E+04  (-0.1836589E+05)
 number of electron     406.0000098 magnetization 
 augmentation part      406.0000098 magnetization 

 Free energy of the ion-electron system (eV)
  ---------------------------------------------------
  alpha Z        PSCENC =       676.73059413
  Ewald energy   TEWEN  =    156507.33389395
  -Hartree energ DENC   =   -194457.86951922
  -exchange      EXHF   =         0.00000000
  -V(xc)+E(xc)   XCENC  =      -361.54877586
  PAW double counting   =     40053.55250600   -38472.25666792
  entropy T*S    EENTRO =         0.00000000
  eigenvalues    EBANDS =       954.11301524
  atomic energy  EATOM  =     37598.97714829
  Solvation  Ediel_sol  =         0.00000000
  ---------------------------------------------------
  free energy    TOTEN  =      2499.03219462 eV

  energy without entropy =     2499.03219462  energy(sigma->0) =     2499.03219462


--------------------------------------------------------------------------------------------------------




--------------------------------------- Iteration      1(   2)  ---------------------------------------


     EDDAV:  cpu time   28.3864: real time   28.3867
 BZINTS: Fermi energy:    0.928935;  406.000000 electrons
         Band energy:-0.154302E+04;  BLOECHL correction:   -0.029906
       DOS:  cpu time    0.0576: real time    0.0576
    --------------------------------------------
      LOOP:  cpu time   28.4440: real time   28.4443

 eigenvalue-minimisations  : 18172
 total energy-change (2. order) :-0.2497135E+04  (-0.2382738E+04)
 number of electron     406.0000098 magnetization 
 augmentation part      406.0000098 magnetization 

 Free energy of the ion-electron system (eV)
  ---------------------------------------------------
  alpha Z        PSCENC =       676.73059413
  Ewald energy   TEWEN  =    156507.33389395
  -Hartree energ DENC   =   -194457.86951922
  -exchange      EXHF   =         0.00000000
  -V(xc)+E(xc)   XCENC  =      -361.54877586
  PAW double counting   =     40053.55250600   -38472.25666792
  entropy T*S    EENTRO =         0.00000000
  eigenvalues    EBANDS =     -1543.02156963
  atomic energy  EATOM  =     37598.97714829
  Solvation  Ediel_sol  =         0.00000000
  ---------------------------------------------------
  free energy    TOTEN  =         1.89760975 eV

  energy without entropy =        1.89760975  energy(sigma->0) =        1.89760975


--------------------------------------------------------------------------------------------------------




--------------------------------------- Iteration      1(   3)  ---------------------------------------


     EDDAV:  cpu time   31.4421: real time   31.4423
 BZINTS: Fermi energy:    0.188081;  406.000000 electrons
         Band energy:-0.165694E+04;  BLOECHL correction:   -0.038259
       DOS:  cpu time    0.0511: real time    0.0511
    --------------------------------------------
      LOOP:  cpu time   31.4932: real time   31.4934

 eigenvalue-minimisations  : 20552
 total energy-change (2. order) :-0.1139157E+03  (-0.1112266E+03)
 number of electron     406.0000098 magnetization 
 augmentation part      406.0000098 magnetization 

 Free energy of the ion-electron system (eV)
  ---------------------------------------------------
  alpha Z        PSCENC =       676.73059413
  Ewald energy   TEWEN  =    156507.33389395
  -Hartree energ DENC   =   -194457.86951922
  -exchange      EXHF   =         0.00000000
  -V(xc)+E(xc)   XCENC  =      -361.54877586
  PAW double counting   =     40053.55250600   -38472.25666792
  entropy T*S    EENTRO =         0.00000000
  eigenvalues    EBANDS =     -1656.93729688
  atomic energy  EATOM  =     37598.97714829
  Solvation  Ediel_sol  =         0.00000000
  ---------------------------------------------------
  free energy    TOTEN  =      -112.01811750 eV

  energy without entropy =     -112.01811750  energy(sigma->0) =     -112.01811750


--------------------------------------------------------------------------------------------------------




--------------------------------------- Iteration      1(   4)  ---------------------------------------


     EDDAV:  cpu time   28.9991: real time   28.9994
 BZINTS: Fermi energy:    0.158707;  406.000000 electrons
         Band energy:-0.165929E+04;  BLOECHL correction:   -0.035975
       DOS:  cpu time    0.0552: real time    0.0552
    --------------------------------------------
      LOOP:  cpu time   29.0543: real time   29.0546

 eigenvalue-minimisations  : 18620
 total energy-change (2. order) :-0.2354692E+01  (-0.2347051E+01)
 number of electron     406.0000098 magnetization 
 augmentation part      406.0000098 magnetization 

 Free energy of the ion-electron system (eV)
  ---------------------------------------------------
  alpha Z        PSCENC =       676.73059413
  Ewald energy   TEWEN  =    156507.33389395
  -Hartree energ DENC   =   -194457.86951922
  -exchange      EXHF   =         0.00000000
  -V(xc)+E(xc)   XCENC  =      -361.54877586
  PAW double counting   =     40053.55250600   -38472.25666792
  entropy T*S    EENTRO =         0.00000000
  eigenvalues    EBANDS =     -1659.29198914
  atomic energy  EATOM  =     37598.97714829
  Solvation  Ediel_sol  =         0.00000000
  ---------------------------------------------------
  free energy    TOTEN  =      -114.37280976 eV

  energy without entropy =     -114.37280976  energy(sigma->0) =     -114.37280976


--------------------------------------------------------------------------------------------------------




--------------------------------------- Iteration      1(   5)  ---------------------------------------


     EDDAV:  cpu time   31.8148: real time   31.8179
 BZINTS: Fermi energy:    0.158257;  406.000000 electrons
         Band energy:-0.165933E+04;  BLOECHL correction:   -0.035938
       DOS:  cpu time    0.0578: real time    0.0578
    --------------------------------------------
      LOOP:  cpu time   31.8726: real time   31.8756

 eigenvalue-minimisations  : 20832
 total energy-change (2. order) :-0.4287131E-01  (-0.4286398E-01)
 number of electron     406.0000098 magnetization 
 augmentation part      406.0000098 magnetization 

 Free energy of the ion-electron system (eV)
  ---------------------------------------------------
  alpha Z        PSCENC =       676.73059413
  Ewald energy   TEWEN  =    156507.33389395
  -Hartree energ DENC   =   -194457.86951922
  -exchange      EXHF   =         0.00000000
  -V(xc)+E(xc)   XCENC  =      -361.54877586
  PAW double counting   =     40053.55250600   -38472.25666792
  entropy T*S    EENTRO =         0.00000000
  eigenvalues    EBANDS =     -1659.33486044
  atomic energy  EATOM  =     37598.97714829
  Solvation  Ediel_sol  =         0.00000000
  ---------------------------------------------------
  free energy    TOTEN  =      -114.41568107 eV

  energy without entropy =     -114.41568107  energy(sigma->0) =     -114.41568107


--------------------------------------------------------------------------------------------------------




--------------------------------------- Iteration      1(   6)  ---------------------------------------


    EDDIAG:  cpu time    5.3969: real time    5.3972
  RMM-DIIS:  cpu time   15.5975: real time   15.5976
    ORTHCH:  cpu time    1.0080: real time    1.0080
 BZINTS: Fermi energy:    0.158251;  406.000000 electrons
         Band energy:-0.165934E+04;  BLOECHL correction:   -0.035938
       DOS:  cpu time    0.0577: real time    0.0577
    --------------------------------------------
      LOOP:  cpu time   22.0601: real time   22.0605

 eigenvalue-minimisations  : 17439
 total energy-change (2. order) :-0.8643545E-03  (-0.8640236E-03)
 number of electron     406.0000098 magnetization 
 augmentation part      406.0000098 magnetization 

 Free energy of the ion-electron system (eV)
  ---------------------------------------------------
  alpha Z        PSCENC =       676.73059413
  Ewald energy   TEWEN  =    156507.33389395
  -Hartree energ DENC   =   -194457.86951922
  -exchange      EXHF   =         0.00000000
  -V(xc)+E(xc)   XCENC  =      -361.54877586
  PAW double counting   =     40053.55250600   -38472.25666792
  entropy T*S    EENTRO =         0.00000000
  eigenvalues    EBANDS =     -1659.33572480
  atomic energy  EATOM  =     37598.97714829
  Solvation  Ediel_sol  =         0.00000000
  ---------------------------------------------------
  free energy    TOTEN  =      -114.41654542 eV

  energy without entropy =     -114.41654542  energy(sigma->0) =     -114.41654542


--------------------------------------------------------------------------------------------------------




--------------------------------------- Iteration      1(   7)  ---------------------------------------


    EDDIAG:  cpu time    5.3961: real time    5.3963
  RMM-DIIS:  cpu time   21.8958: real time   21.8959
    ORTHCH:  cpu time    1.0061: real time    1.0061
 BZINTS: Fermi energy:    0.158249;  406.000000 electrons
         Band energy:-0.165934E+04;  BLOECHL correction:   -0.035938
       DOS:  cpu time    0.0551: real time    0.0551
    --------------------------------------------
      LOOP:  cpu time   28.3531: real time   28.3535

 eigenvalue-minimisations  : 24798
 total energy-change (2. order) :-0.2768568E-03  (-0.2764905E-03)
 number of electron     406.0000098 magnetization 
 augmentation part      406.0000098 magnetization 

 Free energy of the ion-electron system (eV)
  ---------------------------------------------------
  alpha Z        PSCENC =       676.73059413
  Ewald energy   TEWEN  =    156507.33389395
  -Hartree energ DENC   =   -194457.86951922
  -exchange      EXHF   =         0.00000000
  -V(xc)+E(xc)   XCENC  =      -361.54877586
  PAW double counting   =     40053.55250600   -38472.25666792
  entropy T*S    EENTRO =         0.00000000
  eigenvalues    EBANDS =     -1659.33600165
  atomic energy  EATOM  =     37598.97714829
  Solvation  Ediel_sol  =         0.00000000
  ---------------------------------------------------
  free energy    TOTEN  =      -114.41682228 eV

  energy without entropy =     -114.41682228  energy(sigma->0) =     -114.41682228


--------------------------------------------------------------------------------------------------------




--------------------------------------- Iteration      1(   8)  ---------------------------------------


    EDDIAG:  cpu time    5.3990: real time    5.3991
  RMM-DIIS:  cpu time   15.9976: real time   15.9976
    ORTHCH:  cpu time    1.0078: real time    1.0078
 BZINTS: Fermi energy:    0.158249;  406.000000 electrons
         Band energy:-0.165934E+04;  BLOECHL correction:   -0.035938
       DOS:  cpu time    0.0578: real time    0.0578
    --------------------------------------------
      LOOP:  cpu time   22.4622: real time   22.4624

 eigenvalue-minimisations  : 17035
 total energy-change (2. order) :-0.1308741E-04  (-0.1381687E-04)
 number of electron     406.0000098 magnetization 
 augmentation part      406.0000098 magnetization 

 Free energy of the ion-electron system (eV)
  ---------------------------------------------------
  alpha Z        PSCENC =       676.73059413
  Ewald energy   TEWEN  =    156507.33389395
  -Hartree energ DENC   =   -194457.86951922
  -exchange      EXHF   =         0.00000000
  -V(xc)+E(xc)   XCENC  =      -361.54877586
  PAW double counting   =     40053.55250600   -38472.25666792
  entropy T*S    EENTRO =         0.00000000
  eigenvalues    EBANDS =     -1659.33601474
  atomic energy  EATOM  =     37598.97714829
  Solvation  Ediel_sol  =         0.00000000
  ---------------------------------------------------
  free energy    TOTEN  =      -114.41683537 eV

  energy without entropy =     -114.41683537  energy(sigma->0) =     -114.41683537


--------------------------------------------------------------------------------------------------------




--------------------------------------- Iteration      1(   9)  ---------------------------------------


    EDDIAG:  cpu time    5.4018: real time    5.4021
  RMM-DIIS:  cpu time   12.3639: real time   12.3639
    ORTHCH:  cpu time    1.0065: real time    1.0065
 BZINTS: Fermi energy:    0.158249;  406.000000 electrons
         Band energy:-0.165934E+04;  BLOECHL correction:   -0.035938
       DOS:  cpu time    0.0565: real time    0.0565
    --------------------------------------------
      LOOP:  cpu time   18.8287: real time   18.8291

 eigenvalue-minimisations  : 11482
 total energy-change (2. order) :-0.1510547E-05  (-0.1611915E-05)
 number of electron     406.0000098 magnetization 
 augmentation part      406.0000098 magnetization 

 Free energy of the ion-electron system (eV)
  ---------------------------------------------------
  alpha Z        PSCENC =       676.73059413
  Ewald energy   TEWEN  =    156507.33389395
  -Hartree energ DENC   =   -194457.86951922
  -exchange      EXHF   =         0.00000000
  -V(xc)+E(xc)   XCENC  =      -361.54877586
  PAW double counting   =     40053.55250600   -38472.25666792
  entropy T*S    EENTRO =         0.00000000
  eigenvalues    EBANDS =     -1659.33601625
  atomic energy  EATOM  =     37598.97714829
  Solvation  Ediel_sol  =         0.00000000
  ---------------------------------------------------
  free energy    TOTEN  =      -114.41683688 eV

  energy without entropy =     -114.41683688  energy(sigma->0) =     -114.41683688


--------------------------------------------------------------------------------------------------------




 average (electrostatic) potential at core
  the test charge radii are     1.1249  1.1957  0.7215  0.5201
  (the norm of the test charge is              1.0000)
       1 -78.7509       2 -78.7333       3 -78.7341       4 -78.7157       5 -78.7211
       6 -78.7133       7 -78.7306       8 -78.7299       9 -78.7684      10 -78.9600
      11 -78.9584      12 -78.9565      13 -78.9487      14 -78.9473      15 -78.9509
      16 -78.9651      17 -78.9725      18 -78.9743      19 -78.9343      20 -79.0765
      21 -79.0936      22 -78.9645      23 -79.0617      24 -78.9616      25 -78.9387
      26 -78.9359      27 -78.9540      28 -78.5998      29 -78.7161      30 -78.7131
      31 -78.6271      32 -78.6336      33 -78.6949      34 -78.6861      35 -78.6946
      36 -52.5248      37 -76.9379      38 -75.3641      39 -39.6454
 
 
 
 E-fermi :   0.1582     XC(G=0):  -5.1628     alpha+bet : -4.8587

 Fermi energy:         0.1582485184

 k-point     1 :       0.0000    0.0000    0.0000
  band No.  band energies     occupation 
      1     -19.1141      2.00000
      2     -19.0117      2.00000
      3      -7.5199      2.00000
      4      -6.9807      2.00000
      5      -6.2560      2.00000
      6      -6.0135      2.00000
      7      -5.8759      2.00000
      8      -5.7851      2.00000
      9      -5.7842      2.00000
     10      -5.7351      2.00000
     11      -5.6975      2.00000
     12      -5.6949      2.00000
     13      -5.6850      2.00000
     14      -5.6754      2.00000
     15      -5.6629      2.00000
     16      -5.6578      2.00000
     17      -5.6477      2.00000
     18      -5.6443      2.00000
     19      -5.6261      2.00000
     20      -5.5837      2.00000
     21      -5.5801      2.00000
     22      -5.5673      2.00000
     23      -5.4837      2.00000
     24      -5.4712      2.00000
     25      -5.4682      2.00000
     26      -5.4017      2.00000
     27      -5.3741      2.00000
     28      -5.3594      2.00000
     29      -5.3443      2.00000
     30      -5.3057      2.00000
     31      -5.2932      2.00000
     32      -5.2831      2.00000
     33      -5.2789      2.00000
     34      -5.2659      2.00000
     35      -5.2540      2.00000
     36      -5.2345      2.00000
     37      -5.2327      2.00000
     38      -5.2269      2.00000
     39      -5.1975      2.00000
     40      -5.1853      2.00000
     41      -5.1648      2.00000
     42      -5.1342      2.00000
     43      -5.1239      2.00000
     44      -5.1127      2.00000
     45      -5.0752      2.00000
     46      -4.9912      2.00000
     47      -4.9154      2.00000
     48      -4.9069      2.00000
     49      -4.8934      2.00000
     50      -4.8911      2.00000
     51      -4.8803      2.00000
     52      -4.8797      2.00000
     53      -4.8666      2.00000
     54      -4.8485      2.00000
     55      -4.7931      2.00000
     56      -4.7674      2.00000
     57      -4.7382      2.00000
     58      -4.7351      2.00000
     59      -4.7132      2.00000
     60      -4.6742      2.00000
     61      -4.5139      2.00000
     62      -4.5104      2.00000
     63      -4.5075      2.00000
     64      -4.5021      2.00000
     65      -4.4950      2.00000
     66      -4.4896      2.00000
     67      -4.4808      2.00000
     68      -4.4747      2.00000
     69      -4.4552      2.00000
     70      -4.4454      2.00000
     71      -4.4404      2.00000
     72      -4.4266      2.00000
     73      -4.4088      2.00000
     74      -4.3462      2.00000
     75      -4.3455      2.00000
     76      -4.3318      2.00000
     77      -4.3205      2.00000
     78      -4.3122      2.00000
     79      -4.3055      2.00000
     80      -4.3019      2.00000
     81      -4.2916      2.00000
     82      -4.2881      2.00000
     83      -4.2856      2.00000
     84      -4.2770      2.00000
     85      -4.2538      2.00000
     86      -4.2520      2.00000
     87      -4.2415      2.00000
     88      -4.2326      2.00000
     89      -4.1887      2.00000
     90      -4.1847      2.00000
     91      -4.1736      2.00000
     92      -4.1497      2.00000
     93      -4.1104      2.00000
     94      -4.1072      2.00000
     95      -4.1048      2.00000
     96      -4.0928      2.00000
     97      -4.0645      2.00000
     98      -4.0387      2.00000
     99      -4.0364      2.00000
    100      -4.0167      2.00000
    101      -4.0123      2.00000
    102      -4.0103      2.00000
[...]
  0.000   0.000   0.000   0.000   0.000   0.000   0.000   0.000   0.000   0.000   1.000   0.000   0.000   0.000   0.000   0.000
  0.000   0.000   0.000   0.000   0.000   0.000   0.000   0.000   0.000   0.000   0.000   0.000   0.000   0.000   0.000   0.000
  0.000   0.000   0.000   0.000   0.000   0.000   0.000   0.000   0.000   0.000   0.000   0.000   0.000   0.000   0.000   0.000
  0.000   0.000   0.000   0.000   0.000   0.000   0.000   0.000   0.000   0.000   0.000   0.000   0.000   0.000   0.000   0.000
  0.000   0.000   0.000   0.000   0.000   0.000   0.000   0.000   0.000   0.000   0.000   0.000   0.000   0.000   0.000   0.000
  0.000   0.000   0.000   0.000   0.000   0.000   0.000   0.000   0.000   0.000   0.000   0.000   0.000   0.000   0.000   0.000
  0.000   0.000   0.000   0.000   0.000   0.000   0.000   0.000   0.000   0.000   0.000   0.000   0.000   0.000   0.000   0.000
  0.000   0.000   0.000   0.000   0.000   0.000   0.000   0.000   0.000   0.000   0.000   0.000   0.000   0.000   0.000   0.000


------------------------ aborting loop because EDIFF is reached ----------------------------------------





 total charge

# of ion       s       p       d       tot
------------------------------------------
    1        0.418   0.201   9.179   9.798
    2        0.417   0.204   9.178   9.798
    3        0.417   0.204   9.177   9.798
    4        0.419   0.203   9.177   9.798
    5        0.420   0.203   9.175   9.798
    6        0.418   0.203   9.177   9.798
    7        0.416   0.203   9.178   9.797
    8        0.416   0.203   9.178   9.797
    9        0.411   0.204   9.178   9.793
   10        0.412   0.267   9.163   9.842
   11        0.404   0.274   9.165   9.843
   12        0.414   0.266   9.164   9.843
   13        0.405   0.272   9.167   9.844
   14        0.404   0.273   9.167   9.844
   15        0.405   0.266   9.167   9.839
   16        0.412   0.268   9.162   9.842
   17        0.401   0.271   9.164   9.836
   18        0.401   0.271   9.164   9.836
   19        0.411   0.263   9.166   9.840
   20        0.430   0.312   9.135   9.878
   21        0.434   0.309   9.136   9.879
   22        0.393   0.276   9.165   9.834
   23        0.442   0.302   9.141   9.885
   24        0.393   0.276   9.165   9.834
   25        0.401   0.268   9.165   9.833
   26        0.400   0.269   9.164   9.833
   27        0.393   0.270   9.173   9.836
   28        0.376   0.223   9.191   9.791
   29        0.399   0.211   9.191   9.801
   30        0.400   0.213   9.188   9.801
   31        0.368   0.244   9.195   9.807
   32        0.373   0.249   9.186   9.808
   33        0.403   0.216   9.183   9.802
   34        0.405   0.218   9.180   9.802
   35        0.409   0.191   9.190   9.790
   36        0.657   0.601   5.976   7.234
   37        1.607   3.268   0.000   4.876
   38        1.556   3.493   0.000   5.048
   39        0.616   0.120   0.000   0.736
--------------------------------------------------
tot         18.676  16.045 326.972 361.693
 
    CHARGE:  cpu time    1.2802: real time    1.2804
    FORLOC:  cpu time    0.0127: real time    0.0127
    FORNL :  cpu time    5.5274: real time    5.5276
    STRESS:  cpu time   16.6011: real time   16.6013
    FORCOR:  cpu time    0.0489: real time    0.0490
    FORHAR:  cpu time    0.0202: real time    0.0203
    OFIELD:  cpu time    0.0003: real time    0.0003

  FORCE on cell =-STRESS in cart. coord.  units (eV):
  Direction    XX          YY          ZZ          XY          YZ          ZX
  --------------------------------------------------------------------------------------
  Alpha Z   676.73059   676.73059   676.73059
  Ewald  179429.47948179288.46916************     3.47145     4.26678   -10.03083
  Hartree189480.35778189360.40671************     2.93092     5.42247     1.97178
  E(xc)   -2129.25609 -2129.37822 -2132.92085     0.01537     0.00247    -0.08802
  Local  ************************380039.46387    -6.26270    -9.65444     5.51492
  n-local  -393.67231  -393.92401  -391.17619    -0.01763    -0.26008    -0.88652
  augment  3251.26408  3251.49899  3254.98552    -0.00431     0.04723     0.47752
  Kinetic  5170.09040  5171.60526  5140.86172    -0.21542     0.16579     2.93809
  Fock        0.00000     0.00000     0.00000     0.00000     0.00000     0.00000
  -------------------------------------------------------------------------------------
  Total      -5.04008    -5.23914     0.07437    -0.08233    -0.00978    -0.10305
  in kB      -4.65664    -4.84056     0.06872    -0.07607    -0.00903    -0.09521
  external pressure =       -3.14 kB  Pullay stress =        0.00 kB


 VOLUME and BASIS-vectors are now :
 -----------------------------------------------------------------------------
  energy-cutoff  :      500.00
  volume of cell :     1734.10
      direct lattice vectors                 reciprocal lattice vectors
     8.791366577  0.000000000  0.000000000     0.113747958 -0.065672414  0.000000000
     4.395683289  7.613546790  0.000000000     0.000000000  0.131344829  0.000000000
     0.000000000  0.000000000 25.907840602     0.000000000  0.000000000  0.038598354

  length of vectors
     8.791366577  8.791366577 25.907840602     0.131344829  0.131344829  0.038598354


 FORCES acting on ions
    electron-ion (+dipol)            ewald-force                    non-local-force                 convergence-correction
 -----------------------------------------------------------------------------------------------
   -.208E-02 0.246E+00 0.282E+04   -.123E-01 -.257E+00 -.282E+04   0.570E-02 0.431E-02 -.206E+01   0.684E-02 0.155E-01 -.342E-01
   0.207E+00 0.589E+00 0.282E+04   -.408E+00 -.698E+00 -.282E+04   0.159E+00 0.143E+00 -.163E+01   0.387E-01 -.249E-01 -.518E-01
   -.196E+00 0.564E+00 0.282E+04   0.421E+00 -.677E+00 -.282E+04   -.172E+00 0.146E+00 -.163E+01   -.478E-01 -.218E-01 -.480E-01
   0.479E+00 -.578E-01 0.282E+04   -.592E+00 -.859E-01 -.282E+04   0.128E+00 0.314E-01 -.143E+01   -.647E-02 0.102E+00 -.338E-02
   -.246E-02 -.536E-01 0.283E+04   0.245E-01 0.545E-01 -.282E+04   -.217E-01 -.235E-01 -.158E+01   0.235E-02 0.260E-01 -.756E-02
   -.468E+00 -.657E-01 0.282E+04   0.567E+00 -.865E-01 -.282E+04   -.125E+00 0.401E-01 -.139E+01   0.131E-01 0.104E+00 -.344E-02
   0.119E+00 -.555E+00 0.282E+04   -.163E+00 0.786E+00 -.282E+04   0.126E+00 -.166E+00 -.162E+01   -.770E-01 -.700E-01 -.449E-01
   -.140E+00 -.577E+00 0.282E+04   0.174E+00 0.765E+00 -.282E+04   -.116E+00 -.141E+00 -.160E+01   0.806E-01 -.559E-01 -.452E-01
   -.256E-02 -.100E+00 0.282E+04   -.113E-01 0.200E+00 -.282E+04   0.236E-01 -.249E-01 -.190E+01   -.111E-01 -.736E-01 -.616E-01
   0.547E+01 0.492E+01 0.100E+04   -.494E+01 -.471E+01 -.100E+04   -.501E+00 -.269E+00 -.950E+00   -.192E-01 0.513E-01 0.333E+00
   -.158E+00 0.621E+01 0.101E+04   0.139E+00 -.637E+01 -.101E+04   0.160E-01 0.121E+00 -.197E+00   0.160E-02 0.149E-01 0.371E+00
   -.529E+01 0.484E+01 0.100E+04   0.480E+01 -.460E+01 -.100E+04   0.450E+00 -.295E+00 -.939E+00   0.294E-01 0.398E-01 0.342E+00
   0.365E+01 -.376E+01 0.101E+04   -.393E+01 0.384E+01 -.101E+04   0.267E+00 -.799E-01 -.357E+00   -.330E-01 0.205E-01 0.333E+00
   -.383E+01 -.369E+01 0.101E+04   0.409E+01 0.377E+01 -.101E+04   -.253E+00 -.726E-01 -.335E+00   0.410E-01 0.159E-01 0.326E+00
   0.119E+00 -.176E+00 0.100E+04   -.157E+00 0.760E-01 -.100E+04   0.347E-01 0.218E-01 -.638E+00   0.358E-02 0.523E-01 0.298E+00
   0.329E-02 -.634E+01 0.100E+04   0.286E-01 0.598E+01 -.100E+04   -.267E-01 0.396E+00 -.854E+00   -.802E-02 -.305E-01 0.343E+00
   0.113E+01 -.931E+00 0.100E+04   -.133E+01 0.927E+00 -.100E+04   0.932E-01 0.885E-01 -.735E+00   0.502E-01 -.698E-01 0.323E+00
   -.110E+01 -.105E+01 0.100E+04   0.130E+01 0.109E+01 -.100E+04   -.109E+00 0.464E-01 -.737E+00   -.433E-01 -.758E-01 0.328E+00
   0.110E+01 0.286E+01 -.826E+03   -.101E+01 -.285E+01 0.825E+03   -.747E-01 -.560E-01 -.219E-01   -.861E-02 0.284E-01 0.404E+00
   0.247E+01 0.801E+01 -.806E+03   -.117E+01 -.728E+01 0.806E+03   -.146E+01 -.776E+00 -.995E+00   0.849E-01 0.678E-01 0.595E+00
   -.325E+01 0.732E+01 -.809E+03   0.208E+01 -.664E+01 0.809E+03   0.136E+01 -.757E+00 -.102E+01   -.819E-01 0.617E-01 0.608E+00
   -.267E+01 -.122E+02 -.839E+03   0.203E+01 0.123E+02 0.838E+03   0.615E+00 -.145E+00 0.483E+00   0.264E-01 -.537E-01 0.351E+00
   -.958E+00 -.162E+02 -.817E+03   0.102E+01 0.146E+02 0.818E+03   -.545E-01 0.179E+01 -.103E+01   -.811E-02 -.113E+00 0.569E+00
   0.357E+01 -.113E+02 -.840E+03   -.305E+01 0.114E+02 0.840E+03   -.510E+00 -.151E+00 0.473E+00   -.290E-01 -.552E-01 0.353E+00
   0.342E+01 0.838E+01 -.855E+03   -.326E+01 -.825E+01 0.854E+03   -.563E-01 -.852E-01 0.379E+00   -.226E-01 0.754E-03 0.393E+00
   -.312E+01 0.944E+01 -.855E+03   0.301E+01 -.928E+01 0.854E+03   0.292E-01 -.110E+00 0.372E+00   0.644E-02 0.207E-02 0.394E+00
   -.266E+00 0.367E+01 -.849E+03   0.255E+00 -.415E+01 0.848E+03   0.164E-01 0.458E+00 0.973E+00   -.553E-02 0.447E-01 0.389E+00
   0.162E+01 0.129E+03 -.260E+04   -.158E+01 -.131E+03 0.260E+04   -.264E-01 0.132E+01 0.225E+01   -.277E-02 0.184E-01 0.242E+00
   -.821E+01 0.737E+02 -.268E+04   0.839E+01 -.745E+02 0.268E+04   -.456E+00 0.113E+00 0.247E+01   0.143E+00 0.218E+00 0.223E+00
   0.709E+01 0.652E+02 -.269E+04   -.738E+01 -.656E+02 0.268E+04   0.547E+00 -.140E+00 0.237E+01   -.151E+00 0.211E+00 0.216E+00
   -.567E+02 -.629E+02 -.259E+04   0.578E+02 0.636E+02 0.258E+04   -.129E+01 -.458E+00 0.187E+01   0.237E+00 -.569E-02 0.198E+00
   0.700E+02 -.629E+02 -.259E+04   -.716E+02 0.636E+02 0.259E+04   0.168E+01 -.470E+00 0.164E+01   -.245E+00 -.823E-02 0.189E+00
   0.176E+02 -.469E+02 -.270E+04   -.179E+02 0.472E+02 0.269E+04   -.534E-01 0.263E+00 0.206E+01   0.936E-01 -.222E+00 0.230E+00
   -.188E+02 -.392E+02 -.270E+04   0.190E+02 0.392E+02 0.270E+04   0.130E+00 0.512E+00 0.194E+01   -.108E+00 -.226E+00 0.227E+00
   0.166E+01 -.427E+02 -.269E+04   -.159E+01 0.435E+02 0.269E+04   -.601E-01 -.582E+00 0.235E+01   -.843E-02 0.882E-02 0.254E+00
   -.177E+02 -.125E+02 -.168E+04   0.179E+02 0.127E+02 0.168E+04   -.456E-01 -.683E-01 0.175E+01   -.432E-02 -.124E-01 0.308E+00
   -.269E+01 -.367E+01 -.186E+04   0.479E+00 0.257E+01 0.189E+04   0.218E+01 0.109E+01 -.328E+02   0.346E-01 0.142E-01 -.305E+00
   0.248E+01 0.357E+01 -.181E+04   -.189E+01 -.602E+01 0.179E+04   -.589E+00 0.247E+01 0.263E+02   -.667E-03 -.120E-01 -.774E-02
   0.143E+01 -.407E+01 -.368E+03   -.153E+01 0.450E+01 0.376E+03   0.965E-01 -.430E+00 -.812E+01   0.130E-03 0.425E-03 -.232E-02
 -----------------------------------------------------------------------------------------------
   -.194E+01 -.378E+01 0.833E+01   0.717E-13 0.400E-13 0.921E-11   0.196E+01 0.374E+01 -.168E+02   -.280E-01 -.118E-01 0.853E+01
 
 
 POSITION                                       TOTAL-FORCE (eV/Angst)
 -----------------------------------------------------------------------------------
      0.00000      0.00000      5.28219        -0.001674      0.010082     -0.042788
      2.93046      0.00000      5.28219        -0.003534      0.009750      0.031039
      5.86091      0.00000      5.28219         0.005711      0.011978      0.032160
      1.46523      2.53785      5.28219         0.009393     -0.009205      0.006235
      4.39568      2.53785      5.28219         0.002896      0.004432     -0.002467
      7.32614      2.53785      5.28219        -0.012572     -0.007012      0.009998
      2.93046      5.07570      5.28219         0.005280     -0.003747      0.023122
      5.86091      5.07570      5.28219        -0.001393     -0.007547      0.024401
      8.79137      5.07570      5.28219        -0.001151      0.001911      0.015396
      1.46523      0.84595      7.67490         0.007034     -0.005637     -0.015407
      4.39568      0.84595      7.67490        -0.001242     -0.027485     -0.051046
      7.32614      0.84595      7.67490        -0.004200     -0.009011     -0.028277
      2.93046      3.38380      7.67490        -0.042993      0.025275     -0.071568
      5.86091      3.38380      7.67490         0.048910      0.027342     -0.062454
      8.79137      3.38380      7.67490         0.000745     -0.024819     -0.017861
      4.39568      5.92165      7.67490        -0.002672      0.004466     -0.010847
      7.32614      5.92165      7.67490        -0.050436      0.015257      0.019633
     10.25659      5.92165      7.67490         0.050330      0.011508      0.019318
      8.79137      1.69824     10.07044         0.002312     -0.011255     -0.116794
      2.93075      1.69207     10.02201        -0.073332      0.022703     -0.036561
      5.86061      1.69207     10.02201         0.107369     -0.004099     -0.079315
     10.25044      4.23330     10.05478         0.003020     -0.069334      0.023154
      4.39568      4.22940     10.02201        -0.001675      0.047297     -0.170430
      7.33230      4.23330     10.05478        -0.015000     -0.070405      0.016260
     11.71633      6.76443     10.07044         0.075674      0.046165      0.047753
      5.86640      6.76443     10.07044        -0.078773      0.046049      0.055500
      8.79137      6.76048     10.05478         0.000418      0.020154     -0.027938
      0.00000      0.00000     12.42728         0.004147     -0.495100      0.044207
      2.96092      0.05748     12.44843        -0.131735     -0.483709     -0.220295
      5.83045      0.05748     12.44843         0.114844     -0.417152     -0.221178
      1.53024      2.53549     12.44843         0.078675      0.222549     -0.095384
      7.26113      2.53549     12.44843        -0.230226      0.207125     -0.065514
      2.96500      5.02058     12.44843        -0.215737      0.370732     -0.216563
      5.82636      5.02058     12.44843         0.209890      0.308325     -0.216481
      8.79137      5.07570     12.42122         0.003005      0.184329     -0.043778
      4.39568      2.53785     12.20312         0.132923      0.047838      1.526290
      4.25413      2.46888     13.93326         0.006108      0.000780     -0.072583
      8.78839      1.74537     13.94299         0.001286      0.002722     -0.006724
      8.77644      1.79766     14.91454        -0.001626     -0.003251     -0.002213
 -----------------------------------------------------------------------------------
    total drift:                               -0.008369     -0.042580      0.013318


--------------------------------------------------------------------------------------------------------



  FREE ENERGIE OF THE ION-ELECTRON SYSTEM (eV)
  ---------------------------------------------------
  free  energy   TOTEN  =      -114.41683688 eV

  energy  without entropy=     -114.41683688  energy(sigma->0) =     -114.41683688
 


--------------------------------------------------------------------------------------------------------


    POTLOK:  cpu time    0.0606: real time    0.0606


--------------------------------------------------------------------------------------------------------


 stress matrix after NEB project (eV)
     -5.04008     -0.08233     -0.10305
     -0.08233     -5.23914     -0.00978
     -0.10305     -0.00978      0.07437
  FORCES: max atom, RMS     0.072844    0.011744
  FORCE total and by dimension    0.073339    0.072583
  Stress total and by dimension    7.272650    5.239136
     LOOP+:  cpu time  263.4593: real time  263.4721
 -----------------------------------------------------------------------------
|                                                                             |
|           W    W    AA    RRRRR   N    N  II  N    N   GGGG   !!!           |
|           W    W   A  A   R    R  NN   N  II  NN   N  G    G  !!!           |
|           W    W  A    A  R    R  N N  N  II  N N  N  G       !!!           |
|           W WW W  AAAAAA  RRRRR   N  N N  II  N  N N  G  GGG   !            |
|           WW  WW  A    A  R   R   N   NN  II  N   NN  G    G                |
|           W    W  A    A  R    R  N    N  II  N    N   GGGG   !!!           |
|                                                                             |
|     Tetrahedron method does not include variations of the Fermi             |
|     occupations, so forces and stress will be inaccurate. We suggest        |
|     using a different smearing scheme ISMEAR = 1 or 2 for metals in         |
|     relaxations.                                                            |
|                                                                             |
 -----------------------------------------------------------------------------

    4ORBIT:  cpu time    0.0000: real time    0.0000



 total charge

# of ion       s       p       d       tot
------------------------------------------
    1        0.418   0.201   9.179   9.798
    2        0.417   0.204   9.178   9.798
    3        0.417   0.204   9.177   9.798
    4        0.419   0.203   9.177   9.798
    5        0.420   0.203   9.175   9.798
    6        0.418   0.203   9.177   9.798
    7        0.416   0.203   9.178   9.797
    8        0.416   0.203   9.178   9.797
    9        0.411   0.204   9.178   9.793
   10        0.412   0.267   9.163   9.842
   11        0.404   0.274   9.165   9.843
   12        0.414   0.266   9.164   9.843
   13        0.405   0.272   9.167   9.844
   14        0.404   0.273   9.167   9.844
   15        0.405   0.266   9.167   9.839
   16        0.412   0.268   9.162   9.842
   17        0.401   0.271   9.164   9.836
   18        0.401   0.271   9.164   9.836
   19        0.411   0.263   9.166   9.840
   20        0.430   0.312   9.135   9.878
   21        0.434   0.309   9.136   9.879
   22        0.393   0.276   9.165   9.834
   23        0.442   0.302   9.141   9.885
   24        0.393   0.276   9.165   9.834
   25        0.401   0.268   9.165   9.833
   26        0.400   0.269   9.164   9.833
   27        0.393   0.270   9.173   9.836
   28        0.376   0.223   9.191   9.791
   29        0.399   0.211   9.191   9.801
   30        0.400   0.213   9.188   9.801
   31        0.368   0.244   9.195   9.807
   32        0.373   0.249   9.186   9.808
   33        0.403   0.216   9.183   9.802
   34        0.405   0.218   9.180   9.802
   35        0.409   0.191   9.190   9.790
   36        0.657   0.601   5.976   7.234
   37        1.607   3.268   0.000   4.876
   38        1.556   3.493   0.000   5.048
   39        0.616   0.120   0.000   0.736
--------------------------------------------------
tot         18.676  16.045 326.972 361.693
 
 BZINTS: Fermi energy:    0.158249;  406.000000 electrons
         Band energy:-0.165934E+04;  BLOECHL correction:   -0.035938

 total amount of memory used by VASP MPI-rank0   291418. kBytes
=======================================================================

   base      :      30000. kBytes
   nonlr-proj:      15348. kBytes
   fftplans  :       4948. kBytes
   grid      :      21313. kBytes
   one-center:        606. kBytes
   wavefun   :     219203. kBytes
 
  
  
 General timing and accounting informations for this job:
 ========================================================
  
                  Total CPU time used (sec):      287.546
                            User time (sec):      277.600
                          System time (sec):        9.946
                         Elapsed time (sec):      287.989
  
                   Maximum memory used (kb):      601168.
                   Average memory used (kb):          N/A
  
                          Minor page faults:       126173
                          Major page faults:            0
                 Voluntary context switches:        12853
