PROCAR new format
# of k-points:   10         # of bands:  252         # of ions:   37

 k-point     1 :    0.00000000 0.00000000 0.00000000     weight = 0.01562500

band     1 # energy  -12.89098469 # occ.  2.00000000
 
ion      s      p      d    tot
    1  0.000  0.000  0.000  0.000
    2  0.000  0.000  0.000  0.000
    3  0.000  0.000  0.000  0.000
    4  0.000  0.000  0.000  0.000
    5  0.000  0.000  0.000  0.000
    6  0.000  0.000  0.000  0.000
    7  0.000  0.000  0.000  0.000
    8  0.000  0.000  0.000  0.000
    9  0.000  0.000  0.000  0.000
   10  0.000  0.000  0.000  0.000
   11  0.000  0.000  0.000  0.000
   12  0.000  0.000  0.000  0.000
   13  0.000  0.000  0.000  0.000
   14  0.000  0.000  0.000  0.000
   15  0.000  0.000  0.000  0.000
   16  0.000  0.000  0.000  0.000
   17  0.000  0.000  0.000  0.000
   18  0.000  0.000  0.000  0.000
   19  0.000  0.000  0.000  0.000
   20  0.000  0.000  0.000  0.001
   21  0.000  0.000  0.000  0.001
   22  0.000  0.000  0.000  0.000
   23  0.000  0.000  0.000  0.001
   24  0.000  0.000  0.000  0.000
   25  0.000  0.000  0.000  0.000
   26  0.000  0.000  0.000  0.000
   27  0.000  0.000  0.000  0.000
   28  0.000  0.000  0.000  0.000
   29  0.000  0.000  0.000  0.000
   30  0.000  0.000  0.000  0.000
   31  0.000  0.000  0.000  0.000
   32  0.000  0.000  0.000  0.000
   33  0.000  0.000  0.000  0.000
   34  0.000  0.000  0.000  0.000
   35  0.000  0.000  0.000  0.000
   36  0.063  0.059  0.160  0.283
   37  0.631  0.014  0.000  0.646
tot    0.696  0.075  0.161  0.932
 
band     2 # energy   -8.79352054 # occ.  2.00000000
 
ion      s      p      d    tot
    1  0.007  0.001  0.000  0.007
    2  0.007  0.001  0.000  0.007
    3  0.007  0.001  0.000  0.007
    4  0.007  0.001  0.000  0.007
    5  0.007  0.001  0.000  0.007
    6  0.007  0.001  0.000  0.007
    7  0.007  0.001  0.000  0.007
    8  0.007  0.001  0.000  0.007
    9  0.007  0.001  0.000  0.007
   10  0.025  0.000  0.000  0.025
   11  0.025  0.000  0.000  0.025
   12  0.025  0.000  0.000  0.025
   13  0.025  0.000  0.000  0.025
   14  0.025  0.000  0.000  0.025
   15  0.024  0.000  0.000  0.025
   16  0.025  0.000  0.000  0.025
   17  0.024  0.000  0.000  0.025
   18  0.024  0.000  0.000  0.025
   19  0.025  0.000  0.000  0.025
   20  0.025  0.000  0.000  0.025
   21  0.025  0.000  0.000  0.025
   22  0.024  0.000  0.000  0.024
   23  0.025  0.000  0.000  0.025
   24  0.024  0.000  0.000  0.024
   25  0.025  0.000  0.000  0.025
   26  0.025  0.000  0.000  0.025
   27  0.024  0.000  0.000  0.024
   28  0.007  0.001  0.000  0.008
   29  0.006  0.001  0.000  0.007
   30  0.006  0.001  0.000  0.007
   31  0.006  0.001  0.000  0.007
   32  0.006  0.001  0.000  0.007
   33  0.006  0.001  0.000  0.007
   34  0.006  0.001  0.000  0.007
   35  0.007  0.001  0.000  0.007
   36  0.006  0.002  0.000  0.008
   37  0.002  0.000  0.000  0.002
tot    0.563  0.018  0.002  0.583
 
band     3 # energy   -7.49445943 # occ.  2.00000000
 
ion      s      p      d    tot
    1  0.018  0.001  0.000  0.019
    2  0.018  0.001  0.001  0.019
    3  0.018  0.001  0.001  0.019
    4  0.018  0.001  0.001  0.019
    5  0.018  0.001  0.000  0.019
    6  0.018  0.001  0.001  0.019
    7  0.018  0.001  0.001  0.019
    8  0.018  0.001  0.001  0.019
    9  0.018  0.001  0.001  0.019
   10  0.010  0.002  0.001  0.013
   11  0.010  0.002  0.001  0.013
   12  0.010  0.002  0.001  0.013
   13  0.010  0.002  0.001  0.013
   14  0.010  0.002  0.001  0.013
   15  0.010  0.002  0.001  0.012
   16  0.010  0.002  0.001  0.013
   17  0.010  0.002  0.001  0.012
   18  0.010  0.002  0.001  0.012
   19  0.011  0.002  0.001  0.014
   20  0.009  0.002  0.001  0.011
   21  0.009  0.002  0.001  0.011
   22  0.011  0.002  0.001  0.014
   23  0.009  0.002  0.001  0.011
   24  0.011  0.002  0.001  0.014
   25  0.011  0.002  0.001  0.014
   26  0.011  0.002  0.001  0.014
   27  0.011  0.002  0.001  0.014
   28  0.020  0.001  0.001  0.022
   29  0.019  0.001  0.001  0.020
   30  0.019  0.001  0.001  0.020
   31  0.019  0.001  0.001  0.020
   32  0.019  0.001  0.001  0.020
   33  0.019  0.001  0.001  0.020
   34  0.019  0.001  0.001  0.020
   35  0.020  0.001  0.001  0.021
   36  0.014  0.002  0.005  0.021
   37  0.001  0.000  0.000  0.001
tot    0.508  0.055  0.024  0.587
 
band     4 # energy   -5.96478868 # occ.  2.00000000
 
ion      s      p      d    tot
    1  0.014  0.000  0.004  0.018
    2  0.013  0.000  0.005  0.017
    3  0.013  0.000  0.005  0.018
    4  0.013  0.000  0.005  0.017
    5  0.005  0.000  0.005  0.011
    6  0.013  0.000  0.005  0.017
    7  0.013  0.000  0.005  0.018
    8  0.013  0.000  0.005  0.017
    9  0.023  0.000  0.003  0.026
   10  0.002  0.003  0.002  0.007
   11  0.011  0.005  0.001  0.017
   12  0.002  0.003  0.002  0.007
   13  0.011  0.005  0.001  0.017
   14  0.011  0.005  0.001  0.017
   15  0.000  0.002  0.003  0.006
   16  0.002  0.003  0.002  0.007
   17  0.000  0.002  0.003  0.006
   18  0.000  0.002  0.003  0.006
   19  0.001  0.002  0.006  0.009
   20  0.023  0.005  0.005  0.033
   21  0.023  0.005  0.005  0.033
   22  0.000  0.004  0.004  0.008
   23  0.023  0.005  0.005  0.033
   24  0.000  0.004  0.004  0.008
   25  0.001  0.002  0.006  0.009
   26  0.001  0.002  0.006  0.009
   27  0.000  0.004  0.004  0.008
   28  0.021  0.000  0.005  0.026
   29  0.016  0.000  0.008  0.024
   30  0.016  0.000  0.008  0.024
   31  0.016  0.000  0.008  0.024
   32  0.016  0.000  0.008  0.024
   33  0.016  0.000  0.008  0.024
   34  0.016  0.000  0.008  0.024
   35  0.026  0.000  0.005  0.031
   36  0.002  0.002  0.032  0.036
   37  0.000  0.004  0.000  0.004
tot    0.376  0.073  0.191  0.640
 
band     5 # energy   -5.85582114 # occ.  2.00000000
 
ion      s      p      d    tot
    1  0.000  0.002  0.005  0.007
    2  0.008  0.002  0.002  0.013
    3  0.002  0.001  0.002  0.004
    4  0.008  0.002  0.002  0.013
    5  0.000  0.002  0.003  0.005
    6  0.003  0.001  0.002  0.006
    7  0.002  0.001  0.002  0.004
    8  0.003  0.001  0.002  0.006
    9  0.000  0.000  0.002  0.002
   10  0.055  0.004  0.004  0.063
   11  0.006  0.009  0.004  0.019
   12  0.014  0.002  0.011  0.027
   13  0.006  0.009  0.004  0.019
   14  0.024  0.000  0.006  0.030
   15  0.002  0.004  0.007  0.013
   16  0.014  0.002  0.011  0.028
   17  0.002  0.004  0.007  0.013
   18  0.006  0.003  0.003  0.012
   19  0.007  0.010  0.004  0.021
   20  0.068  0.004  0.006  0.077
   21  0.017  0.002  0.016  0.035
   22  0.001  0.005  0.008  0.014
   23  0.017  0.002  0.016  0.035
   24  0.006  0.003  0.003  0.012
   25  0.029  0.000  0.007  0.037
   26  0.007  0.010  0.004  0.021
   27  0.001  0.005  0.008  0.014
   28  0.000  0.003  0.004  0.007
   29  0.011  0.003  0.004  0.018
   30  0.005  0.001  0.003  0.009
   31  0.011  0.003  0.004  0.018
   32  0.001  0.001  0.004  0.006
   33  0.005  0.001  0.003  0.009
   34  0.001  0.001  0.004  0.006
   35  0.000  0.000  0.003  0.003
   36  0.000  0.004  0.019  0.023
   37  0.000  0.001  0.000  0.001
tot    0.341  0.113  0.195  0.648
 
band     6 # energy   -5.85570487 # occ.  2.00000000
 
ion      s      p      d    tot
    1  0.000  0.002  0.005  0.007
    2  0.000  0.001  0.002  0.002
    3  0.007  0.002  0.002  0.011
    4  0.000  0.001  0.002  0.002
    5  0.000  0.002  0.003  0.005
    6  0.006  0.002  0.002  0.009
    7  0.007  0.002  0.002  0.011
    8  0.006  0.002  0.002  0.009
    9  0.000  0.000  0.002  0.002
   10  0.000  0.002  0.014  0.015
   11  0.018  0.003  0.005  0.027
   12  0.042  0.004  0.006  0.051
   13  0.018  0.003  0.005  0.027
   14  0.000  0.012  0.003  0.015
   15  0.005  0.003  0.004  0.012
   16  0.041  0.004  0.006  0.051
   17  0.005  0.003  0.004  0.012
   18  0.000  0.005  0.008  0.013
   19  0.022  0.004  0.006  0.032
   20  0.000  0.002  0.019  0.021
   21  0.051  0.003  0.009  0.063
   22  0.004  0.004  0.005  0.012
   23  0.051  0.003  0.009  0.063
   24  0.000  0.006  0.009  0.015
   25  0.000  0.013  0.002  0.016
   26  0.022  0.004  0.006  0.032
   27  0.004  0.004  0.005  0.012
   28  0.000  0.003  0.004  0.007
   29  0.000  0.001  0.003  0.004
   30  0.007  0.002  0.004  0.013
   31  0.000  0.001  0.003  0.004
   32  0.010  0.003  0.003  0.016
   33  0.006  0.002  0.004  0.013
   34  0.010  0.003  0.003  0.016
   35  0.000  0.000  0.003  0.003
   36  0.000  0.004  0.019  0.023
   37  0.000  0.001  0.000  0.001
tot    0.341  0.113  0.195  0.648
 
band     7 # energy   -5.80637791 # occ.  2.00000000
 
ion      s      p      d    tot
    1  0.000  0.001  0.002  0.003
    2  0.009  0.002  0.002  0.014
    3  0.002  0.001  0.002  0.005
    4  0.009  0.002  0.002  0.014
    5  0.000  0.001  0.004  0.005
    6  0.003  0.001  0.002  0.006
    7  0.002  0.001  0.002  0.005
    8  0.003  0.001  0.002  0.006
    9  0.000  0.003  0.005  0.008
   10  0.000  0.011  0.003  0.014
   11  0.026  0.003  0.005  0.034
   12  0.001  0.003  0.005  0.009
   13  0.026  0.003  0.005  0.034
   14  0.000  0.000  0.015  0.015
   15  0.038  0.004  0.006  0.048
   16  0.001  0.003  0.005  0.009
   17  0.038  0.004  0.006  0.047
   18  0.000  0.008  0.008  0.016
   19  0.026  0.004  0.006  0.036
   20  0.000  0.014  0.001  0.015
   21  0.003  0.004  0.005  0.012
   22  0.044  0.004  0.006  0.054
   23  0.003  0.004  0.005  0.012
   24  0.000  0.008  0.009  0.017
   25  0.000  0.000  0.016  0.017
   26  0.026  0.004  0.006  0.035
   27  0.044  0.004  0.006  0.054
   28  0.000  0.001  0.005  0.007
   29  0.013  0.003  0.003  0.019
   30  0.004  0.002  0.004  0.009
   31  0.013  0.003  0.003  0.019
   32  0.003  0.001  0.003  0.007
   33  0.004  0.002  0.004  0.009
   34  0.003  0.001  0.003  0.007
   35  0.000  0.004  0.006  0.010
   36  0.000  0.001  0.008  0.010
   37  0.000  0.000  0.000  0.000
tot    0.343  0.116  0.180  0.638
 
band     8 # energy   -5.80627574 # occ.  2.00000000
 
ion      s      p      d    tot
    1  0.000  0.001  0.002  0.003
    2  0.000  0.001  0.002  0.003
    3  0.007  0.002  0.002  0.011
    4  0.000  0.001  0.002  0.003
    5  0.000  0.001  0.004  0.005
    6  0.006  0.002  0.002  0.010
    7  0.007  0.002  0.002  0.012
    8  0.006  0.002  0.002  0.010
    9  0.000  0.003  0.005  0.008
   10  0.002  0.001  0.005  0.008
   11  0.009  0.001  0.012  0.021
   12  0.000  0.008  0.003  0.012
   13  0.009  0.001  0.012  0.022
   14  0.034  0.004  0.002  0.041
   15  0.012  0.006  0.007  0.026
   16  0.000  0.008  0.003  0.012
   17  0.013  0.006  0.007  0.027
   18  0.051  0.002  0.005  0.058
   19  0.009  0.001  0.013  0.023
   20  0.003  0.001  0.006  0.011
   21  0.001  0.010  0.003  0.014
   22  0.015  0.007  0.008  0.030
   23  0.001  0.010  0.003  0.014
   24  0.059  0.003  0.005  0.066
   25  0.035  0.005  0.002  0.041
   26  0.009  0.001  0.013  0.023
   27  0.015  0.007  0.008  0.029
   28  0.000  0.001  0.005  0.007
   29  0.000  0.001  0.003  0.004
   30  0.010  0.002  0.003  0.014
   31  0.000  0.001  0.003  0.005
   32  0.010  0.003  0.003  0.016
   33  0.010  0.002  0.003  0.015
   34  0.010  0.003  0.003  0.016
   35  0.000  0.004  0.006  0.010
   36  0.000  0.001  0.008  0.010
   37  0.000  0.000  0.000  0.000
tot    0.343  0.116  0.180  0.638
 
band     9 # energy   -5.79948302 # occ.  2.00000000
 
ion      s      p      d    tot
    1  0.020  0.003  0.001  0.024
    2  0.000  0.002  0.004  0.006
    3  0.000  0.002  0.004  0.006
    4  0.000  0.002  0.004  0.006
    5  0.002  0.000  0.000  0.003
    6  0.000  0.002  0.004  0.006
    7  0.000  0.002  0.004  0.006
    8  0.000  0.002  0.004  0.006
    9  0.008  0.001  0.000  0.009
   10  0.030  0.006  0.005  0.042
   11  0.007  0.000  0.011  0.018
   12  0.031  0.006  0.005  0.042
   13  0.007  0.000  0.011  0.018
   14  0.007  0.000  0.011  0.018
   15  0.009  0.007  0.004  0.020
   16  0.031  0.006  0.005  0.042
   17  0.009  0.007  0.004  0.020
   18  0.009  0.007  0.004  0.020
   19  0.024  0.009  0.002  0.036
   20  0.000  0.003  0.011  0.014
   21  0.000  0.003  0.011  0.014
   22  0.023  0.002  0.010  0.034
   23  0.000  0.003  0.011  0.014
   24  0.023  0.002  0.010  0.034
   25  0.025  0.009  0.002  0.036
   26  0.024  0.009  0.002  0.036
   27  0.023  0.002  0.010  0.034
   28  0.019  0.003  0.001  0.023
   29  0.000  0.002  0.004  0.006
   30  0.000  0.002  0.004  0.006
   31  0.000  0.002  0.004  0.006
   32  0.000  0.002  0.004  0.006
   33  0.000  0.002  0.004  0.006
   34  0.000  0.002  0.004  0.006
   35  0.013  0.002  0.001  0.016
   36  0.000  0.000  0.000  0.001
   37  0.000  0.000  0.000  0.000
tot    0.344  0.114  0.182  0.640
 
band    10 # energy   -5.72789768 # occ.  2.00000000
 
ion      s      p      d    tot
    1  0.001  0.000  0.001  0.002
    2  0.003  0.002  0.006  0.010
    3  0.003  0.002  0.006  0.010
    4  0.003  0.002  0.006  0.010
    5  0.037  0.003  0.000  0.040
    6  0.003  0.002  0.006  0.010
    7  0.003  0.002  0.006  0.010
    8  0.003  0.002  0.006  0.010
    9  0.003  0.002  0.004  0.010
   10  0.002  0.004  0.009  0.015
   11  0.016  0.009  0.004  0.028
   12  0.002  0.004  0.009  0.015
   13  0.016  0.009  0.004  0.028
   14  0.016  0.009  0.004  0.029
   15  0.030  0.002  0.009  0.042
   16  0.002  0.004  0.009  0.015
   17  0.030  0.002  0.009  0.042
   18  0.030  0.002  0.009  0.042
   19  0.007  0.002  0.009  0.018
   20  0.017  0.004  0.007  0.028
   21  0.017  0.004  0.007  0.028
   22  0.011  0.007  0.003  0.022
   23  0.017  0.004  0.007  0.028
   24  0.011  0.007  0.003  0.022
   25  0.007  0.002  0.009  0.018
   26  0.007  0.002  0.009  0.018
   27  0.011  0.007  0.003  0.022
   28  0.001  0.000  0.003  0.005
   29  0.003  0.001  0.004  0.008
   30  0.003  0.001  0.004  0.008
   31  0.003  0.001  0.004  0.008
   32  0.003  0.001  0.004  0.008
   33  0.003  0.001  0.004  0.008
   34  0.003  0.001  0.004  0.008
   35  0.000  0.001  0.002  0.003
   36  0.019  0.004  0.001  0.024
   37  0.002  0.000  0.000  0.002
tot    0.350  0.109  0.194  0.652
 
band    11 # energy   -5.12325769 # occ.  2.00000000
 
ion      s      p      d    tot
    1  0.008  0.000  0.010  0.018
    2  0.006  0.001  0.010  0.017
    3  0.006  0.001  0.010  0.017
    4  0.006  0.001  0.010  0.017
    5  0.000  0.002  0.011  0.013
    6  0.006  0.001  0.010  0.017
    7  0.006  0.001  0.010  0.017
    8  0.006  0.001  0.010  0.017
    9  0.018  0.000  0.007  0.025
   10  0.008  0.000  0.025  0.033
   11  0.014  0.001  0.020  0.035
   12  0.007  0.000  0.025  0.033
   13  0.014  0.001  0.020  0.035
   14  0.014  0.001  0.020  0.035
   15  0.002  0.000  0.021  0.024
   16  0.007  0.000  0.025  0.033
   17  0.002  0.000  0.021  0.024
   18  0.002  0.000  0.021  0.024
   19  0.003  0.000  0.016  0.019
   20  0.009  0.001  0.029  0.040
   21  0.009  0.001  0.029  0.040
   22  0.003  0.000  0.016  0.019
   23  0.009  0.001  0.029  0.040
   24  0.003  0.000  0.016  0.019
   25  0.003  0.000  0.016  0.019
   26  0.003  0.000  0.016  0.019
   27  0.003  0.000  0.016  0.019
   28  0.002  0.000  0.004  0.007
   29  0.003  0.000  0.006  0.009
   30  0.003  0.000  0.006  0.009
   31  0.003  0.000  0.006  0.009
   32  0.003  0.000  0.006  0.009
   33  0.003  0.000  0.006  0.009
   34  0.003  0.000  0.006  0.009
   35  0.005  0.000  0.004  0.010
   36  0.000  0.002  0.025  0.028
   37  0.001  0.005  0.000  0.007
tot    0.204  0.025  0.546  0.775
 
band    12 # energy   -5.10813075 # occ.  2.00000000
 
ion      s      p      d    tot
    1  0.000  0.002  0.009  0.012
    2  0.018  0.003  0.005  0.027
    3  0.002  0.002  0.004  0.008
    4  0.018  0.003  0.005  0.027
    5  0.000  0.001  0.009  0.010
    6  0.008  0.002  0.005  0.015
    7  0.002  0.002  0.004  0.008
    8  0.008  0.002  0.005  0.015
    9  0.000  0.005  0.008  0.013
   10  0.000  0.005  0.014  0.019
   11  0.007  0.002  0.009  0.018
   12  0.003  0.001  0.008  0.013
   13  0.007  0.002  0.009  0.018
   14  0.000  0.001  0.016  0.017
   15  0.020  0.003  0.008  0.031
   16  0.003  0.001  0.008  0.013
   17  0.020  0.003  0.008  0.031
   18  0.000  0.001  0.020  0.021
   19  0.006  0.004  0.010  0.020
   20  0.000  0.003  0.026  0.029
   21  0.000  0.001  0.014  0.015
   22  0.009  0.004  0.009  0.022
   23  0.000  0.001  0.014  0.015
   24  0.000  0.001  0.028  0.029
   25  0.000  0.000  0.010  0.010
   26  0.006  0.004  0.010  0.020
   27  0.009  0.004  0.009  0.022
   28  0.000  0.003  0.009  0.012
   29  0.024  0.003  0.009  0.036
   30  0.001  0.002  0.010  0.013
   31  0.024  0.003  0.009  0.036
   32  0.014  0.002  0.009  0.025
   33  0.001  0.002  0.010  0.013
   34  0.014  0.002  0.009  0.025
   35  0.000  0.006  0.008  0.014
   36  0.000  0.001  0.033  0.034
   37  0.000  0.000  0.000  0.000
tot    0.227  0.091  0.390  0.707
 
band    13 # energy   -5.10808203 # occ.  2.00000000
 
ion      s      p      d    tot
    1  0.000  0.002  0.009  0.012
    2  0.001  0.002  0.004  0.007
    3  0.017  0.003  0.005  0.025
    4  0.001  0.002  0.004  0.007
    5  0.000  0.001  0.009  0.010
    6  0.011  0.003  0.004  0.018
    7  0.017  0.003  0.005  0.025
    8  0.011  0.003  0.004  0.018
    9  0.000  0.005  0.008  0.013
   10  0.005  0.000  0.007  0.012
   11  0.002  0.002  0.013  0.017
   12  0.001  0.004  0.012  0.017
   13  0.002  0.002  0.013  0.017
   14  0.009  0.002  0.006  0.018
   15  0.007  0.002  0.016  0.025
   16  0.001  0.004  0.012  0.017
   17  0.007  0.002  0.016  0.025
   18  0.027  0.004  0.004  0.035
   19  0.002  0.001  0.010  0.013
   20  0.000  0.000  0.011  0.011
   21  0.000  0.002  0.022  0.024
   22  0.003  0.002  0.022  0.027
   23  0.000  0.002  0.022  0.024
   24  0.011  0.005  0.003  0.019
   25  0.008  0.005  0.010  0.023
   26  0.002  0.001  0.010  0.013
   27  0.003  0.002  0.022  0.027
   28  0.000  0.003  0.009  0.012
   29  0.002  0.002  0.010  0.014
   30  0.025  0.003  0.008  0.036
   31  0.002  0.002  0.010  0.014
   32  0.012  0.003  0.009  0.025
   33  0.025  0.003  0.009  0.036
   34  0.012  0.003  0.009  0.025
   35  0.000  0.006  0.008  0.014
   36  0.000  0.001  0.033  0.034
   37  0.000  0.000  0.000  0.000
tot    0.227  0.091  0.390  0.707
 
band    14 # energy   -5.06453239 # occ.  2.00000000
 
ion      s      p      d    tot
    1  0.000  0.004  0.009  0.013
    2  0.022  0.004  0.006  0.032
    3  0.003  0.002  0.005  0.010
    4  0.022  0.004  0.006  0.031
    5  0.000  0.006  0.010  0.016
    6  0.008  0.003  0.006  0.017
    7  0.003  0.002  0.005  0.010
    8  0.009  0.003  0.006  0.017
    9  0.000  0.000  0.012  0.012
   10  0.024  0.005  0.007  0.036
   11  0.004  0.003  0.020  0.027
   12  0.006  0.001  0.019  0.026
   13  0.004  0.003  0.020  0.027
   14  0.017  0.003  0.006  0.025
   15  0.000  0.003  0.014  0.017
   16  0.006  0.001  0.018  0.026
   17  0.000  0.003  0.014  0.017
   18  0.000  0.001  0.009  0.010
   19  0.001  0.002  0.020  0.023
   20  0.018  0.006  0.005  0.030
   21  0.004  0.002  0.024  0.030
   22  0.001  0.002  0.011  0.013
   23  0.005  0.002  0.024  0.030
   24  0.003  0.002  0.010  0.016
   25  0.004  0.001  0.005  0.010
   26  0.001  0.002  0.020  0.023
   27  0.001  0.002  0.011  0.013
   28  0.000  0.003  0.010  0.013
   29  0.017  0.004  0.007  0.027
   30  0.002  0.001  0.005  0.008
   31  0.017  0.004  0.007  0.027
   32  0.007  0.002  0.007  0.016
   33  0.002  0.001  0.005  0.009
   34  0.007  0.002  0.007  0.017
   35  0.000  0.000  0.010  0.010
   36  0.000  0.006  0.019  0.026
   37  0.000  0.001  0.000  0.001
tot    0.220  0.095  0.398  0.712
 
band    15 # energy   -5.06446286 # occ.  2.00000000
 
ion      s      p      d    tot
    1  0.000  0.004  0.009  0.013
    2  0.000  0.002  0.005  0.007
    3  0.019  0.004  0.006  0.029
    4  0.000  0.002  0.005  0.008
    5  0.000  0.006  0.010  0.016
    6  0.014  0.003  0.005  0.022
    7  0.019  0.004  0.006  0.029
    8  0.014  0.003  0.005  0.022
    9  0.000  0.000  0.012  0.012
   10  0.000  0.000  0.022  0.022
   11  0.013  0.003  0.010  0.026
   12  0.018  0.004  0.011  0.033
   13  0.013  0.003  0.010  0.026
   14  0.000  0.003  0.025  0.028
   15  0.000  0.001  0.010  0.012
   16  0.018  0.004  0.011  0.032
   17  0.000  0.001  0.010  0.012
   18  0.000  0.004  0.015  0.019
   19  0.003  0.001  0.010  0.015
   20  0.000  0.000  0.030  0.031
   21  0.014  0.005  0.011  0.030
   22  0.003  0.002  0.011  0.015
   23  0.014  0.005  0.012  0.030
   24  0.000  0.001  0.011  0.013
   25  0.000  0.002  0.025  0.027
   26  0.003  0.001  0.010  0.015
   27  0.003  0.002  0.011  0.015
   28  0.000  0.003  0.010  0.013
   29  0.000  0.001  0.006  0.008
   30  0.015  0.003  0.007  0.026
   31  0.001  0.001  0.006  0.008
   32  0.010  0.003  0.005  0.018
   33  0.015  0.003  0.007  0.026
   34  0.010  0.002  0.005  0.018
   35  0.000  0.000  0.010  0.010
   36  0.000  0.006  0.019  0.026
   37  0.000  0.001  0.000  0.001
tot    0.220  0.095  0.398  0.712
 
band    16 # energy   -5.04502948 # occ.  2.00000000
 
ion      s      p      d    tot
    1  0.034  0.003  0.000  0.037
    2  0.000  0.003  0.010  0.013
    3  0.000  0.003  0.010  0.013
    4  0.000  0.003  0.010  0.013
    5  0.000  0.000  0.000  0.001
    6  0.000  0.003  0.010  0.013
    7  0.000  0.003  0.010  0.013
    8  0.000  0.003  0.010  0.013
    9  0.028  0.004  0.001  0.033
   10  0.009  0.003  0.010  0.023
   11  0.001  0.000  0.015  0.017
   12  0.009  0.003  0.010  0.023
   13  0.001  0.000  0.015  0.017
   14  0.001  0.000  0.015  0.017
   15  0.008  0.004  0.016  0.027
   16  0.009  0.003  0.010  0.023
   17  0.008  0.004  0.016  0.027
   18  0.008  0.004  0.016  0.027
   19  0.004  0.003  0.019  0.026
   20  0.000  0.000  0.016  0.016
   21  0.000  0.000  0.016  0.016
   22  0.010  0.003  0.009  0.023
   23  0.000  0.000  0.016  0.016
   24  0.011  0.003  0.009  0.023
   25  0.004  0.003  0.019  0.026
   26  0.004  0.003  0.019  0.026
   27  0.010  0.003  0.009  0.023
   28  0.037  0.003  0.000  0.041
   29  0.000  0.003  0.012  0.015
   30  0.000  0.003  0.012  0.015
   31  0.000  0.003  0.012  0.015
   32  0.000  0.003  0.012  0.015
   33  0.000  0.003  0.012  0.015
   34  0.000  0.003  0.012  0.015
   35  0.028  0.003  0.001  0.032
   36  0.000  0.000  0.000  0.000
   37  0.000  0.000  0.000  0.000
tot    0.226  0.091  0.387  0.705
 
band    17 # energy   -4.89964811 # occ.  2.00000000
 
ion      s      p      d    tot
    1  0.012  0.002  0.001  0.014
    2  0.000  0.003  0.011  0.014
    3  0.000  0.003  0.011  0.014
    4  0.000  0.003  0.011  0.014
    5  0.045  0.003  0.000  0.048
    6  0.000  0.003  0.011  0.014
    7  0.000  0.003  0.011  0.014
    8  0.000  0.003  0.011  0.014
    9  0.005  0.001  0.001  0.007
   10  0.002  0.001  0.025  0.027
   11  0.004  0.004  0.019  0.027
   12  0.002  0.001  0.025  0.027
   13  0.004  0.004  0.019  0.027
   14  0.004  0.004  0.019  0.027
   15  0.005  0.001  0.010  0.016
   16  0.002  0.001  0.025  0.027
   17  0.005  0.001  0.010  0.016
   18  0.005  0.001  0.010  0.016
   19  0.011  0.001  0.021  0.033
   20  0.009  0.004  0.011  0.024
   21  0.009  0.004  0.011  0.024
   22  0.003  0.001  0.018  0.023
   23  0.009  0.004  0.011  0.024
   24  0.003  0.001  0.018  0.023
   25  0.011  0.001  0.021  0.033
   26  0.011  0.001  0.021  0.033
   27  0.003  0.001  0.018  0.023
   28  0.002  0.002  0.006  0.010
   29  0.001  0.002  0.011  0.014
   30  0.001  0.002  0.011  0.014
   31  0.001  0.002  0.011  0.014
   32  0.001  0.002  0.011  0.014
   33  0.001  0.002  0.011  0.014
   34  0.001  0.002  0.011  0.014
   35  0.002  0.001  0.003  0.006
   36  0.036  0.007  0.000  0.044
   37  0.002  0.002  0.000  0.004
tot    0.212  0.083  0.456  0.751
 
band    18 # energy   -4.47186288 # occ.  2.00000000
 
ion      s      p      d    tot
    1  0.000  0.001  0.026  0.027
    2  0.015  0.002  0.007  0.024
    3  0.006  0.001  0.007  0.015
    4  0.015  0.002  0.007  0.024
    5  0.000  0.001  0.013  0.014
    6  0.002  0.001  0.007  0.010
    7  0.006  0.001  0.007  0.014
    8  0.002  0.001  0.007  0.010
    9  0.000  0.003  0.004  0.007
   10  0.000  0.000  0.057  0.057
   11  0.000  0.003  0.015  0.018
   12  0.000  0.000  0.018  0.018
   13  0.000  0.003  0.015  0.018
   14  0.000  0.000  0.005  0.005
   15  0.000  0.005  0.014  0.019
   16  0.000  0.000  0.018  0.018
   17  0.000  0.005  0.015  0.020
   18  0.000  0.000  0.027  0.027
   19  0.004  0.003  0.012  0.019
   20  0.000  0.000  0.069  0.069
   21  0.000  0.000  0.029  0.029
   22  0.003  0.002  0.016  0.021
   23  0.000  0.000  0.028  0.029
   24  0.000  0.000  0.016  0.016
   25  0.000  0.000  0.019  0.019
   26  0.004  0.003  0.012  0.019
   27  0.003  0.002  0.016  0.021
   28  0.000  0.001  0.003  0.004
   29  0.007  0.000  0.020  0.027
   30  0.001  0.001  0.016  0.018
   31  0.007  0.000  0.020  0.028
   32  0.012  0.000  0.017  0.030
   33  0.001  0.001  0.016  0.018
   34  0.012  0.000  0.017  0.029
   35  0.000  0.001  0.011  0.012
   36  0.000  0.000  0.052  0.052
   37  0.000  0.002  0.000  0.002
tot    0.101  0.046  0.662  0.809
 
band    19 # energy   -4.47179949 # occ.  2.00000000
 
ion      s      p      d    tot
    1  0.000  0.001  0.026  0.027
    2  0.000  0.001  0.007  0.008
    3  0.009  0.001  0.007  0.018
    4  0.000  0.001  0.007  0.009
    5  0.000  0.001  0.013  0.014
    6  0.014  0.001  0.007  0.022
    7  0.009  0.001  0.007  0.018
    8  0.014  0.001  0.007  0.022
    9  0.000  0.003  0.004  0.007
   10  0.000  0.000  0.005  0.005
   11  0.000  0.001  0.008  0.009
   12  0.000  0.000  0.044  0.044
   13  0.000  0.001  0.008  0.009
   14  0.000  0.004  0.018  0.023
   15  0.000  0.002  0.023  0.025
   16  0.000  0.000  0.045  0.045
   17  0.000  0.002  0.023  0.025
   18  0.000  0.007  0.010  0.017
   19  0.001  0.001  0.016  0.019
   20  0.000  0.000  0.015  0.016
   21  0.000  0.000  0.055  0.055
   22  0.001  0.001  0.016  0.018
   23  0.000  0.000  0.056  0.056
   24  0.004  0.002  0.016  0.022
   25  0.005  0.004  0.010  0.019
   26  0.001  0.001  0.016  0.019
   27  0.001  0.001  0.016  0.018
   28  0.000  0.001  0.003  0.004
   29  0.006  0.001  0.016  0.023
   30  0.012  0.000  0.019  0.032
   31  0.006  0.001  0.016  0.022
   32  0.001  0.001  0.019  0.020
   33  0.012  0.000  0.019  0.032
   34  0.001  0.001  0.019  0.021
   35  0.000  0.001  0.011  0.012
   36  0.000  0.000  0.052  0.052
   37  0.000  0.002  0.000  0.002
tot    0.101  0.046  0.662  0.809
 
band    20 # energy   -4.36852613 # occ.  2.00000000
 
ion      s      p      d    tot
    1  0.002  0.000  0.001  0.002
    2  0.000  0.001  0.014  0.015
    3  0.000  0.001  0.014  0.015
    4  0.000  0.001  0.014  0.015
    5  0.012  0.000  0.000  0.013
    6  0.000  0.001  0.014  0.015
    7  0.000  0.001  0.014  0.015
    8  0.000  0.001  0.014  0.015
    9  0.023  0.001  0.001  0.025
   10  0.000  0.001  0.006  0.007
   11  0.000  0.000  0.018  0.018
   12  0.000  0.001  0.006  0.007
   13  0.000  0.000  0.018  0.018
   14  0.000  0.000  0.018  0.018
   15  0.000  0.003  0.031  0.034
   16  0.000  0.001  0.006  0.007
   17  0.000  0.003  0.031  0.034
   18  0.000  0.003  0.031  0.034
   19  0.000  0.001  0.022  0.023
   20  0.000  0.001  0.020  0.020
   21  0.000  0.001  0.020  0.020
   22  0.001  0.003  0.038  0.043
   23  0.000  0.001  0.020  0.020
   24  0.001  0.003  0.038  0.043
   25  0.000  0.001  0.022  0.023
   26  0.000  0.001  0.022  0.023
   27  0.001  0.003  0.038  0.043
   28  0.017  0.000  0.001  0.018
   29  0.000  0.002  0.027  0.029
   30  0.000  0.002  0.027  0.029
   31  0.000  0.002  0.027  0.029
   32  0.000  0.002  0.027  0.029
   33  0.000  0.002  0.027  0.029
   34  0.000  0.002  0.027  0.029
   35  0.034  0.001  0.006  0.040
   36  0.000  0.000  0.007  0.007
   37  0.000  0.002  0.000  0.002
tot    0.094  0.050  0.663  0.807
 
band    21 # energy   -4.36208973 # occ.  2.00000000
 
ion      s      p      d    tot
    1  0.000  0.002  0.002  0.004
    2  0.014  0.001  0.008  0.023
    3  0.006  0.001  0.008  0.014
    4  0.014  0.001  0.008  0.023
    5  0.000  0.002  0.016  0.018
    6  0.002  0.001  0.008  0.010
    7  0.006  0.001  0.008  0.014
    8  0.002  0.001  0.008  0.010
    9  0.000  0.000  0.028  0.028
   10  0.001  0.007  0.020  0.028
   11  0.000  0.001  0.036  0.037
   12  0.000  0.002  0.008  0.010
   13  0.000  0.001  0.036  0.037
   14  0.001  0.003  0.004  0.007
   15  0.000  0.000  0.028  0.028
   16  0.000  0.002  0.008  0.010
   17  0.000  0.000  0.028  0.028
   18  0.000  0.001  0.008  0.009
   19  0.000  0.000  0.046  0.046
   20  0.002  0.005  0.027  0.034
   21  0.001  0.001  0.017  0.019
   22  0.000  0.001  0.020  0.021
   23  0.001  0.001  0.017  0.019
   24  0.000  0.003  0.015  0.018
   25  0.000  0.001  0.002  0.003
   26  0.000  0.000  0.046  0.046
   27  0.000  0.001  0.020  0.021
   28  0.000  0.002  0.041  0.043
   29  0.013  0.001  0.015  0.029
   30  0.000  0.001  0.012  0.013
   31  0.013  0.001  0.015  0.029
   32  0.014  0.001  0.014  0.029
   33  0.000  0.001  0.012  0.013
   34  0.014  0.001  0.014  0.029
   35  0.000  0.000  0.032  0.032
   36  0.000  0.005  0.005  0.009