PROCAR new format
# of k-points:   10         # of bands:  252         # of ions:   38

 k-point     1 :    0.00000000 0.00000000 0.00000000     weight = 0.01562500

band     1 # energy  -19.85335686 # occ.  2.00000000
 
ion      s      p      d    tot
    1  0.000  0.000  0.000  0.000
    2  0.000  0.000  0.000  0.000
    3  0.000  0.000  0.000  0.000
    4  0.000  0.000  0.000  0.000
    5  0.000  0.000  0.000  0.000
    6  0.000  0.000  0.000  0.000
    7  0.000  0.000  0.000  0.000
    8  0.000  0.000  0.000  0.000
    9  0.000  0.000  0.000  0.000
   10  0.000  0.000  0.000  0.000
   11  0.000  0.000  0.000  0.000
   12  0.000  0.000  0.000  0.000
   13  0.000  0.000  0.000  0.000
   14  0.000  0.000  0.000  0.000
   15  0.000  0.000  0.000  0.000
   16  0.000  0.000  0.000  0.000
   17  0.000  0.000  0.000  0.000
   18  0.000  0.000  0.000  0.000
   19  0.000  0.000  0.000  0.000
   20  0.000  0.000  0.000  0.000
   21  0.000  0.000  0.000  0.000
   22  0.000  0.000  0.000  0.000
   23  0.000  0.000  0.000  0.000
   24  0.000  0.000  0.000  0.000
   25  0.000  0.000  0.000  0.000
   26  0.000  0.000  0.000  0.000
   27  0.000  0.000  0.000  0.000
   28  0.000  0.000  0.000  0.000
   29  0.000  0.000  0.000  0.000
   30  0.000  0.000  0.000  0.000
   31  0.000  0.000  0.000  0.000
   32  0.000  0.000  0.000  0.000
   33  0.000  0.000  0.000  0.000
   34  0.000  0.000  0.000  0.000
   35  0.000  0.000  0.000  0.000
   36  0.011  0.013  0.022  0.047
   37  0.742  0.014  0.000  0.755
   38  0.115  0.024  0.000  0.139
tot    0.868  0.051  0.023  0.941
 
band     2 # energy   -8.74984823 # occ.  2.00000000
 
ion      s      p      d    tot
    1  0.000  0.000  0.000  0.000
    2  0.000  0.000  0.000  0.000
    3  0.000  0.000  0.000  0.000
    4  0.000  0.000  0.000  0.000
    5  0.000  0.000  0.000  0.000
    6  0.000  0.000  0.000  0.000
    7  0.000  0.000  0.000  0.000
    8  0.000  0.000  0.000  0.000
    9  0.000  0.000  0.000  0.000
   10  0.000  0.000  0.000  0.000
   11  0.000  0.000  0.000  0.000
   12  0.000  0.000  0.000  0.000
   13  0.000  0.000  0.000  0.000
   14  0.000  0.000  0.000  0.000
   15  0.000  0.000  0.000  0.000
   16  0.000  0.000  0.000  0.000
   17  0.000  0.000  0.000  0.000
   18  0.000  0.000  0.000  0.000
   19  0.000  0.000  0.000  0.000
   20  0.001  0.001  0.002  0.004
   21  0.001  0.001  0.002  0.004
   22  0.000  0.000  0.000  0.000
   23  0.001  0.001  0.002  0.004
   24  0.000  0.000  0.000  0.000
   25  0.000  0.000  0.000  0.000
   26  0.000  0.000  0.000  0.000
   27  0.000  0.000  0.000  0.000
   28  0.000  0.000  0.000  0.000
   29  0.000  0.000  0.000  0.001
   30  0.000  0.000  0.000  0.001
   31  0.000  0.000  0.000  0.001
   32  0.000  0.000  0.000  0.001
   33  0.000  0.000  0.000  0.001
   34  0.000  0.000  0.000  0.001
   35  0.000  0.000  0.000  0.000
   36  0.071  0.031  0.134  0.236
   37  0.018  0.511  0.000  0.529
   38  0.172  0.019  0.000  0.190
tot    0.267  0.563  0.141  0.972
 
band     3 # energy   -6.72648536 # occ.  2.00000000
 
ion      s      p      d    tot
    1  0.006  0.001  0.000  0.007
    2  0.006  0.001  0.000  0.007
    3  0.006  0.001  0.000  0.007
    4  0.006  0.001  0.000  0.007
    5  0.006  0.001  0.000  0.006
    6  0.006  0.001  0.000  0.007
    7  0.006  0.001  0.000  0.007
    8  0.006  0.001  0.000  0.007
    9  0.006  0.001  0.000  0.007
   10  0.023  0.000  0.000  0.024
   11  0.024  0.000  0.000  0.024
   12  0.023  0.000  0.000  0.024
   13  0.024  0.000  0.000  0.024
   14  0.024  0.000  0.000  0.024
   15  0.023  0.000  0.000  0.024
   16  0.023  0.000  0.000  0.024
   17  0.023  0.000  0.000  0.024
   18  0.023  0.000  0.000  0.024
   19  0.022  0.000  0.000  0.022
   20  0.023  0.000  0.000  0.024
   21  0.023  0.000  0.000  0.024
   22  0.023  0.000  0.000  0.023
   23  0.023  0.000  0.000  0.024
   24  0.023  0.000  0.000  0.023
   25  0.022  0.000  0.000  0.022
   26  0.022  0.000  0.000  0.022
   27  0.023  0.000  0.000  0.023
   28  0.006  0.001  0.000  0.006
   29  0.006  0.001  0.000  0.006
   30  0.006  0.001  0.000  0.006
   31  0.006  0.001  0.000  0.006
   32  0.006  0.001  0.000  0.006
   33  0.006  0.001  0.000  0.006
   34  0.006  0.001  0.000  0.006
   35  0.006  0.001  0.000  0.006
   36  0.007  0.003  0.003  0.013
   37  0.001  0.004  0.000  0.005
   38  0.001  0.000  0.000  0.001
tot    0.521  0.020  0.009  0.549
 
band     4 # energy   -5.86283440 # occ.  2.00000000
 
ion      s      p      d    tot
    1  0.009  0.000  0.001  0.010
    2  0.009  0.000  0.001  0.010
    3  0.009  0.000  0.001  0.010
    4  0.009  0.000  0.001  0.010
    5  0.009  0.000  0.001  0.010
    6  0.009  0.000  0.001  0.010
    7  0.009  0.000  0.001  0.010
    8  0.009  0.000  0.001  0.010
    9  0.009  0.000  0.001  0.010
   10  0.011  0.001  0.013  0.025
   11  0.011  0.001  0.013  0.025
   12  0.011  0.001  0.013  0.025
   13  0.011  0.001  0.013  0.025
   14  0.011  0.001  0.013  0.025
   15  0.011  0.001  0.013  0.025
   16  0.011  0.001  0.013  0.025
   17  0.011  0.001  0.013  0.025
   18  0.011  0.001  0.013  0.025
   19  0.010  0.001  0.013  0.024
   20  0.012  0.001  0.010  0.023
   21  0.012  0.001  0.010  0.023
   22  0.011  0.001  0.013  0.025
   23  0.012  0.001  0.010  0.023
   24  0.011  0.001  0.013  0.025
   25  0.010  0.001  0.013  0.024
   26  0.010  0.001  0.013  0.024
   27  0.011  0.001  0.013  0.025
   28  0.008  0.000  0.000  0.009
   29  0.009  0.001  0.001  0.011
   30  0.009  0.001  0.001  0.011
   31  0.009  0.001  0.001  0.011
   32  0.009  0.001  0.001  0.011
   33  0.009  0.001  0.001  0.011
   34  0.009  0.001  0.001  0.011
   35  0.008  0.000  0.000  0.009
   36  0.014  0.002  0.005  0.021
   37  0.001  0.003  0.000  0.004
   38  0.001  0.000  0.000  0.001
tot    0.368  0.032  0.238  0.639
 
band     5 # energy   -5.61039440 # occ.  2.00000000
 
ion      s      p      d    tot
    1  0.006  0.000  0.018  0.025
    2  0.008  0.000  0.013  0.021
    3  0.008  0.000  0.013  0.021
    4  0.008  0.000  0.013  0.021
    5  0.007  0.000  0.011  0.018
    6  0.008  0.000  0.013  0.021
    7  0.008  0.000  0.013  0.021
    8  0.008  0.000  0.013  0.021
    9  0.011  0.000  0.012  0.023
   10  0.001  0.000  0.021  0.022
   11  0.001  0.000  0.018  0.019
   12  0.001  0.000  0.021  0.022
   13  0.001  0.000  0.018  0.019
   14  0.001  0.000  0.018  0.019
   15  0.000  0.000  0.019  0.019
   16  0.001  0.000  0.021  0.022
   17  0.000  0.000  0.019  0.019
   18  0.000  0.000  0.019  0.019
   19  0.002  0.000  0.016  0.018
   20  0.000  0.000  0.032  0.032
   21  0.000  0.000  0.032  0.032
   22  0.001  0.000  0.017  0.018
   23  0.000  0.000  0.032  0.032
   24  0.001  0.000  0.017  0.018
   25  0.002  0.000  0.016  0.018
   26  0.002  0.000  0.016  0.018
   27  0.001  0.000  0.017  0.018
   28  0.004  0.000  0.013  0.017
   29  0.008  0.000  0.015  0.024
   30  0.008  0.000  0.015  0.024
   31  0.008  0.000  0.015  0.024
   32  0.008  0.000  0.015  0.024
   33  0.008  0.000  0.015  0.024
   34  0.008  0.000  0.015  0.024
   35  0.005  0.000  0.011  0.016
   36  0.022  0.001  0.016  0.038
   37  0.000  0.001  0.000  0.001
   38  0.000  0.000  0.000  0.000
tot    0.167  0.006  0.619  0.793
 
band     6 # energy   -5.47479209 # occ.  2.00000000
 
ion      s      p      d    tot
    1  0.017  0.001  0.001  0.019
    2  0.006  0.000  0.015  0.021
    3  0.006  0.000  0.015  0.021
    4  0.006  0.000  0.015  0.021
    5  0.006  0.000  0.019  0.025
    6  0.006  0.000  0.015  0.021
    7  0.006  0.000  0.015  0.021
    8  0.006  0.000  0.015  0.021
    9  0.000  0.001  0.022  0.023
   10  0.001  0.000  0.050  0.051
   11  0.000  0.000  0.024  0.024
   12  0.001  0.000  0.050  0.051
   13  0.000  0.000  0.024  0.024
   14  0.000  0.000  0.024  0.024
   15  0.013  0.001  0.008  0.022
   16  0.001  0.000  0.050  0.051
   17  0.013  0.001  0.008  0.022
   18  0.013  0.001  0.008  0.022
   19  0.004  0.000  0.020  0.024
   20  0.004  0.000  0.024  0.028
   21  0.004  0.000  0.023  0.027
   22  0.006  0.001  0.004  0.010
   23  0.004  0.000  0.023  0.027
   24  0.006  0.001  0.004  0.010
   25  0.004  0.000  0.020  0.024
   26  0.004  0.000  0.020  0.024
   27  0.006  0.001  0.004  0.010
   28  0.001  0.001  0.008  0.009
   29  0.001  0.000  0.012  0.014
   30  0.001  0.000  0.012  0.014
   31  0.001  0.000  0.012  0.014
   32  0.001  0.000  0.012  0.014
   33  0.001  0.000  0.012  0.014
   34  0.001  0.000  0.012  0.014
   35  0.000  0.000  0.001  0.002
   36  0.020  0.003  0.006  0.030
   37  0.001  0.002  0.000  0.003
   38  0.001  0.000  0.000  0.001
tot    0.166  0.019  0.609  0.795
 
band     7 # energy   -5.44363557 # occ.  2.00000000
 
ion      s      p      d    tot
    1  0.000  0.000  0.009  0.009
    2  0.000  0.000  0.003  0.003
    3  0.001  0.000  0.004  0.005
    4  0.000  0.000  0.003  0.003
    5  0.000  0.000  0.007  0.007
    6  0.002  0.001  0.005  0.007
    7  0.001  0.000  0.004  0.005
    8  0.002  0.001  0.005  0.007
    9  0.000  0.000  0.000  0.000
   10  0.019  0.001  0.005  0.025
   11  0.006  0.001  0.032  0.039
   12  0.005  0.000  0.062  0.068
   13  0.006  0.001  0.032  0.039
   14  0.023  0.001  0.025  0.049
   15  0.000  0.001  0.027  0.028
   16  0.005  0.000  0.063  0.068
   17  0.000  0.001  0.027  0.028
   18  0.000  0.000  0.027  0.028
   19  0.001  0.001  0.018  0.020
   20  0.028  0.001  0.018  0.047
   21  0.007  0.001  0.036  0.044
   22  0.003  0.000  0.053  0.055
   23  0.007  0.001  0.036  0.044
   24  0.010  0.001  0.006  0.017
   25  0.003  0.000  0.029  0.032
   26  0.001  0.001  0.018  0.020
   27  0.003  0.000  0.053  0.056
   28  0.000  0.000  0.001  0.001
   29  0.001  0.001  0.005  0.007
   30  0.001  0.000  0.004  0.005
   31  0.001  0.001  0.005  0.007
   32  0.000  0.000  0.003  0.003
   33  0.001  0.000  0.004  0.005
   34  0.000  0.000  0.003  0.003
   35  0.000  0.000  0.005  0.005
   36  0.000  0.001  0.007  0.008
   37  0.000  0.001  0.000  0.001
   38  0.000  0.000  0.000  0.000
tot    0.134  0.019  0.646  0.798
 
band     8 # energy   -5.44362288 # occ.  2.00000000
 
ion      s      p      d    tot
    1  0.000  0.000  0.009  0.009
    2  0.001  0.000  0.005  0.007
    3  0.001  0.000  0.004  0.005
    4  0.001  0.000  0.005  0.007
    5  0.000  0.000  0.007  0.007
    6  0.000  0.000  0.003  0.003
    7  0.001  0.000  0.004  0.005
    8  0.000  0.000  0.003  0.003
    9  0.000  0.000  0.000  0.000
   10  0.000  0.000  0.082  0.082
   11  0.017  0.001  0.027  0.046
   12  0.014  0.001  0.025  0.040
   13  0.017  0.001  0.028  0.045
   14  0.000  0.001  0.034  0.036
   15  0.000  0.000  0.027  0.028
   16  0.014  0.001  0.024  0.039
   17  0.000  0.000  0.027  0.028
   18  0.000  0.001  0.028  0.029
   19  0.002  0.000  0.026  0.028
   20  0.000  0.001  0.041  0.042
   21  0.021  0.001  0.024  0.046
   22  0.008  0.001  0.022  0.030
   23  0.021  0.001  0.024  0.046
   24  0.000  0.000  0.068  0.068
   25  0.000  0.001  0.015  0.016
   26  0.002  0.000  0.026  0.028
   27  0.008  0.001  0.022  0.030
   28  0.000  0.000  0.001  0.001
   29  0.000  0.000  0.003  0.003
   30  0.001  0.000  0.004  0.005
   31  0.000  0.000  0.003  0.003
   32  0.001  0.001  0.005  0.007
   33  0.001  0.000  0.004  0.005
   34  0.001  0.001  0.005  0.007
   35  0.000  0.000  0.005  0.005
   36  0.000  0.001  0.007  0.008
   37  0.000  0.001  0.000  0.001
   38  0.000  0.000  0.000  0.000
tot    0.134  0.019  0.646  0.798
 
band     9 # energy   -5.43923900 # occ.  2.00000000
 
ion      s      p      d    tot
    1  0.000  0.000  0.002  0.002
    2  0.001  0.000  0.005  0.006
    3  0.001  0.001  0.005  0.006
    4  0.001  0.000  0.005  0.006
    5  0.000  0.000  0.003  0.003
    6  0.000  0.000  0.002  0.003
    7  0.001  0.001  0.005  0.006
    8  0.000  0.000  0.002  0.003
    9  0.000  0.000  0.010  0.010
   10  0.007  0.000  0.038  0.045
   11  0.002  0.000  0.069  0.071
   12  0.002  0.001  0.019  0.022
   13  0.002  0.000  0.068  0.070
   14  0.007  0.001  0.011  0.019
   15  0.007  0.001  0.050  0.058
   16  0.002  0.001  0.019  0.022
   17  0.007  0.001  0.050  0.058
   18  0.028  0.001  0.016  0.045
   19  0.005  0.000  0.039  0.044
   20  0.001  0.000  0.022  0.023
   21  0.000  0.000  0.044  0.044
   22  0.003  0.001  0.021  0.025
   23  0.000  0.000  0.044  0.045
   24  0.010  0.001  0.029  0.039
   25  0.018  0.001  0.010  0.028
   26  0.005  0.000  0.039  0.044
   27  0.003  0.001  0.021  0.025
   28  0.000  0.000  0.006  0.006
   29  0.000  0.000  0.002  0.003
   30  0.000  0.000  0.003  0.003
   31  0.000  0.000  0.002  0.003
   32  0.001  0.000  0.004  0.005
   33  0.000  0.000  0.003  0.003
   34  0.001  0.000  0.004  0.005
   35  0.000  0.000  0.005  0.005
   36  0.000  0.000  0.003  0.003
   37  0.000  0.001  0.000  0.001
   38  0.000  0.000  0.000  0.000
tot    0.113  0.016  0.678  0.807
 
band    10 # energy   -5.43922027 # occ.  2.00000000
 
ion      s      p      d    tot
    1  0.000  0.000  0.002  0.002
    2  0.000  0.000  0.003  0.004
    3  0.000  0.000  0.003  0.004
    4  0.000  0.000  0.003  0.004
    5  0.000  0.000  0.003  0.003
    6  0.001  0.001  0.006  0.007
    7  0.000  0.000  0.003  0.004
    8  0.001  0.001  0.006  0.007
    9  0.000  0.000  0.010  0.010
   10  0.000  0.002  0.012  0.014
   11  0.005  0.000  0.030  0.036
   12  0.005  0.001  0.031  0.037
   13  0.005  0.000  0.031  0.036
   14  0.000  0.000  0.087  0.087
   15  0.021  0.001  0.027  0.049
   16  0.005  0.001  0.032  0.037
   17  0.021  0.001  0.027  0.049
   18  0.000  0.001  0.062  0.062
   19  0.013  0.001  0.019  0.033
   20  0.000  0.000  0.052  0.052
   21  0.001  0.000  0.029  0.030
   22  0.007  0.001  0.026  0.034
   23  0.001  0.000  0.029  0.030
   24  0.000  0.001  0.019  0.020
   25  0.000  0.000  0.049  0.049
   26  0.013  0.001  0.019  0.034
   27  0.008  0.001  0.026  0.035
   28  0.000  0.000  0.006  0.006
   29  0.001  0.000  0.004  0.005
   30  0.001  0.000  0.003  0.004
   31  0.001  0.000  0.004  0.004
   32  0.000  0.000  0.002  0.002
   33  0.001  0.000  0.003  0.004
   34  0.000  0.000  0.002  0.002
   35  0.000  0.000  0.005  0.005
   36  0.000  0.000  0.003  0.003
   37  0.000  0.001  0.000  0.001
   38  0.000  0.000  0.000  0.000
tot    0.113  0.016  0.678  0.807
 
band    11 # energy   -5.43691363 # occ.  2.00000000
 
ion      s      p      d    tot
    1  0.001  0.001  0.004  0.006
    2  0.000  0.000  0.006  0.006
    3  0.000  0.000  0.006  0.006
    4  0.000  0.000  0.006  0.006
    5  0.007  0.001  0.002  0.010
    6  0.000  0.000  0.006  0.006
    7  0.000  0.000  0.006  0.006
    8  0.000  0.000  0.006  0.006
    9  0.000  0.000  0.004  0.004
   10  0.012  0.001  0.005  0.019
   11  0.007  0.000  0.052  0.059
   12  0.012  0.001  0.005  0.018
   13  0.007  0.000  0.052  0.059
   14  0.007  0.000  0.052  0.059
   15  0.000  0.001  0.032  0.033
   16  0.012  0.001  0.005  0.018
   17  0.000  0.001  0.032  0.033
   18  0.000  0.001  0.032  0.032
   19  0.014  0.001  0.010  0.024
   20  0.001  0.001  0.028  0.029
   21  0.001  0.001  0.028  0.030
   22  0.005  0.000  0.064  0.069
   23  0.001  0.001  0.028  0.030
   24  0.005  0.000  0.063  0.068
   25  0.014  0.001  0.010  0.025
   26  0.014  0.001  0.010  0.024
   27  0.005  0.000  0.064  0.069
   28  0.002  0.001  0.004  0.007
   29  0.000  0.000  0.004  0.004
   30  0.000  0.000  0.004  0.004
   31  0.000  0.000  0.004  0.004
   32  0.000  0.000  0.004  0.004
   33  0.000  0.000  0.004  0.004
   34  0.000  0.000  0.004  0.004
   35  0.005  0.001  0.006  0.012
   36  0.000  0.000  0.001  0.001
   37  0.000  0.000  0.000  0.000
   38  0.000  0.000  0.000  0.000
tot    0.134  0.017  0.650  0.800
 
band    12 # energy   -5.43510363 # occ.  2.00000000
 
ion      s      p      d    tot
    1  0.002  0.000  0.011  0.013
    2  0.002  0.000  0.009  0.012
    3  0.002  0.000  0.009  0.012
    4  0.002  0.000  0.009  0.012
    5  0.001  0.000  0.013  0.015
    6  0.002  0.000  0.009  0.012
    7  0.002  0.000  0.009  0.012
    8  0.002  0.000  0.009  0.012
    9  0.005  0.000  0.000  0.006
   10  0.000  0.001  0.021  0.022
   11  0.010  0.001  0.019  0.030
   12  0.000  0.001  0.022  0.022
   13  0.010  0.001  0.019  0.030
   14  0.010  0.001  0.019  0.030
   15  0.003  0.000  0.052  0.055
   16  0.000  0.001  0.022  0.022
   17  0.003  0.000  0.052  0.055
   18  0.003  0.000  0.051  0.055
   19  0.001  0.000  0.029  0.030
   20  0.007  0.001  0.038  0.046
   21  0.007  0.001  0.038  0.046
   22  0.002  0.001  0.015  0.018
   23  0.007  0.001  0.038  0.046
   24  0.002  0.001  0.016  0.018
   25  0.001  0.000  0.029  0.030
   26  0.001  0.000  0.029  0.030
   27  0.002  0.001  0.015  0.018
   28  0.004  0.000  0.003  0.007
   29  0.003  0.000  0.009  0.012
   30  0.003  0.000  0.009  0.012
   31  0.003  0.000  0.009  0.012
   32  0.003  0.000  0.009  0.012
   33  0.003  0.000  0.009  0.012
   34  0.003  0.000  0.009  0.012
   35  0.002  0.000  0.002  0.004
   36  0.004  0.001  0.008  0.012
   37  0.000  0.000  0.000  0.000
   38  0.000  0.000  0.000  0.000
tot    0.119  0.013  0.672  0.804
 
band    13 # energy   -5.40912930 # occ.  2.00000000
 
ion      s      p      d    tot
    1  0.000  0.000  0.017  0.018
    2  0.002  0.000  0.011  0.013
    3  0.002  0.000  0.011  0.013
    4  0.002  0.000  0.011  0.013
    5  0.000  0.000  0.000  0.000
    6  0.002  0.000  0.011  0.013
    7  0.002  0.000  0.011  0.013
    8  0.002  0.000  0.011  0.013
    9  0.009  0.000  0.007  0.016
   10  0.005  0.000  0.023  0.028
   11  0.000  0.000  0.037  0.037
   12  0.005  0.000  0.023  0.028
   13  0.000  0.000  0.037  0.037
   14  0.000  0.000  0.037  0.037
   15  0.000  0.000  0.016  0.016
   16  0.005  0.000  0.023  0.028
   17  0.000  0.000  0.016  0.016
   18  0.000  0.000  0.016  0.016
   19  0.001  0.001  0.005  0.006
   20  0.001  0.000  0.033  0.034
   21  0.001  0.000  0.032  0.034
   22  0.004  0.000  0.054  0.057
   23  0.001  0.000  0.032  0.034
   24  0.004  0.000  0.054  0.058
   25  0.001  0.001  0.005  0.006
   26  0.001  0.001  0.005  0.006
   27  0.004  0.000  0.054  0.057
   28  0.012  0.000  0.005  0.017
   29  0.005  0.000  0.016  0.020
   30  0.004  0.000  0.016  0.020
   31  0.005  0.000  0.016  0.020
   32  0.004  0.000  0.015  0.020
   33  0.004  0.000  0.016  0.020
   34  0.004  0.000  0.015  0.020
   35  0.003  0.000  0.033  0.037
   36  0.000  0.000  0.001  0.001
   37  0.000  0.000  0.000  0.000
   38  0.000  0.000  0.000  0.000
tot    0.094  0.007  0.721  0.823
 
band    14 # energy   -5.39945255 # occ.  2.00000000
 
ion      s      p      d    tot
    1  0.000  0.000  0.019  0.019
    2  0.003  0.000  0.006  0.009
    3  0.000  0.000  0.010  0.010
    4  0.003  0.000  0.006  0.009
    5  0.000  0.000  0.010  0.010
    6  0.002  0.001  0.007  0.009
    7  0.000  0.000  0.010  0.010
    8  0.002  0.001  0.007  0.009
    9  0.000  0.000  0.005  0.005
   10  0.000  0.000  0.061  0.061
   11  0.000  0.000  0.034  0.034
   12  0.005  0.000  0.036  0.042
   13  0.000  0.000  0.034  0.034
   14  0.000  0.000  0.016  0.016
   15  0.006  0.000  0.025  0.031
   16  0.005  0.000  0.036  0.042
   17  0.006  0.000  0.026  0.031
   18  0.000  0.000  0.076  0.076
   19  0.003  0.000  0.032  0.035
   20  0.000  0.000  0.078  0.078
   21  0.006  0.000  0.023  0.029
   22  0.001  0.000  0.028  0.029
   23  0.006  0.000  0.023  0.029
   24  0.000  0.000  0.020  0.020
   25  0.000  0.000  0.034  0.034
   26  0.003  0.000  0.032  0.035
   27  0.001  0.000  0.028  0.029
   28  0.000  0.000  0.012  0.012
   29  0.000  0.000  0.007  0.007
   30  0.002  0.000  0.005  0.007
   31  0.000  0.000  0.007  0.007
   32  0.001  0.000  0.005  0.007
   33  0.002  0.000  0.005  0.007
   34  0.001  0.000  0.005  0.007
   35  0.000  0.000  0.004  0.004
   36  0.000  0.001  0.004  0.005
   37  0.000  0.000  0.000  0.000
   38  0.000  0.000  0.000  0.000
tot    0.057  0.008  0.777  0.843
 
band    15 # energy   -5.39939588 # occ.  2.00000000
 
ion      s      p      d    tot
    1  0.000  0.000  0.019  0.019
    2  0.000  0.000  0.009  0.010
    3  0.003  0.001  0.006  0.009
    4  0.000  0.000  0.009  0.010
    5  0.000  0.000  0.010  0.010
    6  0.001  0.000  0.009  0.010
    7  0.003  0.001  0.006  0.009
    8  0.001  0.000  0.009  0.010
    9  0.000  0.000  0.005  0.005
   10  0.007  0.000  0.028  0.035
   11  0.000  0.000  0.022  0.022
   12  0.002  0.000  0.053  0.055
   13  0.000  0.000  0.022  0.022
   14  0.000  0.000  0.041  0.041
   15  0.002  0.000  0.059  0.061
   16  0.002  0.000  0.053  0.055
   17  0.002  0.000  0.059  0.061
   18  0.007  0.000  0.009  0.016
   19  0.001  0.000  0.033  0.034
   20  0.008  0.000  0.004  0.013
   21  0.002  0.000  0.059  0.062
   22  0.000  0.000  0.023  0.023
   23  0.002  0.000  0.060  0.062
   24  0.001  0.000  0.031  0.032
   25  0.004  0.000  0.031  0.035
   26  0.001  0.000  0.033  0.034
   27  0.000  0.000  0.023  0.023
   28  0.000  0.000  0.012  0.012
   29  0.002  0.000  0.005  0.007
   30  0.000  0.000  0.007  0.007
   31  0.002  0.000  0.005  0.007
   32  0.002  0.000  0.006  0.008
   33  0.000  0.000  0.007  0.007
   34  0.002  0.000  0.006  0.008
   35  0.000  0.000  0.004  0.004
   36  0.000  0.001  0.004  0.005
   37  0.000  0.000  0.000  0.000
   38  0.000  0.000  0.000  0.000
tot    0.057  0.008  0.778  0.843
 
band    16 # energy   -5.39652739 # occ.  2.00000000
 
ion      s      p      d    tot
    1  0.003  0.000  0.003  0.005
    2  0.000  0.000  0.011  0.011
    3  0.000  0.000  0.011  0.011
    4  0.000  0.000  0.011  0.011
    5  0.005  0.000  0.000  0.005
    6  0.000  0.000  0.011  0.011
    7  0.000  0.000  0.011  0.011
    8  0.000  0.000  0.011  0.011
    9  0.000  0.000  0.012  0.012
   10  0.000  0.000  0.048  0.048
   11  0.002  0.000  0.009  0.011
   12  0.000  0.000  0.048  0.048
   13  0.002  0.000  0.009  0.011
   14  0.002  0.000  0.009  0.011
   15  0.002  0.000  0.043  0.045
   16  0.000  0.000  0.048  0.048
   17  0.002  0.000  0.043  0.045
   18  0.002  0.000  0.043  0.045
   19  0.000  0.000  0.065  0.065
   20  0.005  0.000  0.036  0.041
   21  0.005  0.000  0.036  0.042
   22  0.002  0.000  0.017  0.020
   23  0.005  0.000  0.036  0.042
   24  0.002  0.000  0.018  0.020
   25  0.000  0.000  0.066  0.066
   26  0.000  0.000  0.065  0.065
   27  0.002  0.000  0.017  0.020
   28  0.000  0.000  0.005  0.005
   29  0.000  0.000  0.008  0.008
   30  0.000  0.000  0.008  0.008
   31  0.000  0.000  0.008  0.008
   32  0.000  0.000  0.008  0.008
   33  0.000  0.000  0.008  0.008
   34  0.000  0.000  0.008  0.008
   35  0.006  0.000  0.001  0.007
   36  0.000  0.003  0.002  0.005
   37  0.000  0.001  0.000  0.001
   38  0.000  0.000  0.000  0.000
tot    0.051  0.009  0.789  0.849
 
band    17 # energy   -5.39220681 # occ.  2.00000000
 
ion      s      p      d    tot
    1  0.000  0.000  0.006  0.006
    2  0.003  0.000  0.006  0.010
    3  0.000  0.000  0.010  0.010
    4  0.003  0.000  0.006  0.010
    5  0.000  0.000  0.010  0.010
    6  0.002  0.000  0.007  0.009
    7  0.000  0.000  0.010  0.010
    8  0.002  0.000  0.007  0.009
    9  0.000  0.000  0.021  0.021
   10  0.004  0.000  0.020  0.024
   11  0.001  0.000  0.043  0.044
   12  0.001  0.000  0.029  0.030
   13  0.002  0.000  0.042  0.044
   14  0.006  0.000  0.011  0.017
   15  0.000  0.000  0.027  0.027
   16  0.001  0.000  0.029  0.030
   17  0.000  0.000  0.028  0.028
   18  0.000  0.000  0.041  0.041
   19  0.002  0.000  0.064  0.066
   20  0.000  0.000  0.047  0.047
   21  0.000  0.000  0.020  0.021
   22  0.003  0.000  0.059  0.062
   23  0.000  0.000  0.020  0.020
   24  0.013  0.000  0.020  0.034
   25  0.008  0.000  0.008  0.017
   26  0.002  0.000  0.063  0.065
   27  0.003  0.000  0.060  0.063
   28  0.000  0.000  0.004  0.005
   29  0.000  0.000  0.008  0.008
   30  0.002  0.000  0.003  0.005
   31  0.000  0.000  0.008  0.009
   32  0.001  0.001  0.008  0.009
   33  0.002  0.000  0.003  0.005
   34  0.001  0.001  0.008  0.009
   35  0.000  0.000  0.010  0.010
   36  0.000  0.000  0.003  0.003
   37  0.000  0.000  0.000  0.000
   38  0.000  0.000  0.000  0.000
tot    0.066  0.008  0.767  0.840
 
band    18 # energy   -5.39216469 # occ.  2.00000000
 
ion      s      p      d    tot
    1  0.000  0.000  0.006  0.006
    2  0.000  0.000  0.009  0.009
    3  0.003  0.001  0.006  0.010
    4  0.000  0.000  0.009  0.009
    5  0.000  0.000  0.010  0.010
    6  0.002  0.000  0.008  0.010
    7  0.003  0.001  0.006  0.010
    8  0.002  0.000  0.008  0.010
    9  0.000  0.000  0.021  0.021
   10  0.000  0.000  0.032  0.032
   11  0.004  0.000  0.021  0.026
   12  0.003  0.000  0.023  0.026
   13  0.004  0.000  0.022  0.026
   14  0.000  0.000  0.053  0.053
   15  0.000  0.000  0.037  0.037
   16  0.003  0.000  0.023  0.026
   17  0.000  0.000  0.037  0.037
   18  0.000  0.000  0.023  0.023
   19  0.006  0.000  0.026  0.032
   20  0.000  0.000  0.011  0.011
   21  0.000  0.000  0.038  0.038
   22  0.010  0.000  0.034  0.044
   23  0.000  0.000  0.038  0.039
   24  0.000  0.000  0.072  0.072
   25  0.000  0.000  0.081  0.081
   26  0.006  0.000  0.027  0.033
   27  0.010  0.000  0.033  0.043
   28  0.000  0.000  0.004  0.005
   29  0.002  0.001  0.004  0.007
   30  0.000  0.000  0.010  0.010
   31  0.002  0.001  0.004  0.007
   32  0.001  0.000  0.005  0.006
   33  0.000  0.000  0.010  0.010
   34  0.001  0.000  0.005  0.006
   35  0.000  0.000  0.010  0.010
   36  0.000  0.000  0.003  0.003
   37  0.000  0.000  0.000  0.000
   38  0.000  0.000  0.000  0.000
tot    0.065  0.008  0.767  0.840
 
band    19 # energy   -5.24360526 # occ.  2.00000000
 
ion      s      p      d    tot
    1  0.000  0.000  0.004  0.004
    2  0.001  0.001  0.010  0.011
    3  0.000  0.000  0.007  0.008
    4  0.001  0.001  0.010  0.011
    5  0.000  0.000  0.008  0.009
    6  0.002  0.001  0.005  0.008
    7  0.000  0.000  0.007  0.008
    8  0.002  0.001  0.005  0.008
    9  0.000  0.001  0.017  0.018
   10  0.001  0.001  0.034  0.036
   11  0.000  0.000  0.058  0.058
   12  0.000  0.000  0.008  0.009
   13  0.000  0.000  0.058  0.058
   14  0.001  0.000  0.029  0.030
   15  0.001  0.000  0.053  0.053
   16  0.000  0.000  0.008  0.008
   17  0.001  0.000  0.052  0.053
   18  0.002  0.000  0.043  0.046
   19  0.000  0.000  0.009  0.010
   20  0.002  0.000  0.055  0.057
   21  0.001  0.000  0.053  0.054
   22  0.000  0.000  0.061  0.061
   23  0.001  0.000  0.053  0.054
   24  0.001  0.000  0.024  0.025
   25  0.000  0.001  0.025  0.026
   26  0.000  0.000  0.009  0.010
   27  0.000  0.000  0.061  0.061
   28  0.000  0.000  0.001  0.001
   29  0.000  0.000  0.008  0.008
   30  0.001  0.001  0.008  0.010
   31  0.000  0.000  0.008  0.008
   32  0.001  0.001  0.005  0.007
   33  0.001  0.001  0.008  0.010
   34  0.001  0.001  0.005  0.007
   35  0.000  0.000  0.006  0.006
   36  0.000  0.001  0.012  0.013
   37  0.000  0.004  0.000  0.004
   38  0.000  0.000  0.000  0.000
tot    0.022  0.017  0.828  0.867
 
band    20 # energy   -5.24355467 # occ.  2.00000000
 
ion      s      p      d    tot
    1  0.000  0.000  0.004  0.004
    2  0.001  0.000  0.005  0.007
    3  0.002  0.001  0.007  0.010
    4  0.001  0.000  0.005  0.007
    5  0.000  0.000  0.008  0.009
    6  0.000  0.000  0.010  0.010
    7  0.002  0.001  0.007  0.010
    8  0.000  0.000  0.010  0.010
    9  0.000  0.001  0.017  0.018
   10  0.000  0.000  0.000  0.000
   11  0.001  0.000  0.039  0.040
   12  0.000  0.001  0.025  0.026
   13  0.001  0.000  0.039  0.040
   14  0.000  0.000  0.066  0.067
   15  0.002  0.000  0.046  0.048
   16  0.000  0.001  0.025  0.026
   17  0.002  0.000  0.046  0.048
   18  0.000  0.000  0.056  0.056
   19  0.000  0.001  0.020  0.021
   20  0.000  0.000  0.053  0.053
   21  0.002  0.000  0.054  0.056
   22  0.001  0.000  0.037  0.037
   23  0.002  0.000  0.054  0.056
   24  0.000  0.000  0.072  0.072
   25  0.000  0.000  0.004  0.004
   26  0.000  0.001  0.020  0.021
   27  0.001  0.000  0.037  0.037
   28  0.000  0.000  0.001  0.001
   29  0.001  0.001  0.006  0.009
   30  0.000  0.000  0.006  0.007
   31  0.001  0.001  0.006  0.009
   32  0.000  0.000  0.008  0.009
   33  0.000  0.000  0.006  0.007
   34  0.000  0.000  0.008  0.009
   35  0.000  0.000  0.006  0.006
   36  0.000  0.001  0.012  0.013
   37  0.000  0.004  0.000  0.004
   38  0.000  0.000  0.000  0.000
tot    0.022  0.017  0.828  0.867
 
band    21 # energy   -5.23950589 # occ.  2.00000000
 
ion      s      p      d    tot
    1  0.001  0.001  0.005  0.007
    2  0.000  0.000  0.011  0.012
    3  0.000  0.000  0.011  0.012
    4  0.000  0.000  0.011  0.012
    5  0.003  0.000  0.003  0.006
    6  0.000  0.000  0.011  0.012
    7  0.000  0.000  0.011  0.012
    8  0.000  0.000  0.011  0.012
    9  0.000  0.000  0.008  0.008
   10  0.001  0.001  0.036  0.038
   11  0.000  0.000  0.022  0.023
   12  0.001  0.001  0.038  0.039
   13  0.000  0.000  0.022  0.023
   14  0.000  0.000  0.023  0.023
   15  0.003  0.001  0.048  0.051
   16  0.001  0.001  0.038  0.039