 vasp.6.2.0 18Jan21 (build Jun 12 2021 23:27:24) complex                        
  
 executed on             LinuxIFC date 2022.05.26  20:13:52
 running on   28 total cores
 distrk:  each k-point on   28 cores,    1 groups
 distr:  one band on NCORE=   1 cores,   28 groups


--------------------------------------------------------------------------------------------------------


 INCAR:
   ISMEAR = -5
   SIGMA = 0.1
   ISPIN = 1
   EDIFF = 1.d-5
   EDIFFG = -0.01
   NSW = 0
   NELM = 150
   ENCUT = 500
   ISIF = 2
   IBRION = 2
   LREAL = Auto
   ALGO = Fast
   ICHARG = 11
   LORBIT = 10
   LCHARG = .F.
   LWAVE = .F.

 POTCAR:    PAW_PBE Au 04Oct2007                  
 POTCAR:    PAW_PBE Nb_sv 25May2007               
 -----------------------------------------------------------------------------
|                                                                             |
|           W    W    AA    RRRRR   N    N  II  N    N   GGGG   !!!           |
|           W    W   A  A   R    R  NN   N  II  NN   N  G    G  !!!           |
|           W    W  A    A  R    R  N N  N  II  N N  N  G       !!!           |
|           W WW W  AAAAAA  RRRRR   N  N N  II  N  N N  G  GGG   !            |
|           WW  WW  A    A  R   R   N   NN  II  N   NN  G    G                |
|           W    W  A    A  R    R  N    N  II  N    N   GGGG   !!!           |
|                                                                             |
|     For optimal performance we recommend to set                             |
|       NCORE = 2 up to number-of-cores-per-socket                            |
|     NCORE specifies how many cores store one orbital (NPAR=cpu/NCORE).      |
|     This setting can greatly improve the performance of VASP for DFT.       |
|     The default, NCORE=1 might be grossly inefficient on modern             |
|     multi-core architectures or massively parallel machines. Do your        |
|     own testing! More info at https://www.vasp.at/wiki/index.php/NCORE      |
|     Unfortunately you need to use the default for GW and RPA                |
|     calculations (for HF NCORE is supported but not extensively tested      |
|     yet).                                                                   |
|                                                                             |
 -----------------------------------------------------------------------------

 POTCAR:    PAW_PBE Au 04Oct2007                  
   VRHFIN =Au: s1d10                                                                                
   LEXCH  = PE                                                                                      
   EATOM  =   926.0867 eV,   68.0654 Ry                                                             
                                                                                                    
   TITEL  = PAW_PBE Au 04Oct2007                                                                    
   LULTRA =        F    use ultrasoft PP ?                                                          
   IUNSCR =        1    unscreen: 0-lin 1-nonlin 2-no                                               
   RPACOR =    2.330    partial core radius                                                         
   POMASS =  196.966; ZVAL   =   11.000    mass and valenz                                          
   RCORE  =    2.500    outmost cutoff radius                                                       
   RWIGS  =    2.840; RWIGS  =    1.503    wigner-seitz radius (au A)                               
   ENMAX  =  229.943; ENMIN  =  172.457 eV                                                          
   ICORE  =        3    local potential                                                             
   LCOR   =        T    correct aug charges                                                         
   LPAW   =        T    paw PP                                                                      
   EAUG   =  356.670                                                                                
   DEXC   =    0.000                                                                                
   RMAX   =    2.562    core radius for proj-oper                                                   
   RAUG   =    1.300    factor for augmentation sphere                                              
   RDEP   =    2.598    radius for radial grids                                                     
   RDEPT  =    2.193    core radius for aug-charge                                                  
                                                                                                    
   Atomic configuration                                                                             
   16 entries                                                                                       
     n  l   j            E        occ.                                                              
     1  0  0.50    -80748.5001   2.0000                                                             
     2  0  0.50    -14244.7466   2.0000                                                             
     2  1  1.50    -12310.9591   6.0000                                                             
     3  0  0.50     -3362.1768   2.0000                                                             
     3  1  1.50     -2801.5463   6.0000                                                             
     3  2  2.50     -2203.8206  10.0000                                                             
     4  0  0.50      -729.8168   2.0000                                                             
     4  1  1.50      -546.0527   6.0000                                                             
     4  2  2.50      -325.7302  10.0000                                                             
     4  3  3.50       -81.1472  14.0000                                                             
     5  0  0.50      -108.3201   2.0000                                                             
     5  1  1.50       -59.7479   6.0000                                                             
     5  2  2.50        -6.8783  10.0000                                                             
     6  0  0.50        -5.7602   1.0000                                                             
     6  1  1.50        -6.8029   0.0000                                                             
     5  3  2.50        -1.3606   0.0000                                                             
   Description                                                                                      
     l       E           TYP  RCUT    TYP  RCUT                                                     
     2     -6.8782861     23  2.500                                                                 
     2     -8.2388687     23  2.500                                                                 
     0     -5.7601759     23  2.500                                                                 
     0     -0.8493231     23  2.500                                                                 
     1     -2.7211652     23  2.500                                                                 
     1     27.2116520     23  2.500                                                                 
     3     -1.3605826     23  2.500                                                                 
  local pseudopotential read in
  partial core-charges read in
  partial kinetic energy density read in
  atomic valenz-charges read in
  non local Contribution for L=           2  read in
    real space projection operators read in
  non local Contribution for L=           2  read in
    real space projection operators read in
  non local Contribution for L=           0  read in
    real space projection operators read in
  non local Contribution for L=           0  read in
    real space projection operators read in
  non local Contribution for L=           1  read in
    real space projection operators read in
  non local Contribution for L=           1  read in
    real space projection operators read in
    PAW grid and wavefunctions read in
 
   number of l-projection  operators is LMAX  =           6
   number of lm-projection operators is LMMAX =          18
 
 POTCAR:    PAW_PBE Nb_sv 25May2007               
   VRHFIN =Nb: 4p5s4d                                                                               
   LEXCH  = PE                                                                                      
   EATOM  =  1555.1913 eV,  114.3033 Ry                                                             
                                                                                                    
   TITEL  = PAW_PBE Nb_sv 25May2007                                                                 
   LULTRA =        F    use ultrasoft PP ?                                                          
   IUNSCR =        1    unscreen: 0-lin 1-nonlin 2-no                                               
   RPACOR =    1.800    partial core radius                                                         
   POMASS =   92.910; ZVAL   =   13.000    mass and valenz                                          
   RCORE  =    2.400    outmost cutoff radius                                                       
   RWIGS  =    2.400; RWIGS  =    1.270    wigner-seitz radius (au A)                               
   ENMAX  =  293.235; ENMIN  =  219.927 eV                                                          
   ICORE  =        3    local potential                                                             
   LCOR   =        T    correct aug charges                                                         
   LPAW   =        T    paw PP                                                                      
   EAUG   =  455.659                                                                                
   DEXC   =    0.000                                                                                
   RMAX   =    2.456    core radius for proj-oper                                                   
   RAUG   =    1.300    factor for augmentation sphere                                              
   RDEP   =    2.451    radius for radial grids                                                     
   RDEPT  =    1.956    core radius for aug-charge                                                  
                                                                                                    
   Atomic configuration                                                                             
   11 entries                                                                                       
     n  l   j            E        occ.                                                              
     1  0  0.50    -18805.2457   2.0000                                                             
     2  0  0.50     -2630.2869   2.0000                                                             
     2  1  1.50     -2348.4046   6.0000                                                             
     3  0  0.50      -438.8757   2.0000                                                             
     3  1  1.50      -346.7588   6.0000                                                             
     3  2  2.50      -196.2560  10.0000                                                             
     4  0  0.50       -58.3859   2.0000                                                             
     5  0  0.50        -3.9816   1.0000                                                             
     4  1  1.50       -34.5141   6.0000                                                             
     4  2  2.50        -3.0408   4.0000                                                             
     4  3  2.50        -1.3606   0.0000                                                             
   Description                                                                                      
     l       E           TYP  RCUT    TYP  RCUT                                                     
     0    -58.3859094     23  2.200                                                                 
     0     -3.9816262     23  2.200                                                                 
     1    -34.5140738     23  2.200                                                                 
     1     13.6058260     23  2.200                                                                 
     2     -3.0408010     23  2.200                                                                 
     2     -0.1283038     23  2.200                                                                 
     3     -1.3605826     23  2.400                                                                 
  local pseudopotential read in
  partial core-charges read in
  partial kinetic energy density read in
  atomic valenz-charges read in
  non local Contribution for L=           0  read in
    real space projection operators read in
  non local Contribution for L=           0  read in
    real space projection operators read in
  non local Contribution for L=           1  read in
    real space projection operators read in
  non local Contribution for L=           1  read in
    real space projection operators read in
  non local Contribution for L=           2  read in
    real space projection operators read in
  non local Contribution for L=           2  read in
    real space projection operators read in
    PAW grid and wavefunctions read in
 
   number of l-projection  operators is LMAX  =           6
   number of lm-projection operators is LMMAX =          18
 
 Optimization of the real space projectors (new method)

 maximal supplied QI-value         = 15.12
 optimisation between [QCUT,QGAM] = [ 11.34, 22.83] = [ 36.00,145.93] Ry 
 Optimized for a Real-space Cutoff    1.39 Angstroem

   l    n(q)    QCUT    max X(q) W(low)/X(q) W(high)/X(q)  e(spline) 
   2      9    11.338    60.898    0.39E-03    0.42E-03    0.21E-06
   2      9    11.338    58.894    0.40E-03    0.42E-03    0.22E-06
   0      9    11.338   109.617    0.13E-03    0.20E-04    0.13E-06
   0      9    11.338    75.026    0.13E-03    0.20E-04    0.13E-06
   1      9    11.338    16.344    0.33E-04    0.24E-03    0.18E-06
   1      9    11.338    10.160    0.26E-04    0.19E-03    0.15E-06
 Optimization of the real space projectors (new method)

 maximal supplied QI-value         = 15.68
 optimisation between [QCUT,QGAM] = [ 11.45, 22.90] = [ 36.71,146.85] Ry 
 Optimized for a Real-space Cutoff    1.56 Angstroem

   l    n(q)    QCUT    max X(q) W(low)/X(q) W(high)/X(q)  e(spline) 
   0     11    11.450    10.201    0.21E-04    0.96E-05    0.78E-07
   0     11    11.450     8.174    0.31E-04    0.18E-04    0.14E-06
   1     10    11.450     3.488    0.27E-04    0.12E-04    0.96E-07
   1     10    11.450     4.917    0.11E-03    0.11E-03    0.37E-06
   2     10    11.450   153.744    0.37E-03    0.81E-03    0.10E-05
   2     10    11.450   126.342    0.37E-03    0.81E-03    0.10E-05
  PAW_PBE Au 04Oct2007                  :
 energy of atom  1       EATOM= -926.0867
 kinetic energy error for atom=    0.0042 (will be added to EATOM!!)
  PAW_PBE Nb_sv 25May2007               :
 energy of atom  2       EATOM=-1555.1913
 kinetic energy error for atom=    0.0069 (will be added to EATOM!!)
 
 
 POSCAR: Au-Nb
  positions in direct lattice
  velocities in cartesian coordinates
 exchange correlation table for  LEXCH =        8
   RHO(1)=    0.500       N(1)  =     2000
   RHO(2)=  100.500       N(2)  =     4000

 VTST: version 3.2, (02/03/18)

 CHAIN: initializing optimizer
 
 OPT: Using VASP Conjugate-Gradient optimizer
 CHAIN: Read ICHAIN            0
 
 POSCAR: Au-Nb
  positions in direct lattice
  velocities in cartesian coordinates
 


--------------------------------------------------------------------------------------------------------


 ion  position               nearest neighbor table
   1  0.000  0.000  0.238-  16 2.94  12 2.94   6 2.94   8 2.94   7 2.94   3 2.94  10 2.94   4 2.94
                             2 2.94
   2  0.333  0.000  0.238-   9 2.94  11 2.94  17 2.94  10 2.94   8 2.94   4 2.94   5 2.94   1 2.94
                             3 2.94
   3  0.667  0.000  0.238-   7 2.94  18 2.94  12 2.94   1 2.94  11 2.94   5 2.94   6 2.94   9 2.94
                             2 2.94
   4  0.000  0.333  0.238-  10 2.94   6 2.94   5 2.94  13 2.94   2 2.94  15 2.94   9 2.94   1 2.94
                             7 2.94
   5  0.333  0.333  0.238-  13 2.94   7 2.94  11 2.94   4 2.94   2 2.94  14 2.94   3 2.94   8 2.94
                             6 2.94
   6  0.667  0.333  0.238-  15 2.94  14 2.94   1 2.94  12 2.94   4 2.94   9 2.94   8 2.94   3 2.94
                             5 2.94
   7  0.000  0.667  0.238-  18 2.94   3 2.94  16 2.94   5 2.94   1 2.94  13 2.94   8 2.94   4 2.94
                             9 2.94
   8  0.333  0.667  0.238-   9 2.94  17 2.94   1 2.94   2 2.94  14 2.94  16 2.94   6 2.94   7 2.94
                             5 2.94
   9  0.667  0.667  0.238-   2 2.94   8 2.94  17 2.94   6 2.94  15 2.94   4 2.94   3 2.94  18 2.94
                             7 2.94
  10  0.111  0.111  0.346-  20 2.91  11 2.94  17 2.94   2 2.94   4 2.94   1 2.94  12 2.94  16 2.94
                            13 2.94  15 2.94  26 2.95  19 2.95
  11  0.444  0.111  0.346-  20 2.91  21 2.91  13 2.94   2 2.94  10 2.94  17 2.94   5 2.94   3 2.94
                            18 2.94  14 2.94  12 2.94  27 2.94
  12  0.778  0.111  0.346-  21 2.91  16 2.94  18 2.94   1 2.94  14 2.94  15 2.94   3 2.94   6 2.94
                            10 2.94  11 2.94  25 2.95  19 2.95
  13  0.111  0.444  0.346-  23 2.91  20 2.91   5 2.94  18 2.94  11 2.94   7 2.94   4 2.94  16 2.94
                            10 2.94  14 2.94  15 2.94  22 2.94
  14  0.444  0.444  0.346-  21 2.91  23 2.91  15 2.94   6 2.94  12 2.94   8 2.94  17 2.94   5 2.94
                            16 2.94  13 2.94  11 2.94  24 2.94
  15  0.778  0.444  0.346-  24 2.93  22 2.93  14 2.94   6 2.94  17 2.94  12 2.94   9 2.94   4 2.94
                            10 2.94  13 2.94  18 2.94  19 2.94
  16  0.111  0.778  0.346-  23 2.91  18 2.94  12 2.94   7 2.94   1 2.94   8 2.94  13 2.94  10 2.94
                            14 2.94  17 2.94  25 2.95  26 2.95
  17  0.444  0.778  0.346-  27 2.93  24 2.93   9 2.94  15 2.94   2 2.94  10 2.94  11 2.94   8 2.94
                            14 2.94  16 2.94  18 2.94  26 2.94
  18  0.778  0.778  0.346-  22 2.93  27 2.93  16 2.94   7 2.94  13 2.94  12 2.94   3 2.94  11 2.94
                             9 2.94  15 2.94  17 2.94  25 2.94
  19  0.889  0.223  0.454-  24 2.93  22 2.93  21 2.94  20 2.94  15 2.94  26 2.94  25 2.94  10 2.95
                            12 2.95  28 2.95  32 3.04  31 3.04
  20  0.222  0.222  0.453-  36 2.78  10 2.91  11 2.91  13 2.91  26 2.94  19 2.94  23 2.94  21 2.94
                            27 2.95  22 2.95  29 2.99  31 2.99
  21  0.556  0.222  0.453-  36 2.78  12 2.91  14 2.91  11 2.91  25 2.94  19 2.94  20 2.94  23 2.94
                            27 2.95  24 2.95  30 2.99  32 2.99
  22  0.887  0.557  0.454-  24 2.91  27 2.91  18 2.93  15 2.93  25 2.93  19 2.93  13 2.94  23 2.95
                            20 2.95  35 2.96  33 3.02  31 3.02
  23  0.222  0.556  0.453-  36 2.78  16 2.91  13 2.91  14 2.91  25 2.94  26 2.94  20 2.94  21 2.94
                            22 2.95  24 2.95  33 2.99  34 2.99
  24  0.557  0.557  0.454-  27 2.91  22 2.91  15 2.93  17 2.93  26 2.93  19 2.93  14 2.94  21 2.95
                            23 2.95  35 2.96  32 3.02  34 3.02
  25  0.889  0.889  0.454-  22 2.93  27 2.93  23 2.94  21 2.94  18 2.94  19 2.94  26 2.94  16 2.95
                            12 2.95  28 2.95  33 3.04  30 3.04
  26  0.223  0.889  0.454-  27 2.93  24 2.93  20 2.94  23 2.94  17 2.94  19 2.94  25 2.94  10 2.95
                            16 2.95  28 2.95  29 3.04  34 3.04
  27  0.557  0.887  0.454-  24 2.91  22 2.91  17 2.93  18 2.93  26 2.93  25 2.93  11 2.94  20 2.95
                            21 2.95  35 2.96  29 3.02  30 3.02
  28  0.000  0.000  0.563-  25 2.95  19 2.95  26 2.95  34 2.98  32 2.98  33 2.98  30 2.98  31 2.98
                            29 2.98
  29  0.334  0.009  0.566-  30 2.85  31 2.86  36 2.87  35 2.98  28 2.98  20 2.99  27 3.02  26 3.04
                            34 3.10
  30  0.657  0.009  0.566-  29 2.85  32 2.86  36 2.87  35 2.98  28 2.98  21 2.99  27 3.02  25 3.04
                            33 3.10
  31  0.009  0.334  0.566-  33 2.85  29 2.86  36 2.87  35 2.98  28 2.98  20 2.99  22 3.02  19 3.04
                            32 3.10
  32  0.657  0.334  0.566-  34 2.85  30 2.86  36 2.87  35 2.98  28 2.98  21 2.99  24 3.02  19 3.04
                            31 3.10
  33  0.009  0.657  0.566-  31 2.85  34 2.86  36 2.87  35 2.98  28 2.98  23 2.99  22 3.02  25 3.04
                            30 3.10
  34  0.334  0.657  0.566-  32 2.85  33 2.86  36 2.87  35 2.98  28 2.98  23 2.99  24 3.02  26 3.04
                            29 3.10
  35  0.667  0.667  0.563-  24 2.96  27 2.96  22 2.96  29 2.98  34 2.98  32 2.98  31 2.98  30 2.98
                            33 2.98
  36  0.333  0.333  0.552-  20 2.78  23 2.78  21 2.78  33 2.87  31 2.87  29 2.87  30 2.87  34 2.87
                            32 2.87
 
  LATTYP: Found a hexagonal cell.
 ALAT       =     8.8135128021
 C/A-ratio  =     2.5184286595
  
  Lattice vectors:
  
 A1 = (  -4.4067569092,  -7.6327256898,   0.0000000000)
 A2 = (   8.8135128021,   0.0000000000,   0.0000000000)
 A3 = (   0.0000000000,   0.0000000000,  22.1962032318)


Analysis of symmetry for initial positions (statically):
=====================================================================
 Subroutine PRICEL returns:
 Original cell was already a primitive cell.
 

 Routine SETGRP: Setting up the symmetry group for a 
 hexagonal supercell.


 Subroutine GETGRP returns: Found  6 space group operations
 (whereof  6 operations were pure point group operations)
 out of a pool of 24 trial point group operations.


The static configuration has the point symmetry C_3v.


Analysis of symmetry for dynamics (positions and initial velocities):
=====================================================================
 Subroutine PRICEL returns:
 Original cell was already a primitive cell.
 

 Routine SETGRP: Setting up the symmetry group for a 
 hexagonal supercell.


 Subroutine GETGRP returns: Found  6 space group operations
 (whereof  6 operations were pure point group operations)
 out of a pool of 24 trial point group operations.


The dynamic configuration has the point symmetry C_3v.


Analysis of constrained symmetry for selective dynamics:
=====================================================================
 Subroutine PRICEL returns:
 Original cell was already a primitive cell.
 

 Routine SETGRP: Setting up the symmetry group for a 
 hexagonal supercell.


 Subroutine GETGRP returns: Found  6 space group operations
 (whereof  6 operations were pure point group operations)
 out of a pool of 24 trial point group operations.


The constrained configuration has the point symmetry C_3v.


 Subroutine INISYM returns: Found  6 space group operations
 (whereof  6 operations are pure point group operations),
 and found     1 'primitive' translations


----------------------------------------------------------------------------------------

                                     Primitive cell                                     

  volume of cell :    1493.1636

  direct lattice vectors                    reciprocal lattice vectors
     8.813512802  0.000000000  0.000000000     0.113462137 -0.065507406  0.000000000
     4.406756909  7.632725690  0.000000000     0.000000000  0.131014796  0.000000000
     0.000000000  0.000000000 22.196203232     0.000000000  0.000000000  0.045052750

  length of vectors
     8.813512802  8.813512802 22.196203232     0.131014796  0.131014796  0.045052750

  position of ions in fractional coordinates (direct lattice)
     0.000000000  0.000000000  0.237895638
     0.333333343  0.000000000  0.237895638
     0.666666687  0.000000000  0.237895638
     1.000000000  0.333333343  0.237895638
     0.333333313  0.333333343  0.237895638
     0.666666687  0.333333343  0.237895638
     1.000000000  0.666666687  0.237895638
     0.333333343  0.666666687  0.237895638
     0.666666627  0.666666687  0.237895638
     0.111111119  0.111111112  0.345965207
     0.444444418  0.111111112  0.345965207
     0.777777791  0.111111112  0.345965207
     0.111111127  0.444444448  0.345965207
     0.444444478  0.444444448  0.345965207
     0.777777731  0.444444448  0.345965207
     0.111111090  0.777777791  0.345965207
     0.444444448  0.777777791  0.345965207
     0.777777851  0.777777791  0.345965207
     0.888618023  0.222763970  0.454446333
     0.222009851  0.222009836  0.452661401
     0.555980358  0.222009836  0.452661401
     0.886669919  0.556665071  0.453631222
     0.222009806  0.555980358  0.452661401
     0.556665071  0.556665071  0.453631222
     0.888618023  0.888618023  0.454446333
     0.222764000  0.888618023  0.454446333
     0.556665011  0.886669919  0.453631222
     0.000000000  0.000000000  0.563133560
     0.333745784  0.009183304  0.565704203
     0.657070942  0.009183304  0.565704203
     0.009183304  0.333745784  0.565704203
     0.657070942  0.333745784  0.565704203
     0.009183304  0.657070942  0.565704203
     0.333745784  0.657070942  0.565704203
     0.666666627  0.666666687  0.563383642
     0.333333313  0.333333343  0.551633869

  ion indices of the primitive-cell ions
   primitive index   ion index
                 1           1
                 2           2
                 3           3
                 4           4
                 5           5
                 6           6
                 7           7
                 8           8
                 9           9
                10          10
                11          11
                12          12
                13          13
                14          14
                15          15
                16          16
                17          17
                18          18
                19          19
                20          20
                21          21
                22          22
                23          23
                24          24
                25          25
                26          26
                27          27
                28          28
                29          29
                30          30
                31          31
                32          32
                33          33
                34          34
                35          35
                36          36

----------------------------------------------------------------------------------------

 
 
 KPOINTS: Automatic mesh                          

Automatic generation of k-mesh.
 Grid dimensions read from file:
 generate k-points for:    8    8    1

 Generating k-lattice:

  Cartesian coordinates                     Fractional coordinates (reciprocal lattice)
     0.014182767 -0.008188426  0.000000000     0.125000000 -0.000000000  0.000000000
     0.000000000  0.016376850  0.000000000     0.000000000  0.125000000  0.000000000
     0.000000000  0.000000000  0.045052750     0.000000000  0.000000000  1.000000000

  Length of vectors
     0.016376850  0.016376850  0.045052750

  Shift w.r.t. Gamma in fractional coordinates (k-lattice)
     0.000000000  0.000000000  0.000000000

 TETIRR: Found     36 inequivalent tetrahedra from      384
 
 Subroutine IBZKPT returns following result:
 ===========================================
 
 Found     10 irreducible k-points:
 
 Following reciprocal coordinates:
            Coordinates               Weight
  0.000000  0.000000  0.000000      1.000000
  0.125000 -0.000000  0.000000      6.000000
  0.250000 -0.000000  0.000000      6.000000
  0.375000  0.000000  0.000000      6.000000
  0.500000 -0.000000  0.000000      3.000000
  0.250000  0.125000  0.000000      6.000000
  0.375000  0.125000  0.000000     12.000000
  0.500000  0.125000  0.000000     12.000000
  0.500000  0.250000  0.000000      6.000000
 -0.375000  0.250000  0.000000      6.000000
 
 Following cartesian coordinates:
            Coordinates               Weight
  0.000000  0.000000  0.000000      1.000000
  0.014183 -0.008188  0.000000      6.000000
  0.028366 -0.016377  0.000000      6.000000
  0.042548 -0.024565  0.000000      6.000000
  0.056731 -0.032754  0.000000      3.000000
  0.028366 -0.000000  0.000000      6.000000
  0.042548 -0.008188  0.000000     12.000000
  0.056731 -0.016377  0.000000     12.000000
  0.056731 -0.000000  0.000000      6.000000
 -0.042548  0.057319  0.000000      6.000000
 


--------------------------------------------------------------------------------------------------------




 Dimension of arrays:
   k-points           NKPTS =     10   k-points in BZ     NKDIM =     10   number of bands    NBANDS=    252
   number of dos      NEDOS =    301   number of ions     NIONS =     36
   non local maximal  LDIM  =      6   non local SUM 2l+1 LMDIM =     18
   total plane-waves  NPLWV = 290304
   max r-space proj   IRMAX =   3166   max aug-charges    IRDMAX=  12088
   dimension x,y,z NGX =    48 NGY =   48 NGZ =  126
   dimension x,y,z NGXF=    96 NGYF=   96 NGZF=  252
   support grid    NGXF=    96 NGYF=   96 NGZF=  252
   ions per type =              35   1
   NGX,Y,Z   is equivalent  to a cutoff of   9.05,  9.05,  9.44 a.u.
   NGXF,Y,Z  is equivalent  to a cutoff of  18.11, 18.11, 18.87 a.u.

 SYSTEM =  unknown system                          
 POSCAR =  Au-Nb                                   

 Startparameter for this run:
   NWRITE =      2    write-flag & timer
   PREC   = normal    normal or accurate (medium, high low for compatibility)
   ISTART =      0    job   : 0-new  1-cont  2-samecut
   ICHARG =     11    charge: 1-file 2-atom 10-const
   ISPIN  =      1    spin polarized calculation?
   LNONCOLLINEAR =      F non collinear calculations
   LSORBIT =      F    spin-orbit coupling
   INIWAV =      1    electr: 0-lowe 1-rand  2-diag
   LASPH  =      F    aspherical Exc in radial PAW
   METAGGA=      F    non-selfconsistent MetaGGA calc.

 Electronic Relaxation 1
   ENCUT  =  500.0 eV  36.75 Ry    6.06 a.u.  16.07 16.07 40.47*2*pi/ulx,y,z
   ENINI  =  500.0     initial cutoff
   ENAUG  =  455.7 eV  augmentation charge cutoff
   NELM   =    150;   NELMIN=  2; NELMDL= -5     # of ELM steps 
   EDIFF  = 0.1E-04   stopping-criterion for ELM
   LREAL  =      T    real-space projection
   NLSPLINE    = F    spline interpolate recip. space projectors
   LCOMPAT=      F    compatible to vasp.4.4
   GGA_COMPAT  = T    GGA compatible to vasp.4.4-vasp.4.6
   LMAXPAW     = -100 max onsite density
   LMAXMIX     =    2 max onsite mixed and CHGCAR
   VOSKOWN=      0    Vosko Wilk Nusair interpolation
   ROPT   =   -0.00050  -0.00050
 Ionic relaxation
   EDIFFG = -.1E-01   stopping-criterion for IOM
   NSW    =      0    number of steps for IOM
   NBLOCK =      1;   KBLOCK =      1    inner block; outer block 
   IBRION =     -1    ionic relax: 0-MD 1-quasi-New 2-CG
   NFREE  =      1    steps in history (QN), initial steepest desc. (CG)
   ISIF   =      2    stress and relaxation
   IWAVPR =     10    prediction:  0-non 1-charg 2-wave 3-comb
   ISYM   =      2    0-nonsym 1-usesym 2-fastsym
   LCORR  =      T    Harris-Foulkes like correction to forces

   POTIM  = 0.5000    time-step for ionic-motion
   TEIN   =    0.0    initial temperature
   TEBEG  =    0.0;   TEEND  =   0.0 temperature during run
   SMASS  =  -3.00    Nose mass-parameter (am)
   estimated Nose-frequenzy (Omega)   =  0.10E-29 period in steps = 0.13E+47 mass=  -0.178E-26a.u.
   SCALEE = 1.0000    scale energy and forces
   NPACO  =    256;   APACO  = 16.0  distance and # of slots for P.C.
   PSTRESS=    0.0 pullay stress

  Mass of Ions in am
   POMASS = 196.97 92.91
  Ionic Valenz
   ZVAL   =  11.00 13.00
  Atomic Wigner-Seitz radii
   RWIGS  =  -1.00 -1.00
  virtual crystal weights 
   VCA    =   1.00  1.00
   NELECT =     398.0000    total number of electrons
   NUPDOWN=      -1.0000    fix difference up-down

 DOS related values:
   EMIN   =  10.00;   EMAX   =-10.00  energy-range for DOS
   EFERMI =   0.00
   ISMEAR =    -5;   SIGMA  =   0.10  broadening in eV -4-tet -1-fermi 0-gaus

 Electronic relaxation 2 (details)
   IALGO  =     68    algorithm
   LDIAG  =      T    sub-space diagonalisation (order eigenvalues)
   LSUBROT=      F    optimize rotation matrix (better conditioning)
   TURBO    =      0    0=normal 1=particle mesh
   IRESTART =      0    0=no restart 2=restart with 2 vectors
   NREBOOT  =      0    no. of reboots
   NMIN     =      0    reboot dimension
   EREF     =   0.00    reference energy to select bands
   IMIX   =      4    mixing-type and parameters
     AMIX     =   0.40;   BMIX     =  1.00
     AMIX_MAG =   1.60;   BMIX_MAG =  1.00
     AMIN     =   0.10
     WC   =   100.;   INIMIX=   1;  MIXPRE=   1;  MAXMIX= -45

 Intra band minimization:
   WEIMIN = 0.0000     energy-eigenvalue tresh-hold
   EBREAK =  0.99E-08  absolut break condition
   DEPER  =   0.30     relativ break condition  

   TIME   =   0.40     timestep for ELM

  volume/ion in A,a.u.               =      41.48       279.90
  Fermi-wavevector in a.u.,A,eV,Ry     =   1.053578  1.990974 15.102831  1.110027
  Thomas-Fermi vector in A             =   2.188705
 
 Write flags
   LWAVE        =      F    write WAVECAR
   LDOWNSAMPLE  =      F    k-point downsampling of WAVECAR
   LCHARG       =      F    write CHGCAR
   LVTOT        =      F    write LOCPOT, total local potential
   LVHAR        =      F    write LOCPOT, Hartree potential only
   LELF         =      F    write electronic localiz. function (ELF)
   LORBIT       =     10    0 simple, 1 ext, 2 COOP (PROOUT), +10 PAW based schemes


 Dipole corrections
   LMONO  =      F    monopole corrections only (constant potential shift)
   LDIPOL =      F    correct potential (dipole corrections)
   IDIPOL =      0    1-x, 2-y, 3-z, 4-all directions 
   EPSILON=  1.0000000 bulk dielectric constant

 Exchange correlation treatment:
   GGA     =    --    GGA type
   LEXCH   =     8    internal setting for exchange type
   VOSKOWN=      0    Vosko Wilk Nusair interpolation
   LHFCALC =     F    Hartree Fock is set to
   LHFONE  =     F    Hartree Fock one center treatment
   AEXX    =    0.0000 exact exchange contribution

 Linear response parameters
   LEPSILON=     F    determine dielectric tensor
   LRPA    =     F    only Hartree local field effects (RPA)
   LNABLA  =     F    use nabla operator in PAW spheres
   LVEL    =     F    velocity operator in full k-point grid
   LINTERFAST=   F  fast interpolation
   KINTER  =     0    interpolate to denser k-point grid
   CSHIFT  =0.1000    complex shift for real part using Kramers Kronig
   OMEGAMAX=  -1.0    maximum frequency
   DEG_THRESHOLD= 0.2000000E-02 threshold for treating states as degnerate
   RTIME   =   -0.100 relaxation time in fs
  (WPLASMAI=    0.000 imaginary part of plasma frequency in eV, 0.658/RTIME)
   DFIELD  = 0.0000000 0.0000000 0.0000000 field for delta impulse in time
 
 Orbital magnetization related:
   ORBITALMAG=     F  switch on orbital magnetization
   LCHIMAG   =     F  perturbation theory with respect to B field
   DQ        =  0.001000  dq finite difference perturbation B field
   LLRAUG    =     F  two centre corrections for induced B field



--------------------------------------------------------------------------------------------------------


 Static calculation
 charge density and potential remain constant during run
 non-spin polarized calculation
 RMM-DIIS sequential band-by-band and
  variant of blocked Davidson during initial phase
 perform sub-space diagonalisation
    before iterative eigenvector-optimisation
 no mixing
 using additional bands           53
 real space projection scheme for non local part
 use partial core corrections
 calculate Harris-corrections to forces 
   (improved forces if not selfconsistent)
 use gradient corrections 
 WARNING: stress and forces are not correct
  (second derivative of E(xc) not defined)
 use of overlap-Matrix (Vanderbilt PP)
 Fermi weights with tetrahedron method with Bloechl corrections


--------------------------------------------------------------------------------------------------------


  energy-cutoff  :      500.00
  volume of cell :     1493.16
      direct lattice vectors                 reciprocal lattice vectors
     8.813512802  0.000000000  0.000000000     0.113462137 -0.065507406  0.000000000
     4.406756909  7.632725690  0.000000000     0.000000000  0.131014796  0.000000000
     0.000000000  0.000000000 22.196203232     0.000000000  0.000000000  0.045052750

  length of vectors
     8.813512802  8.813512802 22.196203232     0.131014796  0.131014796  0.045052750


 
 k-points in units of 2pi/SCALE and weight: Automatic mesh                          
   0.00000000  0.00000000  0.00000000       0.016
   0.01418277 -0.00818843  0.00000000       0.094
   0.02836553 -0.01637685  0.00000000       0.094
   0.04254830 -0.02456528  0.00000000       0.094
   0.05673107 -0.03275370  0.00000000       0.047
   0.02836553 -0.00000000  0.00000000       0.094
   0.04254830 -0.00818843  0.00000000       0.188
   0.05673107 -0.01637685  0.00000000       0.188
   0.05673107 -0.00000000  0.00000000       0.094
  -0.04254830  0.05731898  0.00000000       0.094
 
 k-points in reciprocal lattice and weights: Automatic mesh                          
   0.00000000  0.00000000  0.00000000       0.016
   0.12500000 -0.00000000  0.00000000       0.094
   0.25000000 -0.00000000  0.00000000       0.094
   0.37500000  0.00000000  0.00000000       0.094
   0.50000000 -0.00000000  0.00000000       0.047
   0.25000000  0.12500000  0.00000000       0.094
   0.37500000  0.12500000  0.00000000       0.188
   0.50000000  0.12500000  0.00000000       0.188
   0.50000000  0.25000000  0.00000000       0.094
  -0.37500000  0.25000000  0.00000000       0.094
 
 position of ions in fractional coordinates (direct lattice) 
   0.00000000  0.00000000  0.23789564
   0.33333334  0.00000000  0.23789564
   0.66666669  0.00000000  0.23789564
   0.00000000  0.33333334  0.23789564
   0.33333331  0.33333334  0.23789564
   0.66666669  0.33333334  0.23789564
   0.00000000  0.66666669  0.23789564
   0.33333334  0.66666669  0.23789564
   0.66666663  0.66666669  0.23789564
   0.11111112  0.11111111  0.34596521
   0.44444442  0.11111111  0.34596521
   0.77777779  0.11111111  0.34596521
   0.11111113  0.44444445  0.34596521
   0.44444448  0.44444445  0.34596521
   0.77777773  0.44444445  0.34596521
   0.11111109  0.77777779  0.34596521
   0.44444445  0.77777779  0.34596521
   0.77777785  0.77777779  0.34596521
   0.88861802  0.22276397  0.45444633
   0.22200985  0.22200984  0.45266140
   0.55598036  0.22200984  0.45266140
   0.88666992  0.55666507  0.45363122
   0.22200981  0.55598036  0.45266140
   0.55666507  0.55666507  0.45363122
   0.88861802  0.88861802  0.45444633
   0.22276400  0.88861802  0.45444633
   0.55666501  0.88666992  0.45363122
   0.00000000  0.00000000  0.56313356
   0.33374578  0.00918330  0.56570420
   0.65707094  0.00918330  0.56570420
   0.00918330  0.33374578  0.56570420
   0.65707094  0.33374578  0.56570420
   0.00918330  0.65707094  0.56570420
   0.33374578  0.65707094  0.56570420
   0.66666663  0.66666669  0.56338364
   0.33333331  0.33333334  0.55163387
 
 position of ions in cartesian coordinates  (Angst):
   0.00000000  0.00000000  5.28037993
   2.93783769  0.00000000  5.28037993
   5.87567538  0.00000000  5.28037993
   1.46891901  2.54424197  5.28037993
   4.40675643  2.54424197  5.28037993
   7.34459439  2.54424197  5.28037993
   2.93783803  5.08848395  5.28037993
   5.87567571  5.08848395  5.28037993
   8.81351288  5.08848395  5.28037993
   1.46891893  0.84808064  7.67911405
   4.40675623  0.84808064  7.67911405
   7.34459418  0.84808064  7.67911405
   2.93783798  3.39232256  7.67911405
   5.87567574  3.39232256  7.67911405
   8.81351263  3.39232256  7.67911405
   4.40675667  5.93656453  7.67911405
   7.34459449  5.93656453  7.67911405
  10.28243270  5.93656453  7.67911405
   8.81351299  1.70029628 10.08698316
   2.93503004  1.69454018 10.04736446
   5.87848338  1.69454018 10.04736446
  10.26776433  4.24887178 10.06889079
   4.40675655  4.24364556 10.04736446
   7.35926237  4.24887178 10.06889079
  11.74776993  6.78257761 10.08698316
   5.87925698  6.78257761 10.08698316
   8.81351299  6.76770827 10.06889079
   0.00000000  0.00000000 12.49942695
   2.98194133  0.07009364 12.55648547
   5.83157175  0.07009364 12.55648547
   1.55167371  2.54739002 12.55648547
   7.26183970  2.54739002 12.55648547
   2.97648908  5.01524226 12.55648547
   5.83702465  5.01524226 12.55648547
   8.81351288  5.08848395 12.50497782
   4.40675643  2.54424197 12.24417747
 


--------------------------------------------------------------------------------------------------------


 k-point   1 :   0.0000 0.0000 0.0000  plane waves:   37827
 k-point   2 :   0.1250-0.0000 0.0000  plane waves:   37876
 k-point   3 :   0.2500-0.0000 0.0000  plane waves:   37924
 k-point   4 :   0.3750 0.0000 0.0000  plane waves:   37904
 k-point   5 :   0.5000-0.0000 0.0000  plane waves:   37912
 k-point   6 :   0.2500 0.1250 0.0000  plane waves:   37858
 k-point   7 :   0.3750 0.1250 0.0000  plane waves:   37928
 k-point   8 :   0.5000 0.1250 0.0000  plane waves:   37924
 k-point   9 :   0.5000 0.2500 0.0000  plane waves:   37926
 k-point  10 :  -0.3750 0.2500 0.0000  plane waves:   37916

 maximum and minimum number of plane-waves per node :     37928    37827

 maximum number of plane-waves:     37928
 maximum index in each direction: 
   IXMAX=   16   IYMAX=   16   IZMAX=   40
   IXMIN=  -16   IYMIN=  -16   IZMIN=  -40


 serial   3D FFT for wavefunctions
 parallel 3D FFT for charge:
    minimum data exchange during FFTs selected (reduces bandwidth)


 total amount of memory used by VASP MPI-rank0   121726. kBytes
=======================================================================

   base      :      30000. kBytes
   nonlr-proj:      14138. kBytes
   fftplans  :       4330. kBytes
   grid      :      17098. kBytes
   one-center:        559. kBytes
   wavefun   :      55601. kBytes
 
     INWAV:  cpu time    0.0001: real time    0.0001
 initial charge density was supplied:
 number of electron     398.0000070 magnetization 
 keeping initial charge density in first step


--------------------------------------------------------------------------------------------------------


 Maximum index for non-local projection operator         3066
 Maximum index for augmentation-charges          863 (set IRDMAX)


--------------------------------------------------------------------------------------------------------


 First call to EWALD:  gamma=   0.155
 Maximum number of real-space cells 4x 4x 2
 Maximum number of reciprocal cells 2x 2x 5

    FEWALD:  cpu time    0.0014: real time    0.0014


--------------------------------------- Iteration      1(   1)  ---------------------------------------


    POTLOK:  cpu time    0.0555: real time    0.0561
    SETDIJ:  cpu time    0.0056: real time    0.0058
     EDDAV:  cpu time   11.9480: real time   11.9890
 BZINTS: Fermi energy:   11.471919;  398.000000 electrons
         Band energy: 0.137168E+04;  BLOECHL correction:   -0.036368
       DOS:  cpu time    0.0115: real time    0.0115
    --------------------------------------------
      LOOP:  cpu time   12.0207: real time   12.0624

 eigenvalue-minimisations  :  5040
 total energy-change (2. order) : 0.2700262E+04  (-0.1822790E+05)
 number of electron     398.0000070 magnetization 
 augmentation part      398.0000070 magnetization 

 Free energy of the ion-electron system (eV)
  ---------------------------------------------------
  alpha Z        PSCENC =      1018.43440821
  Ewald energy   TEWEN  =     97213.32600228
  -Hartree energ DENC   =   -132191.01619493
  -exchange      EXHF   =         0.00000000
  -V(xc)+E(xc)   XCENC  =       572.49456681
  PAW double counting   =     36405.03548508   -35657.76242388
  entropy T*S    EENTRO =         0.00000000
  eigenvalues    EBANDS =      1371.67998021
  atomic energy  EATOM  =     33968.07065142
  Solvation  Ediel_sol  =         0.00000000
  ---------------------------------------------------
  free energy    TOTEN  =      2700.26247520 eV

  energy without entropy =     2700.26247520  energy(sigma->0) =     2700.26247520


--------------------------------------------------------------------------------------------------------




--------------------------------------- Iteration      1(   2)  ---------------------------------------


     EDDAV:  cpu time   13.7075: real time   13.7517
 BZINTS: Fermi energy:    1.659245;  398.000000 electrons
         Band energy:-0.130518E+04;  BLOECHL correction:   -0.033408
       DOS:  cpu time    0.0125: real time    0.0125
    --------------------------------------------
      LOOP:  cpu time   13.7200: real time   13.7642

 eigenvalue-minimisations  :  5628
 total energy-change (2. order) :-0.2676864E+04  (-0.2483071E+04)
 number of electron     398.0000070 magnetization 
 augmentation part      398.0000070 magnetization 

 Free energy of the ion-electron system (eV)
  ---------------------------------------------------
  alpha Z        PSCENC =      1018.43440821
  Ewald energy   TEWEN  =     97213.32600228
  -Hartree energ DENC   =   -132191.01619493
  -exchange      EXHF   =         0.00000000
  -V(xc)+E(xc)   XCENC  =       572.49456681
  PAW double counting   =     36405.03548508   -35657.76242388
  entropy T*S    EENTRO =         0.00000000
  eigenvalues    EBANDS =     -1305.18354627
  atomic energy  EATOM  =     33968.07065142
  Solvation  Ediel_sol  =         0.00000000
  ---------------------------------------------------
  free energy    TOTEN  =        23.39894872 eV

  energy without entropy =       23.39894872  energy(sigma->0) =       23.39894872


--------------------------------------------------------------------------------------------------------




--------------------------------------- Iteration      1(   3)  ---------------------------------------


     EDDAV:  cpu time   15.1919: real time   15.2337
 BZINTS: Fermi energy:    0.848053;  398.000000 electrons
         Band energy:-0.144039E+04;  BLOECHL correction:   -0.027758
       DOS:  cpu time    0.0113: real time    0.0113
    --------------------------------------------
      LOOP:  cpu time   15.2031: real time   15.2449

 eigenvalue-minimisations  :  6468
 total energy-change (2. order) :-0.1352079E+03  (-0.1303081E+03)
 number of electron     398.0000070 magnetization 
 augmentation part      398.0000070 magnetization 

 Free energy of the ion-electron system (eV)
  ---------------------------------------------------
  alpha Z        PSCENC =      1018.43440821
  Ewald energy   TEWEN  =     97213.32600228
  -Hartree energ DENC   =   -132191.01619493
  -exchange      EXHF   =         0.00000000
  -V(xc)+E(xc)   XCENC  =       572.49456681
  PAW double counting   =     36405.03548508   -35657.76242388
  entropy T*S    EENTRO =         0.00000000
  eigenvalues    EBANDS =     -1440.39142968
  atomic energy  EATOM  =     33968.07065142
  Solvation  Ediel_sol  =         0.00000000
  ---------------------------------------------------
  free energy    TOTEN  =      -111.80893468 eV

  energy without entropy =     -111.80893468  energy(sigma->0) =     -111.80893468


--------------------------------------------------------------------------------------------------------




--------------------------------------- Iteration      1(   4)  ---------------------------------------


     EDDAV:  cpu time   15.3231: real time   15.3663
 BZINTS: Fermi energy:    0.813936;  398.000000 electrons
         Band energy:-0.144465E+04;  BLOECHL correction:   -0.028432
       DOS:  cpu time    0.0101: real time    0.0101
    --------------------------------------------
      LOOP:  cpu time   15.3331: real time   15.3764

 eigenvalue-minimisations  :  7616
 total energy-change (2. order) :-0.4259238E+01  (-0.4223674E+01)
 number of electron     398.0000070 magnetization 
 augmentation part      398.0000070 magnetization 

 Free energy of the ion-electron system (eV)
  ---------------------------------------------------
  alpha Z        PSCENC =      1018.43440821
  Ewald energy   TEWEN  =     97213.32600228
  -Hartree energ DENC   =   -132191.01619493
  -exchange      EXHF   =         0.00000000
  -V(xc)+E(xc)   XCENC  =       572.49456681
  PAW double counting   =     36405.03548508   -35657.76242388
  entropy T*S    EENTRO =         0.00000000
  eigenvalues    EBANDS =     -1444.65066732
  atomic energy  EATOM  =     33968.07065142
  Solvation  Ediel_sol  =         0.00000000
  ---------------------------------------------------
  free energy    TOTEN  =      -116.06817233 eV

  energy without entropy =     -116.06817233  energy(sigma->0) =     -116.06817233


--------------------------------------------------------------------------------------------------------




--------------------------------------- Iteration      1(   5)  ---------------------------------------


     EDDAV:  cpu time    9.8338: real time    9.8363
 BZINTS: Fermi energy:    0.812654;  398.000000 electrons
         Band energy:-0.144474E+04;  BLOECHL correction:   -0.028566
       DOS:  cpu time    0.0121: real time    0.0121
    --------------------------------------------
      LOOP:  cpu time    9.8459: real time    9.8484

 eigenvalue-minimisations  :  6300
 total energy-change (2. order) :-0.9315422E-01  (-0.9307925E-01)
 number of electron     398.0000070 magnetization 
 augmentation part      398.0000070 magnetization 

 Free energy of the ion-electron system (eV)
  ---------------------------------------------------
  alpha Z        PSCENC =      1018.43440821
  Ewald energy   TEWEN  =     97213.32600228
  -Hartree energ DENC   =   -132191.01619493
  -exchange      EXHF   =         0.00000000
  -V(xc)+E(xc)   XCENC  =       572.49456681
  PAW double counting   =     36405.03548508   -35657.76242388
  entropy T*S    EENTRO =         0.00000000
  eigenvalues    EBANDS =     -1444.74382154
  atomic energy  EATOM  =     33968.07065142
  Solvation  Ediel_sol  =         0.00000000
  ---------------------------------------------------
  free energy    TOTEN  =      -116.16132655 eV

  energy without entropy =     -116.16132655  energy(sigma->0) =     -116.16132655


--------------------------------------------------------------------------------------------------------




--------------------------------------- Iteration      1(   6)  ---------------------------------------


    EDDIAG:  cpu time    2.1251: real time    2.1255
  RMM-DIIS:  cpu time    9.5566: real time    9.5906
    ORTHCH:  cpu time    0.4009: real time    0.4009
 BZINTS: Fermi energy:    0.812634;  398.000000 electrons
         Band energy:-0.144475E+04;  BLOECHL correction:   -0.028571
       DOS:  cpu time    0.0121: real time    0.0121
    --------------------------------------------
      LOOP:  cpu time   12.0947: real time   12.1292

 eigenvalue-minimisations  :  7210
 total energy-change (2. order) :-0.2093974E-02  (-0.2091684E-02)
 number of electron     398.0000070 magnetization 
 augmentation part      398.0000070 magnetization 

 Free energy of the ion-electron system (eV)
  ---------------------------------------------------
  alpha Z        PSCENC =      1018.43440821
  Ewald energy   TEWEN  =     97213.32600228
  -Hartree energ DENC   =   -132191.01619493
  -exchange      EXHF   =         0.00000000
  -V(xc)+E(xc)   XCENC  =       572.49456681
  PAW double counting   =     36405.03548508   -35657.76242388
  entropy T*S    EENTRO =         0.00000000
  eigenvalues    EBANDS =     -1444.74591552
  atomic energy  EATOM  =     33968.07065142
  Solvation  Ediel_sol  =         0.00000000
  ---------------------------------------------------
  free energy    TOTEN  =      -116.16342052 eV

  energy without entropy =     -116.16342052  energy(sigma->0) =     -116.16342052


--------------------------------------------------------------------------------------------------------




--------------------------------------- Iteration      1(   7)  ---------------------------------------


    EDDIAG:  cpu time    2.0265: real time    2.0335
  RMM-DIIS:  cpu time   12.6266: real time   12.6368
    ORTHCH:  cpu time    0.3806: real time    0.3807
 BZINTS: Fermi energy:    0.812626;  398.000000 electrons
         Band energy:-0.144475E+04;  BLOECHL correction:   -0.028573
       DOS:  cpu time    0.0127: real time    0.0127
    --------------------------------------------
      LOOP:  cpu time   15.0463: real time   15.0637

 eigenvalue-minimisations  :  9521
 total energy-change (2. order) :-0.1264461E-02  (-0.1227381E-02)
 number of electron     398.0000070 magnetization 
 augmentation part      398.0000070 magnetization 

 Free energy of the ion-electron system (eV)
  ---------------------------------------------------
  alpha Z        PSCENC =      1018.43440821
  Ewald energy   TEWEN  =     97213.32600228
  -Hartree energ DENC   =   -132191.01619493
  -exchange      EXHF   =         0.00000000
  -V(xc)+E(xc)   XCENC  =       572.49456681
  PAW double counting   =     36405.03548508   -35657.76242388
  entropy T*S    EENTRO =         0.00000000
  eigenvalues    EBANDS =     -1444.74717998
  atomic energy  EATOM  =     33968.07065142
  Solvation  Ediel_sol  =         0.00000000
  ---------------------------------------------------
  free energy    TOTEN  =      -116.16468498 eV

  energy without entropy =     -116.16468498  energy(sigma->0) =     -116.16468498


--------------------------------------------------------------------------------------------------------




--------------------------------------- Iteration      1(   8)  ---------------------------------------


    EDDIAG:  cpu time    2.1063: real time    2.1073
  RMM-DIIS:  cpu time   11.8107: real time   11.8203
    ORTHCH:  cpu time    0.3584: real time    0.3585
 BZINTS: Fermi energy:    0.812624;  398.000000 electrons
         Band energy:-0.144475E+04;  BLOECHL correction:   -0.028574
       DOS:  cpu time    0.0126: real time    0.0126
    --------------------------------------------
      LOOP:  cpu time   14.2879: real time   14.2988

 eigenvalue-minimisations  :  8701
 total energy-change (2. order) :-0.2358090E-03  (-0.2134427E-03)
 number of electron     398.0000070 magnetization 
 augmentation part      398.0000070 magnetization 

 Free energy of the ion-electron system (eV)
  ---------------------------------------------------
  alpha Z        PSCENC =      1018.43440821
  Ewald energy   TEWEN  =     97213.32600228
  -Hartree energ DENC   =   -132191.01619493
  -exchange      EXHF   =         0.00000000
  -V(xc)+E(xc)   XCENC  =       572.49456681
  PAW double counting   =     36405.03548508   -35657.76242388
  entropy T*S    EENTRO =         0.00000000
  eigenvalues    EBANDS =     -1444.74741579
  atomic energy  EATOM  =     33968.07065142
  Solvation  Ediel_sol  =         0.00000000
  ---------------------------------------------------
  free energy    TOTEN  =      -116.16492079 eV

  energy without entropy =     -116.16492079  energy(sigma->0) =     -116.16492079


--------------------------------------------------------------------------------------------------------




--------------------------------------- Iteration      1(   9)  ---------------------------------------


    EDDIAG:  cpu time    2.1055: real time    2.1122
  RMM-DIIS:  cpu time    9.5817: real time    9.5998
    ORTHCH:  cpu time    0.3817: real time    0.3817
 BZINTS: Fermi energy:    0.812623;  398.000000 electrons
         Band energy:-0.144475E+04;  BLOECHL correction:   -0.028574
       DOS:  cpu time    0.0118: real time    0.0118
    --------------------------------------------
      LOOP:  cpu time   12.0807: real time   12.1055

 eigenvalue-minimisations  :  7001
 total energy-change (2. order) :-0.8680194E-04  (-0.8117039E-04)
 number of electron     398.0000070 magnetization 
 augmentation part      398.0000070 magnetization 

 Free energy of the ion-electron system (eV)
  ---------------------------------------------------
  alpha Z        PSCENC =      1018.43440821
  Ewald energy   TEWEN  =     97213.32600228
  -Hartree energ DENC   =   -132191.01619493
  -exchange      EXHF   =         0.00000000
  -V(xc)+E(xc)   XCENC  =       572.49456681
  PAW double counting   =     36405.03548508   -35657.76242388
  entropy T*S    EENTRO =         0.00000000
  eigenvalues    EBANDS =     -1444.74750259
  atomic energy  EATOM  =     33968.07065142
  Solvation  Ediel_sol  =         0.00000000
  ---------------------------------------------------
  free energy    TOTEN  =      -116.16500759 eV

  energy without entropy =     -116.16500759  energy(sigma->0) =     -116.16500759


--------------------------------------------------------------------------------------------------------




--------------------------------------- Iteration      1(  10)  ---------------------------------------


    EDDIAG:  cpu time    2.0192: real time    2.0195
  RMM-DIIS:  cpu time    8.8869: real time    8.8871
    ORTHCH:  cpu time    0.3767: real time    0.3767
 BZINTS: Fermi energy:    0.812623;  398.000000 electrons
         Band energy:-0.144475E+04;  BLOECHL correction:   -0.028574
       DOS:  cpu time    0.0135: real time    0.0135
    --------------------------------------------
      LOOP:  cpu time   11.2963: real time   11.2969

 eigenvalue-minimisations  :  6446
 total energy-change (2. order) :-0.3200816E-04  (-0.3276639E-04)
 number of electron     398.0000070 magnetization 
 augmentation part      398.0000070 magnetization 

 Free energy of the ion-electron system (eV)
  ---------------------------------------------------
  alpha Z        PSCENC =      1018.43440821
  Ewald energy   TEWEN  =     97213.32600228
  -Hartree energ DENC   =   -132191.01619493
  -exchange      EXHF   =         0.00000000
  -V(xc)+E(xc)   XCENC  =       572.49456681
  PAW double counting   =     36405.03548508   -35657.76242388
  entropy T*S    EENTRO =         0.00000000
  eigenvalues    EBANDS =     -1444.74753460
  atomic energy  EATOM  =     33968.07065142
  Solvation  Ediel_sol  =         0.00000000
  ---------------------------------------------------
  free energy    TOTEN  =      -116.16503960 eV

  energy without entropy =     -116.16503960  energy(sigma->0) =     -116.16503960


--------------------------------------------------------------------------------------------------------




--------------------------------------- Iteration      1(  11)  ---------------------------------------


    EDDIAG:  cpu time    2.1684: real time    2.1686
  RMM-DIIS:  cpu time    9.5644: real time    9.5645
    ORTHCH:  cpu time    0.3592: real time    0.3630
 BZINTS: Fermi energy:    0.812622;  398.000000 electrons
         Band energy:-0.144475E+04;  BLOECHL correction:   -0.028575
       DOS:  cpu time    0.0125: real time    0.0125
    --------------------------------------------
      LOOP:  cpu time   12.1046: real time   12.1086

 eigenvalue-minimisations  :  5839
 total energy-change (2. order) :-0.1429382E-04  (-0.1483151E-04)
 number of electron     398.0000070 magnetization 
 augmentation part      398.0000070 magnetization 

 Free energy of the ion-electron system (eV)
  ---------------------------------------------------
  alpha Z        PSCENC =      1018.43440821
  Ewald energy   TEWEN  =     97213.32600228
  -Hartree energ DENC   =   -132191.01619493
  -exchange      EXHF   =         0.00000000
  -V(xc)+E(xc)   XCENC  =       572.49456681
  PAW double counting   =     36405.03548508   -35657.76242388
  entropy T*S    EENTRO =         0.00000000
  eigenvalues    EBANDS =     -1444.74754889
  atomic energy  EATOM  =     33968.07065142
  Solvation  Ediel_sol  =         0.00000000
  ---------------------------------------------------
  free energy    TOTEN  =      -116.16505389 eV

  energy without entropy =     -116.16505389  energy(sigma->0) =     -116.16505389


--------------------------------------------------------------------------------------------------------




--------------------------------------- Iteration      1(  12)  ---------------------------------------


    EDDIAG:  cpu time    2.0233: real time    2.0293
  RMM-DIIS:  cpu time    8.8631: real time    8.8632
    ORTHCH:  cpu time    0.4056: real time    0.4056
 BZINTS: Fermi energy:    0.812622;  398.000000 electrons
         Band energy:-0.144475E+04;  BLOECHL correction:   -0.028575
       DOS:  cpu time    0.0113: real time    0.0113
    --------------------------------------------
      LOOP:  cpu time   11.3033: real time   11.3094

 eigenvalue-minimisations  :  5154
 total energy-change (2. order) :-0.7076975E-05  (-0.7225679E-05)
 number of electron     398.0000070 magnetization 
 augmentation part      398.0000070 magnetization 

 Free energy of the ion-electron system (eV)
  ---------------------------------------------------
  alpha Z        PSCENC =      1018.43440821
  Ewald energy   TEWEN  =     97213.32600228
  -Hartree energ DENC   =   -132191.01619493
  -exchange      EXHF   =         0.00000000
  -V(xc)+E(xc)   XCENC  =       572.49456681
  PAW double counting   =     36405.03548508   -35657.76242388
  entropy T*S    EENTRO =         0.00000000
  eigenvalues    EBANDS =     -1444.74755597
  atomic energy  EATOM  =     33968.07065142
  Solvation  Ediel_sol  =         0.00000000
  ---------------------------------------------------
  free energy    TOTEN  =      -116.16506097 eV

  energy without entropy =     -116.16506097  energy(sigma->0) =     -116.16506097


--------------------------------------------------------------------------------------------------------




 average (electrostatic) potential at core
  the test charge radii are     1.2098  1.0703
  (the norm of the test charge is              1.0000)
       1 -72.2319       2 -72.2160       3 -72.2159       4 -72.2160       5 -72.2094
       6 -72.2157       7 -72.2159       8 -72.2157       9 -72.2119      10 -72.5754
      11 -72.5219      12 -72.5752      13 -72.5219      14 -72.5216      15 -72.5425
      16 -72.5752      17 -72.5425      18 -72.5426      19 -72.5107      20 -72.8434
      21 -72.8432      22 -72.4976      23 -72.8432      24 -72.4974      25 -72.5107
      26 -72.5107      27 -72.4976      28 -72.2428      29 -72.4205      30 -72.4204
      31 -72.4205      32 -72.4202      33 -72.4204      34 -72.4202      35 -72.2389
      36 -89.1059
 
 
 
 E-fermi :   0.8126     XC(G=0):  -6.0978     alpha+bet : -5.7982

 Fermi energy:         0.8126223214

 k-point     1 :       0.0000    0.0000    0.0000
  band No.  band energies     occupation 
      1     -55.1850      2.00000
      2     -31.2021      2.00000
      3     -31.2021      2.00000
      4     -31.1851      2.00000
      5      -8.0033      2.00000
      6      -6.8398      2.00000
      7      -5.9143      2.00000
      8      -5.8843      2.00000
      9      -5.8843      2.00000
     10      -5.8657      2.00000
     11      -5.8407      2.00000
     12      -5.8248      2.00000
     13      -5.8071      2.00000
     14      -5.8071      2.00000
     15      -5.3982      2.00000
     16      -5.3981      2.00000
     17      -5.3905      2.00000
     18      -5.3300      2.00000
     19      -5.3300      2.00000
     20      -5.3293      2.00000
     21      -5.0278      2.00000
     22      -5.0278      2.00000
     23      -5.0193      2.00000
     24      -4.9967      2.00000
     25      -4.9728      2.00000
     26      -4.9728      2.00000
     27      -4.8330      2.00000
     28      -4.8301      2.00000
     29      -4.8300      2.00000
     30      -4.8264      2.00000
     31      -4.8263      2.00000
     32      -4.8106      2.00000
     33      -4.6888      2.00000
     34      -4.6802      2.00000
     35      -4.6802      2.00000
     36      -4.6469      2.00000
     37      -4.6468      2.00000
     38      -4.6432      2.00000
     39      -4.6432      2.00000
     40      -4.6206      2.00000
     41      -4.6091      2.00000
     42      -4.6091      2.00000
     43      -4.6053      2.00000
     44      -4.6021      2.00000
     45      -4.1547      2.00000
     46      -4.1546      2.00000
     47      -4.1540      2.00000
     48      -4.1333      2.00000
     49      -4.1333      2.00000
     50      -4.1077      2.00000
     51      -4.0900      2.00000
     52      -4.0900      2.00000
     53      -4.0584      2.00000
     54      -4.0583      2.00000
     55      -3.9691      2.00000
     56      -3.9671      2.00000
     57      -3.9304      2.00000
     58      -3.8765      2.00000
     59      -3.6651      2.00000
     60      -3.6124      2.00000
     61      -3.6124      2.00000
     62      -3.5853      2.00000
     63      -3.5795      2.00000
     64      -3.5795      2.00000
     65      -3.5738      2.00000
     66      -3.4956      2.00000
     67      -3.4956      2.00000
     68      -3.4409      2.00000
     69      -3.4409      2.00000
     70      -3.4292      2.00000
     71      -3.3958      2.00000
     72      -3.3958      2.00000
     73      -3.3788      2.00000
     74      -3.3788      2.00000
     75      -3.3727      2.00000
     76      -3.3434      2.00000
     77      -3.3142      2.00000
     78      -3.3142      2.00000
     79      -3.2967      2.00000
     80      -3.2967      2.00000
     81      -3.2907      2.00000
     82      -3.2858      2.00000
     83      -3.2857      2.00000
     84      -3.2400      2.00000
     85      -3.2400      2.00000
     86      -3.2149      2.00000
     87      -3.2003      2.00000
     88      -3.2003      2.00000
     89      -3.1964      2.00000
     90      -3.1484      2.00000
     91      -3.1484      2.00000
     92      -3.1258      2.00000
     93      -3.1257      2.00000
     94      -3.0965      2.00000
     95      -3.0610      2.00000
     96      -3.0610      2.00000
     97      -3.0428      2.00000
     98      -3.0428      2.00000
     99      -2.8599      2.00000
    100      -2.8599      2.00000
    101      -2.8560      2.00000
    102      -2.8560      2.00000
    103      -2.7492      2.00000
    104      -2.7266      2.00000
    105      -2.7266      2.00000
    106      -2.7001      2.00000
    107      -2.7000      2.00000
    108      -2.6960      2.00000
    109      -2.6157      2.00000
    110      -2.6157      2.00000
    111      -2.5543      2.00000
    112      -2.5377      2.00000
    113      -2.4853      2.00000
    114      -2.4852      2.00000
    115      -2.4588      2.00000
    116      -2.4588      2.00000
    117      -2.4084      2.00000
    118      -2.3922      2.00000
    119      -2.3654      2.00000
    120      -2.2767      2.00000
    121      -2.2767      2.00000
    122      -2.2508      2.00000
    123      -2.2047      2.00000
    124      -2.2047      2.00000
    125      -2.1856      2.00000
    126      -2.1856      2.00000
    127      -2.1716      2.00000
    128      -2.1338      2.00000
    129      -2.1337      2.00000
    130      -2.0937      2.00000
    131      -2.0937      2.00000
    132      -2.0083      2.00000
    133      -2.0083      2.00000
    134      -1.9843      2.00000
    135      -1.9619      2.00000
    136      -1.9503      2.00000
    137      -1.9503      2.00000
    138      -1.9362      2.00000
    139      -1.9315      2.00000
    140      -1.9315      2.00000
    141      -1.9235      2.00000
    142      -1.9235      2.00000
    143      -1.8129      2.00000
    144      -1.8129      2.00000
    145      -1.7907      2.00000
    146      -1.7429      2.00000
    147      -1.7429      2.00000
    148      -1.7429      2.00000
    149      -1.7217      2.00000
    150      -1.7088      2.00000
    151      -1.7088      2.00000
    152      -1.6709      2.00000
    153      -1.6708      2.00000
    154      -1.6584      2.00000
    155      -1.6414      2.00000
    156      -1.5982      2.00000
    157      -1.5914      2.00000
    158      -1.5914      2.00000
    159      -1.5632      2.00000
    160      -1.5632      2.00000
    161      -1.5503      2.00000
    162      -1.5342      2.00000
    163      -1.5040      2.00000
    164      -1.5040      2.00000
    165      -1.4782      2.00000
    166      -1.4741      2.00000
    167      -1.4740      2.00000
    168      -1.4494      2.00000
    169      -1.4426      2.00000
    170      -1.4426      2.00000
    171      -1.4389      2.00000
    172      -1.4287      2.00000
    173      -1.4287      2.00000
    174      -1.3637      2.00000
    175      -1.3637      2.00000
    176      -1.3428      2.00000
    177      -1.3412      2.00000
    178      -1.3340      2.00000
    179      -1.3340      2.00000
    180      -1.3340      2.00000
    181      -1.3140      2.00000
    182      -1.3112      2.00000
    183      -1.3112      2.00000
    184      -1.2837      2.00000
    185      -1.2499      2.00000
    186      -1.2499      2.00000
    187      -1.1961      2.00000
    188      -1.1960      2.00000
    189      -1.0949      2.00000
    190      -1.0949      2.00000
    191      -1.0946      2.00000
    192      -1.0582      2.00000
    193      -1.0582      2.00000
    194      -1.0534      2.00000
    195      -0.2999      2.00000
    196      -0.0126      2.00000
    197      -0.0126      2.00000
    198       0.0370      2.00000
    199       0.1575      2.00000
    200       0.1575      2.00000
    201       0.2223      2.00000
    202       0.9590      0.00000
    203       0.9590      0.00000
    204       1.1165      0.00000
    205       1.2749      0.00000
    206       1.2749      0.00000
    207       1.3983      0.00000
    208       2.3022      0.00000
    209       2.3396      0.00000
    210       2.3396      0.00000
    211       2.6819      0.00000
    212       2.7980      0.00000
    213       2.7980      0.00000
    214       3.5537      0.00000
    215       3.6198      0.00000
    216       3.6198      0.00000
    217       3.7214      0.00000
    218       3.7214      0.00000
    219       3.8105      0.00000
    220       4.1167      0.00000
    221       4.7660      0.00000
    222       5.3616      0.00000
    223       5.3997      0.00000
    224       5.3998      0.00000
    225       5.4420      0.00000
    226       5.4785      0.00000
    227       5.4785      0.00000
    228       5.5832      0.00000
    229       5.6067      0.00000
    230       5.6067      0.00000
    231       5.7463      0.00000
    232       5.7562      0.00000
    233       5.7562      0.00000
    234       6.1952      0.00000
    235       6.3516      0.00000
    236       6.9792      0.00000
    237       7.0843      0.00000
    238       7.0847      0.00000
    239       7.1118      0.00000
    240       7.1449      0.00000
    241       7.1466      0.00000
    242       7.1695      0.00000
    243       7.2465      0.00000
    244       7.2477      0.00000
    245       7.2535      0.00000
    246       7.2986      0.00000
    247       7.3059      0.00000
    248       7.4522      0.00000
    249       7.4556      0.00000
    250       7.5463      0.00000
    251       7.6089      0.00000
    252       7.7465      0.00000

 k-point     2 :       0.1250   -0.0000    0.0000
  band No.  band energies     occupation 
      1     -55.1850      2.00000
      2     -31.2021      2.00000
      3     -31.2021      2.00000
      4     -31.1851      2.00000
      5      -7.9522      2.00000
      6      -6.7893      2.00000
      7      -6.1002      2.00000
      8      -5.9284      2.00000
      9      -5.9250      2.00000
     10      -5.8464      2.00000
     11      -5.8109      2.00000
     12      -5.7342      2.00000
     13      -5.7245      2.00000
     14      -5.7115      2.00000
     15      -5.4277      2.00000
     16      -5.3746      2.00000
     17      -5.3712      2.00000
     18      -5.3607      2.00000
     19      -5.3054      2.00000
     20      -5.3049      2.00000
     21      -5.0589      2.00000
     22      -5.0147      2.00000
     23      -5.0146      2.00000
     24      -4.9757      2.00000
     25      -4.9511      2.00000
     26      -4.9464      2.00000
     27      -4.9214      2.00000
     28      -4.8614      2.00000
     29      -4.8555      2.00000
     30      -4.7741      2.00000
     31      -4.7709      2.00000
     32      -4.7564      2.00000
     33      -4.7281      2.00000
     34      -4.7240      2.00000
     35      -4.6983      2.00000
     36      -4.6872      2.00000
     37      -4.6780      2.00000
     38      -4.6559      2.00000
     39      -4.6512      2.00000
     40      -4.5794      2.00000
     41      -4.5752      2.00000
     42      -4.5470      2.00000
     43      -4.5036      2.00000
     44      -4.4999      2.00000
     45      -4.2093      2.00000
     46      -4.2030      2.00000
     47      -4.1977      2.00000
     48      -4.1685      2.00000
     49      -4.1640      2.00000
     50      -4.1579      2.00000
     51      -4.1100      2.00000
     52      -4.0625      2.00000
     53      -4.0429      2.00000
     54      -4.0069      2.00000
     55      -3.9546      2.00000
     56      -3.9313      2.00000
     57      -3.9219      2.00000
     58      -3.8775      2.00000
     59      -3.6910      2.00000
     60      -3.6444      2.00000
     61      -3.6276      2.00000
     62      -3.6175      2.00000
     63      -3.5871      2.00000
     64      -3.5828      2.00000
     65      -3.5795      2.00000
     66      -3.5485      2.00000
     67      -3.5269      2.00000
     68      -3.4939      2.00000
     69      -3.4925      2.00000
     70      -3.4866      2.00000
     71      -3.4662      2.00000
     72      -3.4515      2.00000
     73      -3.4340      2.00000
     74      -3.4166      2.00000
     75      -3.4084      2.00000
     76      -3.3798      2.00000
     77      -3.3692      2.00000
     78      -3.3674      2.00000
     79      -3.3570      2.00000
     80      -3.3373      2.00000
     81      -3.2810      2.00000
     82      -3.2750      2.00000
     83      -3.2493      2.00000
     84      -3.2411      2.00000
     85      -3.2067      2.00000
     86      -3.2006      2.00000
     87      -3.1717      2.00000
     88      -3.1696      2.00000
     89      -3.1559      2.00000
     90      -3.1347      2.00000
     91      -3.1086      2.00000
     92      -3.1060      2.00000
     93      -3.0739      2.00000
     94      -3.0712      2.00000
     95      -3.0417      2.00000
     96      -3.0275      2.00000
     97      -2.9995      2.00000
     98      -2.9989      2.00000
     99      -2.9493      2.00000
    100      -2.9451      2.00000
    101      -2.8459      2.00000
    102      -2.8204      2.00000
    103      -2.8171      2.00000
    104      -2.7323      2.00000
    105      -2.7251      2.00000
    106      -2.7134      2.00000
    107      -2.6918      2.00000
    108      -2.6764      2.00000
    109      -2.6734      2.00000
    110      -2.6221      2.00000
    111      -2.5500      2.00000
    112      -2.5474      2.00000
    113      -2.5314      2.00000
    114      -2.5122      2.00000
    115      -2.5018      2.00000
    116      -2.4683      2.00000
    117      -2.4645      2.00000
    118      -2.4530      2.00000
    119      -2.4484      2.00000
    120      -2.4100      2.00000
    121      -2.4063      2.00000
    122      -2.3959      2.00000
    123      -2.3929      2.00000
    124      -2.3030      2.00000
    125      -2.2917      2.00000
    126      -2.1951      2.00000
    127      -2.1839      2.00000
    128      -2.1720      2.00000
    129      -2.1571      2.00000
    130      -2.1410      2.00000
    131      -2.1213      2.00000
    132      -2.1103      2.00000
    133      -2.0773      2.00000
    134      -2.0701      2.00000
    135      -2.0525      2.00000
    136      -2.0479      2.00000
    137      -2.0349      2.00000
    138      -1.9607      2.00000
    139      -1.9492      2.00000
    140      -1.9217      2.00000
    141      -1.8953      2.00000
    142      -1.8749      2.00000
    143      -1.8690      2.00000
    144      -1.8657      2.00000
    145      -1.8535      2.00000
    146      -1.8215      2.00000
    147      -1.7706      2.00000
    148      -1.7651      2.00000
    149      -1.7446      2.00000
    150      -1.7119      2.00000
    151      -1.6673      2.00000
    152      -1.6666      2.00000
    153      -1.6510      2.00000
    154      -1.6401      2.00000
    155      -1.6163      2.00000
    156      -1.6056      2.00000
    157      -1.6004      2.00000
    158      -1.5591      2.00000
    159      -1.5462      2.00000
    160      -1.5325      2.00000
    161      -1.5155      2.00000
    162      -1.5118      2.00000
    163      -1.4866      2.00000
    164      -1.4864      2.00000
    165      -1.4484      2.00000
    166      -1.4441      2.00000
    167      -1.4334      2.00000
    168      -1.4054      2.00000
    169      -1.3944      2.00000
    170      -1.3866      2.00000
    171      -1.3687      2.00000
    172      -1.3621      2.00000
    173      -1.3402      2.00000
    174      -1.3316      2.00000
    175      -1.3133      2.00000
    176      -1.3070      2.00000
    177      -1.2731      2.00000
    178      -1.2640      2.00000
    179      -1.2525      2.00000
    180      -1.2270      2.00000
    181      -1.1844      2.00000
[...]
  0.000   0.000   0.000   2.000   0.000   0.000   0.000   0.000   0.000   0.000   0.000   0.000   0.000   0.000   0.000   0.000
  0.000   0.000   0.000   0.000   2.000   0.000   0.000   0.000   0.000   0.000   0.000   0.000   0.000   0.000   0.000   0.000
  0.000   0.000   0.000   0.000   0.000   0.000   0.000   0.000   0.000   0.000   0.000   0.000   0.000   0.000   0.000   0.000
  0.000   0.000   0.000   0.000   0.000   0.000   0.000   0.000   0.000   0.000   0.000   0.000   0.000   0.000   0.000   0.000
  0.000   0.000   0.000   0.000   0.000   0.000   0.000   0.000   0.000   0.000   0.000   0.000   0.000   0.000   0.000   0.000
  0.000   0.000   0.000   0.000   0.000   0.000   0.000   0.000   0.000   0.000   0.000   0.000   0.000   0.000   0.000   0.000
  0.000   0.000   0.000   0.000   0.000   0.000   0.000   0.000   0.000   0.000   0.000   0.000   0.000   0.000   0.000   0.000
  0.000   0.000   0.000   0.000   0.000   0.000   0.000   0.000   0.000   0.000   1.000   0.000   0.000   0.000   0.000   0.000
  0.000   0.000   0.000   0.000   0.000   0.000   0.000   0.000   0.000   0.000   0.000   0.000   0.000   0.000   0.000   0.000
  0.000   0.000   0.000   0.000   0.000   0.000   0.000   0.000   0.000   0.000   0.000   0.000   0.000   0.000   0.000   0.000
  0.000   0.000   0.000   0.000   0.000   0.000   0.000   0.000   0.000   0.000   0.000   0.000   0.000   0.000   0.000   0.000
  0.000   0.000   0.000   0.000   0.000   0.000   0.000   0.000   0.000   0.000   0.000   0.000   0.000   0.000   0.000   0.000
  0.000   0.000   0.000   0.000   0.000   0.000   0.000   0.000   0.000   0.000   0.000   0.000   0.000   0.000   0.000   0.000
  0.000   0.000   0.000   0.000   0.000   0.000   0.000   0.000   0.000   0.000   0.000   0.000   0.000   0.000   0.000   0.000
  0.000   0.000   0.000   0.000   0.000   0.000   0.000   0.000   0.000   0.000   0.000   0.000   0.000   0.000   0.000   0.000


------------------------ aborting loop because EDIFF is reached ----------------------------------------





 total charge

# of ion       s       p       d       tot
------------------------------------------
    1        0.548   0.237   8.767   9.552
    2        0.541   0.241   8.766   9.548
    3        0.541   0.241   8.766   9.548
    4        0.541   0.241   8.766   9.548
    5        0.546   0.241   8.761   9.549
    6        0.541   0.241   8.766   9.548
    7        0.541   0.241   8.766   9.548
    8        0.541   0.241   8.766   9.548
    9        0.544   0.239   8.767   9.551
   10        0.528   0.307   8.766   9.602
   11        0.521   0.307   8.781   9.608
   12        0.528   0.307   8.766   9.602
   13        0.521   0.307   8.781   9.608
   14        0.521   0.307   8.781   9.608
   15        0.516   0.307   8.775   9.599
   16        0.528   0.307   8.766   9.602
   17        0.516   0.307   8.775   9.599
   18        0.516   0.307   8.775   9.599
   19        0.518   0.297   8.770   9.585
   20        0.576   0.341   8.721   9.638
   21        0.576   0.341   8.721   9.638
   22        0.507   0.305   8.779   9.591
   23        0.576   0.341   8.721   9.638
   24        0.507   0.305   8.779   9.591
   25        0.518   0.297   8.770   9.585
   26        0.518   0.297   8.770   9.585
   27        0.507   0.305   8.779   9.591
   28        0.540   0.230   8.752   9.521
   29        0.592   0.249   8.724   9.565
   30        0.592   0.249   8.724   9.565
   31        0.592   0.249   8.724   9.565
   32        0.592   0.249   8.724   9.565
   33        0.592   0.249   8.724   9.565
   34        0.592   0.249   8.724   9.565
   35        0.539   0.230   8.755   9.524
   36        2.177   5.975   2.257  10.409
--------------------------------------------------
tot         21.192  15.688 308.773 345.652
 
    CHARGE:  cpu time    0.7008: real time    0.7009
    FORLOC:  cpu time    0.0109: real time    0.0109
    FORNL :  cpu time    2.3661: real time    2.3663
    STRESS:  cpu time    8.3993: real time    8.3995
    FORCOR:  cpu time    0.0429: real time    0.0429
    FORHAR:  cpu time    0.0158: real time    0.0159
    OFIELD:  cpu time    0.0002: real time    0.0002

  FORCE on cell =-STRESS in cart. coord.  units (eV):
  Direction    XX          YY          ZZ          XY          YZ          ZX
  --------------------------------------------------------------------------------------
  Alpha Z  1018.43441  1018.43441  1018.43441
  Ewald  120339.81073120339.81118************    -0.00032    -0.00008    -0.00015
  Hartree129146.30038129146.30039************     0.00001    -0.00002    -0.00004
  E(xc)   -1786.01330 -1786.01328 -1793.89294    -0.00001    -0.00000    -0.00000
  Local  ************************262305.66581     0.00166     0.00004     0.00008
  n-local   -72.62308   -28.38633   -18.34071    21.60345    -1.63943     1.39762
  augment  2381.25283  2381.25431  2401.98249    -0.00129     0.00003     0.00003
  Kinetic  5578.05581  5586.45932  5647.63127     4.62754     0.44913    -0.33141
  Fock        0.00000     0.00000     0.00000     0.00000     0.00000     0.00000
  -------------------------------------------------------------------------------------
  Total     -23.21696   -23.21696     2.79999    -0.00000     0.00000     0.00000
  in kB     -24.91200   -24.91200     3.00441    -0.00000     0.00000     0.00000
  external pressure =      -15.61 kB  Pullay stress =        0.00 kB


 VOLUME and BASIS-vectors are now :
 -----------------------------------------------------------------------------
  energy-cutoff  :      500.00
  volume of cell :     1493.16
      direct lattice vectors                 reciprocal lattice vectors
     8.813512802  0.000000000  0.000000000     0.113462137 -0.065507406  0.000000000
     4.406756909  7.632725690  0.000000000     0.000000000  0.131014796  0.000000000
     0.000000000  0.000000000 22.196203232     0.000000000  0.000000000  0.045052750

  length of vectors
     8.813512802  8.813512802 22.196203232     0.131014796  0.131014796  0.045052750


 FORCES acting on ions
    electron-ion (+dipol)            ewald-force                    non-local-force                 convergence-correction
 -----------------------------------------------------------------------------------------------
   -.199E-04 -.163E-04 0.249E+04   0.520E-04 0.434E-04 -.249E+04   -.484E-17 0.485E-17 -.751E+00   -.240E-03 -.152E-03 -.227E+00
   0.804E+00 0.610E+00 0.249E+04   -.808E+00 -.794E+00 -.249E+04   0.404E-01 0.142E+00 -.318E+00   -.381E-01 0.295E-01 -.236E+00
   -.804E+00 0.610E+00 0.249E+04   0.808E+00 -.794E+00 -.249E+04   -.404E-01 0.142E+00 -.318E+00   0.384E-01 0.315E-01 -.236E+00
   0.930E+00 0.391E+00 0.249E+04   -.109E+01 -.303E+00 -.249E+04   0.143E+00 -.359E-01 -.318E+00   0.656E-02 -.478E-01 -.236E+00
   0.777E-05 -.240E-04 0.249E+04   0.951E-04 0.173E-05 -.249E+04   0.129E-17 0.366E-17 0.133E+00   0.428E-02 0.261E-02 -.141E+00
   -.930E+00 0.391E+00 0.249E+04   0.109E+01 -.303E+00 -.249E+04   -.143E+00 -.359E-01 -.318E+00   -.811E-02 -.469E-01 -.235E+00
   0.126E+00 -.100E+01 0.249E+04   -.284E+00 0.110E+01 -.249E+04   0.103E+00 -.106E+00 -.318E+00   0.465E-01 0.176E-01 -.236E+00
   -.126E+00 -.100E+01 0.249E+04   0.284E+00 0.110E+01 -.249E+04   -.103E+00 -.106E+00 -.318E+00   -.447E-01 0.165E-01 -.235E+00
   0.198E-04 -.415E-04 0.249E+04   0.166E-03 -.201E-04 -.249E+04   0.132E-17 -.980E-18 -.398E+00   -.459E-02 -.237E-02 -.161E+00
   0.837E+01 0.483E+01 0.842E+03   -.794E+01 -.458E+01 -.841E+03   -.394E+00 -.227E+00 -.676E+00   -.471E-01 -.273E-01 0.964E-01
   0.158E-04 0.890E+01 0.853E+03   0.147E-03 -.893E+01 -.853E+03   -.127E-08 -.190E-01 -.584E-01   0.402E-02 -.182E-01 0.118E+00
   -.837E+01 0.483E+01 0.842E+03   0.794E+01 -.458E+01 -.841E+03   0.394E+00 -.227E+00 -.676E+00   0.456E-01 -.261E-01 0.962E-01
   0.771E+01 -.445E+01 0.853E+03   -.773E+01 0.446E+01 -.853E+03   -.165E-01 0.951E-02 -.584E-01   -.135E-01 0.128E-01 0.118E+00
   -.771E+01 -.445E+01 0.853E+03   0.773E+01 0.446E+01 -.853E+03   0.165E-01 0.951E-02 -.584E-01   0.210E-01 0.120E-01 0.117E+00
   0.304E-04 0.261E+01 0.843E+03   0.236E-03 -.271E+01 -.842E+03   0.352E-09 0.529E-02 -.517E+00   -.230E-02 0.269E-01 0.805E-01
   -.218E-04 -.967E+01 0.842E+03   0.163E-03 0.917E+01 -.841E+03   0.303E-07 0.455E+00 -.676E+00   -.673E-04 0.525E-01 0.962E-01
   0.226E+01 -.131E+01 0.843E+03   -.235E+01 0.136E+01 -.842E+03   0.458E-02 -.264E-02 -.517E+00   0.224E-01 -.150E-01 0.805E-01
   -.226E+01 -.131E+01 0.843E+03   0.235E+01 0.136E+01 -.842E+03   -.458E-02 -.264E-02 -.517E+00   -.221E-01 -.130E-01 0.811E-01
   -.421E-04 0.218E+01 -.851E+03   0.520E-04 -.204E+01 0.850E+03   -.310E-08 -.466E-01 0.496E+00   -.651E-03 -.865E-01 0.489E+00
   0.520E+02 0.300E+02 -.765E+03   -.510E+02 -.295E+02 0.766E+03   -.108E+01 -.623E+00 -.135E+01   0.925E-01 0.533E-01 0.628E+00
   -.520E+02 0.300E+02 -.765E+03   0.510E+02 -.295E+02 0.766E+03   0.108E+01 -.623E+00 -.135E+01   -.918E-01 0.538E-01 0.628E+00
   0.106E+02 -.612E+01 -.832E+03   -.110E+02 0.637E+01 0.831E+03   0.391E+00 -.226E+00 0.583E+00   0.529E-01 -.303E-01 0.422E+00
   -.949E-05 -.601E+02 -.765E+03   0.144E-03 0.589E+02 0.766E+03   0.829E-07 0.125E+01 -.135E+01   0.452E-03 -.106E+00 0.628E+00
   -.106E+02 -.612E+01 -.832E+03   0.110E+02 0.637E+01 0.831E+03   -.391E+00 -.226E+00 0.583E+00   -.532E-01 -.307E-01 0.422E+00
   -.189E+01 -.109E+01 -.851E+03   0.176E+01 0.102E+01 0.850E+03   0.404E-01 0.233E-01 0.496E+00   0.753E-01 0.434E-01 0.488E+00
   0.189E+01 -.109E+01 -.851E+03   -.176E+01 0.102E+01 0.850E+03   -.404E-01 0.233E-01 0.496E+00   -.749E-01 0.427E-01 0.489E+00
   0.141E-04 0.122E+02 -.832E+03   0.194E-03 -.127E+02 0.831E+03   0.300E-07 0.451E+00 0.583E+00   -.330E-03 0.609E-01 0.422E+00
   -.146E-04 -.134E-04 -.246E+04   0.296E-04 0.345E-04 0.246E+04   0.411E-17 -.512E-18 0.462E+00   -.781E-04 -.632E-04 0.216E+00
   0.444E+02 0.715E+02 -.249E+04   -.431E+02 -.697E+02 0.249E+04   -.129E+01 -.199E+01 -.527E+00   0.389E-01 0.200E+00 0.181E+00
   -.444E+02 0.715E+02 -.249E+04   0.431E+02 -.697E+02 0.249E+04   0.129E+01 -.199E+01 -.527E+00   -.386E-01 0.202E+00 0.181E+00
   0.841E+02 0.268E+01 -.249E+04   -.819E+02 -.249E+01 0.249E+04   -.237E+01 -.122E+00 -.527E+00   0.193E+00 -.664E-01 0.181E+00
   -.841E+02 0.269E+01 -.249E+04   0.819E+02 -.249E+01 0.249E+04   0.237E+01 -.122E+00 -.527E+00   -.194E+00 -.657E-01 0.181E+00
   0.397E+02 -.742E+02 -.249E+04   -.388E+02 0.722E+02 0.249E+04   -.108E+01 0.211E+01 -.527E+00   0.155E+00 -.134E+00 0.181E+00
   -.397E+02 -.742E+02 -.249E+04   0.388E+02 0.722E+02 0.249E+04   0.108E+01 0.211E+01 -.527E+00   -.154E+00 -.135E+00 0.181E+00
   0.326E-04 -.279E-04 -.247E+04   0.141E-03 -.500E-04 0.246E+04   0.432E-17 -.267E-17 0.647E+00   -.445E-02 -.228E-02 0.226E+00
   0.226E-03 -.149E-03 -.280E+04   0.135E-03 0.122E-04 0.279E+04   -.193E-18 0.874E-19 0.355E+01   0.695E-02 0.425E-02 0.339E+00
 -----------------------------------------------------------------------------------------------
   -.530E-03 -.903E-03 0.825E+00   0.727E-13 0.127E-12 0.364E-11   0.670E-15 0.886E-15 -.600E+01   0.114E-01 0.733E-02 0.542E+01
 
 
 POSITION                                       TOTAL-FORCE (eV/Angst)
 -----------------------------------------------------------------------------------
      0.00000      0.00000      5.28038         0.000000      0.000000     -0.158504
      2.93784      0.00000      5.28038        -0.001776     -0.012226     -0.060029
      5.87568      0.00000      5.28038         0.001776     -0.012226     -0.060029
      1.46892      2.54424      5.28038        -0.011476      0.004575     -0.060029
      4.40676      2.54424      5.28038         0.000000      0.000000     -0.070139
      7.34459      2.54424      5.28038         0.011476      0.004575     -0.060029
      2.93784      5.08848      5.28038        -0.009700      0.007651     -0.060029
      5.87568      5.08848      5.28038         0.009700      0.007651     -0.060029
      8.81351      5.08848      5.28038         0.000000      0.000000     -0.083172
      1.46892      0.84808      7.67911        -0.008526     -0.004923      0.103434
      4.40676      0.84808      7.67911        -0.000000     -0.060851     -0.011345
      7.34459      0.84808      7.67911         0.008526     -0.004923      0.103434
      2.93784      3.39232      7.67911        -0.052698      0.030425     -0.011345
      5.87568      3.39232      7.67911         0.052698      0.030425     -0.011345
      8.81351      3.39232      7.67911        -0.000000     -0.068382      0.110856
      4.40676      5.93656      7.67911         0.000000      0.009845      0.103434
      7.34459      5.93656      7.67911        -0.059220      0.034191      0.110856
     10.28243      5.93656      7.67911         0.059220      0.034191      0.110856
      8.81351      1.70030     10.08698         0.000000      0.008754     -0.005610
      2.93503      1.69454     10.04736        -0.006337     -0.003658     -0.015295
      5.87848      1.69454     10.04736         0.006337     -0.003658     -0.015295
     10.26776      4.24887     10.06889         0.013529     -0.007811      0.004728
      4.40676      4.24365     10.04736         0.000000      0.007317     -0.015295
      7.35926      4.24887     10.06889        -0.013529     -0.007811      0.004728
     11.74777      6.78258     10.08698        -0.007581     -0.004377     -0.005610
      5.87926      6.78258     10.08698         0.007581     -0.004377     -0.005610
      8.81351      6.76771     10.06889         0.000000      0.015622      0.004728
      0.00000      0.00000     12.49943         0.000000      0.000000     -0.000653
      2.98194      0.07009     12.55649         0.004568     -0.000392      0.013719
      5.83157      0.07009     12.55649        -0.004568     -0.000392      0.013719
      1.55167      2.54739     12.55649         0.001945      0.004152      0.013719
      7.26184      2.54739     12.55649        -0.001945      0.004152      0.013719
      2.97649      5.01524     12.55649        -0.002623     -0.003760      0.013719
      5.83702      5.01524     12.55649         0.002623     -0.003760      0.013719
      8.81351      5.08848     12.50498         0.000000      0.000000      0.019661
      4.40676      2.54424     12.24418         0.000000      0.000000      0.010369
 -----------------------------------------------------------------------------------
    total drift:                                0.010875      0.006428      0.250131


--------------------------------------------------------------------------------------------------------



  FREE ENERGIE OF THE ION-ELECTRON SYSTEM (eV)
  ---------------------------------------------------
  free  energy   TOTEN  =      -116.16506097 eV

  energy  without entropy=     -116.16506097  energy(sigma->0) =     -116.16506097
 


--------------------------------------------------------------------------------------------------------


    POTLOK:  cpu time    0.0436: real time    0.0437


--------------------------------------------------------------------------------------------------------


 stress matrix after NEB project (eV)
    -23.21696     -0.00000      0.00000
     -0.00000    -23.21696      0.00000
     -0.00000      0.00000      2.79999
  FORCES: max atom, RMS     0.019661    0.010187
  FORCE total and by dimension    0.061121    0.019661
  Stress total and by dimension   32.952913   23.216962
     LOOP+:  cpu time  165.9654: real time  166.2417
 -----------------------------------------------------------------------------
|                                                                             |
|           W    W    AA    RRRRR   N    N  II  N    N   GGGG   !!!           |
|           W    W   A  A   R    R  NN   N  II  NN   N  G    G  !!!           |
|           W    W  A    A  R    R  N N  N  II  N N  N  G       !!!           |
|           W WW W  AAAAAA  RRRRR   N  N N  II  N  N N  G  GGG   !            |
|           WW  WW  A    A  R   R   N   NN  II  N   NN  G    G                |
|           W    W  A    A  R    R  N    N  II  N    N   GGGG   !!!           |
|                                                                             |
|     Tetrahedron method does not include variations of the Fermi             |
|     occupations, so forces and stress will be inaccurate. We suggest        |
|     using a different smearing scheme ISMEAR = 1 or 2 for metals in         |
|     relaxations.                                                            |
|                                                                             |
 -----------------------------------------------------------------------------

    4ORBIT:  cpu time    0.0000: real time    0.0000



 total charge

# of ion       s       p       d       tot
------------------------------------------
    1        0.548   0.237   8.767   9.552
    2        0.541   0.241   8.766   9.548
    3        0.541   0.241   8.766   9.548
    4        0.541   0.241   8.766   9.548
    5        0.546   0.241   8.761   9.549
    6        0.541   0.241   8.766   9.548
    7        0.541   0.241   8.766   9.548
    8        0.541   0.241   8.766   9.548
    9        0.544   0.239   8.767   9.551
   10        0.528   0.307   8.766   9.602
   11        0.521   0.307   8.781   9.608
   12        0.528   0.307   8.766   9.602
   13        0.521   0.307   8.781   9.608
   14        0.521   0.307   8.781   9.608
   15        0.516   0.307   8.775   9.599
   16        0.528   0.307   8.766   9.602
   17        0.516   0.307   8.775   9.599
   18        0.516   0.307   8.775   9.599
   19        0.518   0.297   8.770   9.585
   20        0.576   0.341   8.721   9.638
   21        0.576   0.341   8.721   9.638
   22        0.507   0.305   8.779   9.591
   23        0.576   0.341   8.721   9.638
   24        0.507   0.305   8.779   9.591
   25        0.518   0.297   8.770   9.585
   26        0.518   0.297   8.770   9.585
   27        0.507   0.305   8.779   9.591
   28        0.540   0.230   8.752   9.521
   29        0.592   0.249   8.724   9.565
   30        0.592   0.249   8.724   9.565
   31        0.592   0.249   8.724   9.565
   32        0.592   0.249   8.724   9.565
   33        0.592   0.249   8.724   9.565
   34        0.592   0.249   8.724   9.565
   35        0.539   0.230   8.755   9.524
   36        2.177   5.975   2.257  10.409
--------------------------------------------------
tot         21.192  15.688 308.773 345.652
 
 BZINTS: Fermi energy:    0.812622;  398.000000 electrons
         Band energy:-0.144475E+04;  BLOECHL correction:   -0.028575

 total amount of memory used by VASP MPI-rank0   121726. kBytes
=======================================================================

   base      :      30000. kBytes
   nonlr-proj:      14138. kBytes
   fftplans  :       4330. kBytes
   grid      :      17098. kBytes
   one-center:        559. kBytes
   wavefun   :      55601. kBytes
 
  
  
 General timing and accounting informations for this job:
 ========================================================
  
                  Total CPU time used (sec):      174.690
                            User time (sec):      170.381
                          System time (sec):        4.309
                         Elapsed time (sec):      175.451
  
                   Maximum memory used (kb):      378644.
                   Average memory used (kb):          N/A
  
                          Minor page faults:        88417
                          Major page faults:            0
                 Voluntary context switches:         7042
