PROCAR new format
# of k-points:   10         # of bands:  252         # of ions:   36

 k-point     1 :    0.00000000 0.00000000 0.00000000     weight = 0.01562500

band     1 # energy  -55.18502255 # occ.  2.00000000
 
ion      s      p      d    tot
    1  0.000  0.000  0.000  0.000
    2  0.000  0.000  0.000  0.000
    3  0.000  0.000  0.000  0.000
    4  0.000  0.000  0.000  0.000
    5  0.000  0.000  0.000  0.000
    6  0.000  0.000  0.000  0.000
    7  0.000  0.000  0.000  0.000
    8  0.000  0.000  0.000  0.000
    9  0.000  0.000  0.000  0.000
   10  0.000  0.000  0.000  0.000
   11  0.000  0.000  0.000  0.000
   12  0.000  0.000  0.000  0.000
   13  0.000  0.000  0.000  0.000
   14  0.000  0.000  0.000  0.000
   15  0.000  0.000  0.000  0.000
   16  0.000  0.000  0.000  0.000
   17  0.000  0.000  0.000  0.000
   18  0.000  0.000  0.000  0.000
   19  0.000  0.000  0.000  0.000
   20  0.000  0.000  0.000  0.000
   21  0.000  0.000  0.000  0.000
   22  0.000  0.000  0.000  0.000
   23  0.000  0.000  0.000  0.000
   24  0.000  0.000  0.000  0.000
   25  0.000  0.000  0.000  0.000
   26  0.000  0.000  0.000  0.000
   27  0.000  0.000  0.000  0.000
   28  0.000  0.000  0.000  0.000
   29  0.000  0.000  0.000  0.000
   30  0.000  0.000  0.000  0.000
   31  0.000  0.000  0.000  0.000
   32  0.000  0.000  0.000  0.000
   33  0.000  0.000  0.000  0.000
   34  0.000  0.000  0.000  0.000
   35  0.000  0.000  0.000  0.000
   36  0.993  0.000  0.000  0.993
tot    0.993  0.000  0.000  0.993
 
band     2 # energy  -31.20213759 # occ.  2.00000000
 
ion      s      p      d    tot
    1  0.000  0.000  0.000  0.000
    2  0.000  0.000  0.000  0.000
    3  0.000  0.000  0.000  0.000
    4  0.000  0.000  0.000  0.000
    5  0.000  0.000  0.000  0.000
    6  0.000  0.000  0.000  0.000
    7  0.000  0.000  0.000  0.000
    8  0.000  0.000  0.000  0.000
    9  0.000  0.000  0.000  0.000
   10  0.000  0.000  0.000  0.000
   11  0.000  0.000  0.000  0.000
   12  0.000  0.000  0.000  0.000
   13  0.000  0.000  0.000  0.000
   14  0.000  0.000  0.000  0.000
   15  0.000  0.000  0.000  0.000
   16  0.000  0.000  0.000  0.000
   17  0.000  0.000  0.000  0.000
   18  0.000  0.000  0.000  0.000
   19  0.000  0.000  0.000  0.000
   20  0.000  0.000  0.000  0.000
   21  0.000  0.000  0.000  0.000
   22  0.000  0.000  0.000  0.000
   23  0.000  0.000  0.000  0.000
   24  0.000  0.000  0.000  0.000
   25  0.000  0.000  0.000  0.000
   26  0.000  0.000  0.000  0.000
   27  0.000  0.000  0.000  0.000
   28  0.000  0.000  0.000  0.000
   29  0.000  0.000  0.000  0.000
   30  0.000  0.000  0.000  0.000
   31  0.000  0.000  0.000  0.000
   32  0.000  0.000  0.000  0.000
   33  0.000  0.000  0.000  0.000
   34  0.000  0.000  0.000  0.000
   35  0.000  0.000  0.000  0.000
   36  0.000  0.973  0.000  0.973
tot    0.000  0.973  0.001  0.974
 
band     3 # energy  -31.20213561 # occ.  2.00000000
 
ion      s      p      d    tot
    1  0.000  0.000  0.000  0.000
    2  0.000  0.000  0.000  0.000
    3  0.000  0.000  0.000  0.000
    4  0.000  0.000  0.000  0.000
    5  0.000  0.000  0.000  0.000
    6  0.000  0.000  0.000  0.000
    7  0.000  0.000  0.000  0.000
    8  0.000  0.000  0.000  0.000
    9  0.000  0.000  0.000  0.000
   10  0.000  0.000  0.000  0.000
   11  0.000  0.000  0.000  0.000
   12  0.000  0.000  0.000  0.000
   13  0.000  0.000  0.000  0.000
   14  0.000  0.000  0.000  0.000
   15  0.000  0.000  0.000  0.000
   16  0.000  0.000  0.000  0.000
   17  0.000  0.000  0.000  0.000
   18  0.000  0.000  0.000  0.000
   19  0.000  0.000  0.000  0.000
   20  0.000  0.000  0.000  0.000
   21  0.000  0.000  0.000  0.000
   22  0.000  0.000  0.000  0.000
   23  0.000  0.000  0.000  0.000
   24  0.000  0.000  0.000  0.000
   25  0.000  0.000  0.000  0.000
   26  0.000  0.000  0.000  0.000
   27  0.000  0.000  0.000  0.000
   28  0.000  0.000  0.000  0.000
   29  0.000  0.000  0.000  0.000
   30  0.000  0.000  0.000  0.000
   31  0.000  0.000  0.000  0.000
   32  0.000  0.000  0.000  0.000
   33  0.000  0.000  0.000  0.000
   34  0.000  0.000  0.000  0.000
   35  0.000  0.000  0.000  0.000
   36  0.000  0.973  0.000  0.973
tot    0.000  0.973  0.001  0.974
 
band     4 # energy  -31.18508701 # occ.  2.00000000
 
ion      s      p      d    tot
    1  0.000  0.000  0.000  0.000
    2  0.000  0.000  0.000  0.000
    3  0.000  0.000  0.000  0.000
    4  0.000  0.000  0.000  0.000
    5  0.000  0.000  0.000  0.000
    6  0.000  0.000  0.000  0.000
    7  0.000  0.000  0.000  0.000
    8  0.000  0.000  0.000  0.000
    9  0.000  0.000  0.000  0.000
   10  0.000  0.000  0.000  0.000
   11  0.000  0.000  0.000  0.000
   12  0.000  0.000  0.000  0.000
   13  0.000  0.000  0.000  0.000
   14  0.000  0.000  0.000  0.000
   15  0.000  0.000  0.000  0.000
   16  0.000  0.000  0.000  0.000
   17  0.000  0.000  0.000  0.000
   18  0.000  0.000  0.000  0.000
   19  0.000  0.000  0.000  0.000
   20  0.000  0.000  0.000  0.000
   21  0.000  0.000  0.000  0.000
   22  0.000  0.000  0.000  0.000
   23  0.000  0.000  0.000  0.000
   24  0.000  0.000  0.000  0.000
   25  0.000  0.000  0.000  0.000
   26  0.000  0.000  0.000  0.000
   27  0.000  0.000  0.000  0.000
   28  0.000  0.000  0.000  0.000
   29  0.000  0.000  0.000  0.000
   30  0.000  0.000  0.000  0.000
   31  0.000  0.000  0.000  0.000
   32  0.000  0.000  0.000  0.000
   33  0.000  0.000  0.000  0.000
   34  0.000  0.000  0.000  0.000
   35  0.000  0.000  0.000  0.000
   36  0.000  0.974  0.000  0.974
tot    0.000  0.974  0.001  0.975
 
band     5 # energy   -8.00326880 # occ.  2.00000000
 
ion      s      p      d    tot
    1  0.007  0.001  0.000  0.007
    2  0.007  0.001  0.000  0.007
    3  0.007  0.001  0.000  0.007
    4  0.007  0.001  0.000  0.007
    5  0.007  0.001  0.000  0.007
    6  0.007  0.001  0.000  0.007
    7  0.007  0.001  0.000  0.007
    8  0.007  0.001  0.000  0.007
    9  0.006  0.001  0.000  0.007
   10  0.027  0.000  0.000  0.027
   11  0.027  0.000  0.000  0.028
   12  0.027  0.000  0.000  0.027
   13  0.027  0.000  0.000  0.028
   14  0.027  0.000  0.000  0.028
   15  0.026  0.000  0.000  0.026
   16  0.027  0.000  0.000  0.027
   17  0.026  0.000  0.000  0.026
   18  0.026  0.000  0.000  0.026
   19  0.023  0.000  0.000  0.024
   20  0.027  0.000  0.000  0.027
   21  0.027  0.000  0.000  0.027
   22  0.024  0.000  0.000  0.024
   23  0.027  0.000  0.000  0.027
   24  0.024  0.000  0.000  0.024
   25  0.023  0.000  0.000  0.024
   26  0.023  0.000  0.000  0.024
   27  0.024  0.000  0.000  0.024
   28  0.005  0.000  0.000  0.005
   29  0.005  0.000  0.000  0.005
   30  0.005  0.000  0.000  0.005
   31  0.005  0.000  0.000  0.005
   32  0.005  0.000  0.000  0.005
   33  0.005  0.000  0.000  0.005
   34  0.005  0.000  0.000  0.005
   35  0.005  0.000  0.000  0.005
   36  0.003  0.000  0.000  0.003
tot    0.562  0.011  0.003  0.576
 
band     6 # energy   -6.83980316 # occ.  2.00000000
 
ion      s      p      d    tot
    1  0.017  0.000  0.001  0.018
    2  0.016  0.000  0.001  0.018
    3  0.016  0.000  0.001  0.018
    4  0.016  0.000  0.001  0.018
    5  0.016  0.000  0.001  0.018
    6  0.016  0.000  0.001  0.018
    7  0.016  0.000  0.001  0.018
    8  0.016  0.000  0.001  0.018
    9  0.016  0.000  0.001  0.018
   10  0.011  0.001  0.002  0.014
   11  0.010  0.001  0.003  0.014
   12  0.011  0.001  0.002  0.014
   13  0.010  0.001  0.003  0.014
   14  0.010  0.001  0.003  0.014
   15  0.010  0.001  0.002  0.014
   16  0.011  0.001  0.002  0.014
   17  0.010  0.001  0.002  0.014
   18  0.010  0.001  0.002  0.014
   19  0.013  0.001  0.003  0.017
   20  0.014  0.001  0.003  0.019
   21  0.014  0.001  0.003  0.019
   22  0.014  0.001  0.003  0.018
   23  0.014  0.001  0.003  0.019
   24  0.014  0.001  0.003  0.018
   25  0.013  0.001  0.003  0.017
   26  0.013  0.001  0.003  0.017
   27  0.014  0.001  0.003  0.018
   28  0.015  0.000  0.001  0.016
   29  0.015  0.000  0.001  0.017
   30  0.015  0.000  0.001  0.017
   31  0.015  0.000  0.001  0.017
   32  0.015  0.000  0.001  0.017
   33  0.015  0.000  0.001  0.017
   34  0.015  0.000  0.001  0.017
   35  0.015  0.000  0.001  0.017
   36  0.006  0.000  0.000  0.007
tot    0.490  0.031  0.068  0.589
 
band     7 # energy   -5.91427104 # occ.  2.00000000
 
ion      s      p      d    tot
    1  0.003  0.000  0.011  0.014
    2  0.009  0.000  0.008  0.018
    3  0.010  0.000  0.008  0.018
    4  0.009  0.000  0.008  0.018
    5  0.007  0.000  0.006  0.013
    6  0.010  0.000  0.008  0.018
    7  0.010  0.000  0.008  0.018
    8  0.010  0.000  0.008  0.018
    9  0.023  0.000  0.005  0.028
   10  0.008  0.001  0.008  0.017
   11  0.006  0.002  0.005  0.013
   12  0.008  0.001  0.008  0.017
   13  0.006  0.002  0.005  0.013
   14  0.006  0.002  0.005  0.013
   15  0.002  0.001  0.007  0.009
   16  0.008  0.001  0.008  0.017
   17  0.002  0.001  0.007  0.009
   18  0.002  0.001  0.007  0.009
   19  0.002  0.001  0.012  0.015
   20  0.018  0.002  0.013  0.033
   21  0.018  0.002  0.013  0.033
   22  0.001  0.001  0.007  0.009
   23  0.018  0.002  0.013  0.033
   24  0.001  0.001  0.007  0.009
   25  0.002  0.001  0.012  0.015
   26  0.002  0.001  0.012  0.015
   27  0.001  0.001  0.007  0.009
   28  0.016  0.000  0.007  0.022
   29  0.015  0.000  0.012  0.027
   30  0.015  0.000  0.012  0.027
   31  0.015  0.000  0.012  0.027
   32  0.015  0.000  0.012  0.027
   33  0.015  0.000  0.012  0.027
   34  0.015  0.000  0.012  0.027
   35  0.027  0.000  0.008  0.035
   36  0.001  0.001  0.008  0.010
tot    0.336  0.025  0.319  0.679
 
band     8 # energy   -5.88431684 # occ.  2.00000000
 
ion      s      p      d    tot
    1  0.000  0.001  0.009  0.009
    2  0.004  0.001  0.003  0.007
    3  0.000  0.000  0.003  0.004
    4  0.004  0.001  0.003  0.007
    5  0.000  0.001  0.006  0.007
    6  0.006  0.001  0.003  0.010
    7  0.000  0.000  0.003  0.004
    8  0.006  0.001  0.003  0.010
    9  0.000  0.000  0.001  0.001
   10  0.041  0.002  0.005  0.048
   11  0.012  0.003  0.019  0.034
   12  0.010  0.001  0.028  0.039
   13  0.012  0.003  0.019  0.034
   14  0.047  0.001  0.012  0.060
   15  0.000  0.002  0.007  0.010
   16  0.010  0.001  0.028  0.039
   17  0.000  0.002  0.007  0.010
   18  0.000  0.000  0.011  0.012
   19  0.003  0.003  0.006  0.013
   20  0.065  0.001  0.011  0.077
   21  0.016  0.002  0.031  0.049
   22  0.003  0.001  0.019  0.023
   23  0.016  0.002  0.032  0.049
   24  0.012  0.001  0.006  0.020
   25  0.013  0.000  0.013  0.027
   26  0.003  0.003  0.006  0.013
   27  0.003  0.001  0.019  0.023
   28  0.000  0.000  0.001  0.002
   29  0.006  0.001  0.004  0.011
   30  0.002  0.001  0.003  0.006
   31  0.006  0.001  0.004  0.011
   32  0.001  0.000  0.003  0.004
   33  0.002  0.001  0.003  0.006
   34  0.001  0.000  0.003  0.004
   35  0.000  0.000  0.004  0.004
   36  0.000  0.001  0.005  0.007
tot    0.305  0.042  0.343  0.690
 
band     9 # energy   -5.88429247 # occ.  2.00000000
 
ion      s      p      d    tot
    1  0.000  0.001  0.009  0.009
    2  0.003  0.001  0.003  0.007
    3  0.006  0.001  0.003  0.010
    4  0.003  0.001  0.003  0.007
    5  0.000  0.001  0.006  0.007
    6  0.001  0.000  0.003  0.004
    7  0.006  0.001  0.003  0.010
    8  0.001  0.000  0.003  0.004
    9  0.000  0.000  0.001  0.001
   10  0.000  0.000  0.036  0.036
   11  0.035  0.001  0.014  0.051
   12  0.030  0.002  0.013  0.045
   13  0.035  0.002  0.015  0.051
   14  0.000  0.004  0.021  0.025
   15  0.000  0.001  0.010  0.011
   16  0.031  0.002  0.013  0.045
   17  0.000  0.001  0.010  0.011
   18  0.000  0.003  0.006  0.009
   19  0.010  0.001  0.011  0.022
   20  0.000  0.002  0.038  0.040
   21  0.048  0.001  0.018  0.067
   22  0.009  0.001  0.010  0.021
   23  0.049  0.001  0.017  0.068
   24  0.000  0.001  0.023  0.024
   25  0.000  0.004  0.004  0.008
   26  0.010  0.001  0.011  0.022
   27  0.009  0.001  0.010  0.021
   28  0.000  0.000  0.001  0.002
   29  0.000  0.000  0.002  0.003
   30  0.004  0.001  0.003  0.008
   31  0.000  0.000  0.002  0.003
   32  0.005  0.001  0.004  0.010
   33  0.004  0.001  0.004  0.008
   34  0.005  0.001  0.004  0.010
   35  0.000  0.000  0.004  0.004
   36  0.000  0.001  0.005  0.007
tot    0.305  0.042  0.343  0.690
 
band    10 # energy   -5.86569802 # occ.  2.00000000
 
ion      s      p      d    tot
    1  0.030  0.000  0.008  0.038
    2  0.012  0.000  0.014  0.026
    3  0.012  0.000  0.014  0.026
    4  0.012  0.000  0.014  0.026
    5  0.010  0.000  0.015  0.025
    6  0.012  0.000  0.014  0.026
    7  0.012  0.000  0.014  0.026
    8  0.012  0.000  0.014  0.026
    9  0.003  0.001  0.015  0.019
   10  0.000  0.000  0.033  0.033
   11  0.005  0.000  0.022  0.028
   12  0.000  0.000  0.032  0.033
   13  0.005  0.000  0.022  0.028
   14  0.005  0.000  0.022  0.028
   15  0.024  0.001  0.014  0.039
   16  0.000  0.000  0.032  0.033
   17  0.024  0.001  0.014  0.039
   18  0.024  0.001  0.014  0.039
   19  0.004  0.001  0.010  0.015
   20  0.008  0.000  0.019  0.027
   21  0.008  0.000  0.019  0.027
   22  0.005  0.001  0.009  0.015
   23  0.008  0.000  0.019  0.027
   24  0.005  0.001  0.009  0.015
   25  0.004  0.001  0.010  0.015
   26  0.004  0.001  0.010  0.015
   27  0.005  0.001  0.009  0.015
   28  0.000  0.000  0.000  0.000
   29  0.000  0.000  0.002  0.002
   30  0.000  0.000  0.002  0.002
   31  0.000  0.000  0.002  0.002
   32  0.000  0.000  0.002  0.002
   33  0.000  0.000  0.002  0.002
   34  0.000  0.000  0.002  0.002
   35  0.004  0.000  0.000  0.005
   36  0.001  0.001  0.002  0.003
tot    0.259  0.016  0.455  0.730
 
band    11 # energy   -5.84068719 # occ.  2.00000000
 
ion      s      p      d    tot
    1  0.003  0.001  0.004  0.008
    2  0.000  0.000  0.003  0.004
    3  0.000  0.000  0.003  0.004
    4  0.000  0.000  0.003  0.004
    5  0.000  0.000  0.000  0.001
    6  0.000  0.000  0.003  0.004
    7  0.000  0.000  0.003  0.004
    8  0.000  0.000  0.003  0.004
    9  0.008  0.001  0.000  0.009
   10  0.015  0.000  0.015  0.029
   11  0.002  0.001  0.016  0.019
   12  0.015  0.000  0.015  0.029
   13  0.002  0.001  0.016  0.019
   14  0.002  0.001  0.016  0.019
   15  0.007  0.002  0.009  0.017
   16  0.015  0.000  0.015  0.029
   17  0.007  0.002  0.009  0.017
   18  0.007  0.002  0.009  0.018
   19  0.001  0.001  0.018  0.020
   20  0.000  0.000  0.037  0.037
   21  0.000  0.000  0.037  0.037
   22  0.028  0.002  0.011  0.041
   23  0.000  0.000  0.037  0.037
   24  0.028  0.002  0.011  0.041
   25  0.001  0.001  0.018  0.020
   26  0.001  0.001  0.018  0.020
   27  0.028  0.002  0.011  0.041
   28  0.012  0.000  0.011  0.024
   29  0.011  0.000  0.012  0.023
   30  0.011  0.000  0.012  0.023
   31  0.011  0.000  0.012  0.023
   32  0.011  0.000  0.012  0.023
   33  0.011  0.000  0.012  0.023
   34  0.011  0.000  0.012  0.023
   35  0.002  0.001  0.014  0.017
   36  0.008  0.000  0.002  0.010
tot    0.260  0.020  0.441  0.722
 
band    12 # energy   -5.82484593 # occ.  2.00000000
 
ion      s      p      d    tot
    1  0.002  0.001  0.001  0.003
    2  0.000  0.001  0.006  0.008
    3  0.000  0.001  0.006  0.008
    4  0.000  0.001  0.006  0.008
    5  0.022  0.002  0.000  0.024
    6  0.000  0.001  0.006  0.008
    7  0.000  0.001  0.006  0.008
    8  0.000  0.001  0.006  0.008
    9  0.001  0.001  0.004  0.005
   10  0.015  0.003  0.007  0.025
   11  0.026  0.002  0.013  0.041
   12  0.015  0.003  0.007  0.024
   13  0.026  0.002  0.013  0.041
   14  0.026  0.002  0.013  0.041
   15  0.006  0.000  0.028  0.034
   16  0.015  0.003  0.007  0.024
   17  0.006  0.000  0.028  0.034
   18  0.006  0.000  0.028  0.034
   19  0.026  0.001  0.010  0.037
   20  0.011  0.003  0.011  0.025
   21  0.011  0.003  0.011  0.025
   22  0.001  0.000  0.026  0.027
   23  0.011  0.003  0.011  0.025
   24  0.001  0.000  0.026  0.027
   25  0.025  0.001  0.010  0.036
   26  0.026  0.001  0.010  0.037
   27  0.001  0.000  0.026  0.027
   28  0.007  0.001  0.003  0.011
   29  0.000  0.000  0.004  0.005
   30  0.000  0.000  0.004  0.005
   31  0.000  0.000  0.004  0.005
   32  0.000  0.000  0.004  0.005
   33  0.000  0.000  0.004  0.005
   34  0.000  0.000  0.004  0.005
   35  0.004  0.000  0.000  0.005
   36  0.002  0.000  0.000  0.002
tot    0.297  0.040  0.356  0.694
 
band    13 # energy   -5.80710228 # occ.  2.00000000
 
ion      s      p      d    tot
    1  0.000  0.001  0.003  0.004
    2  0.004  0.001  0.003  0.009
    3  0.000  0.000  0.004  0.004
    4  0.005  0.001  0.003  0.009
    5  0.000  0.000  0.005  0.005
    6  0.008  0.001  0.004  0.013
    7  0.000  0.000  0.004  0.005
    8  0.007  0.001  0.004  0.013
    9  0.000  0.001  0.011  0.012
   10  0.000  0.005  0.003  0.007
   11  0.010  0.001  0.011  0.022
   12  0.015  0.001  0.013  0.029
   13  0.009  0.001  0.013  0.023
   14  0.000  0.001  0.028  0.030
   15  0.049  0.001  0.014  0.064
   16  0.016  0.001  0.014  0.031
   17  0.046  0.001  0.016  0.063
   18  0.000  0.001  0.040  0.041
   19  0.029  0.002  0.010  0.041
   20  0.000  0.003  0.009  0.012
   21  0.000  0.001  0.013  0.015
   22  0.028  0.002  0.013  0.042
   23  0.000  0.001  0.014  0.015
   24  0.000  0.004  0.018  0.022
   25  0.000  0.000  0.036  0.036
   26  0.027  0.002  0.012  0.040
   27  0.030  0.001  0.012  0.044
   28  0.000  0.000  0.006  0.007
   29  0.004  0.001  0.002  0.008
   30  0.003  0.001  0.003  0.006
   31  0.004  0.001  0.002  0.007
   32  0.000  0.000  0.002  0.002
   33  0.002  0.000  0.002  0.005
   34  0.000  0.000  0.002  0.002
   35  0.000  0.001  0.004  0.005
   36  0.000  0.000  0.000  0.000
tot    0.297  0.041  0.354  0.692
 
band    14 # energy   -5.80709374 # occ.  2.00000000
 
ion      s      p      d    tot
    1  0.000  0.001  0.003  0.004
    2  0.004  0.001  0.004  0.009
    3  0.008  0.001  0.004  0.013
    4  0.003  0.001  0.004  0.008
    5  0.000  0.000  0.005  0.005
    6  0.001  0.000  0.003  0.004
    7  0.008  0.001  0.004  0.013
    8  0.001  0.000  0.003  0.005
    9  0.000  0.001  0.011  0.012
   10  0.020  0.000  0.017  0.037
   11  0.003  0.001  0.024  0.027
   12  0.006  0.003  0.007  0.016
   13  0.003  0.001  0.022  0.027
   14  0.012  0.001  0.006  0.020
   15  0.014  0.001  0.033  0.048
   16  0.005  0.004  0.006  0.014
   17  0.018  0.001  0.031  0.050
   18  0.063  0.002  0.006  0.071
   19  0.008  0.001  0.029  0.037
   20  0.000  0.001  0.015  0.016
   21  0.000  0.002  0.011  0.013
   22  0.011  0.003  0.016  0.030
   23  0.000  0.002  0.011  0.013
   24  0.039  0.001  0.011  0.050
   25  0.037  0.002  0.003  0.042
   26  0.010  0.001  0.027  0.038
   27  0.009  0.003  0.016  0.028
   28  0.000  0.000  0.006  0.007
   29  0.000  0.000  0.002  0.002
   30  0.002  0.000  0.002  0.004
   31  0.000  0.000  0.002  0.003
   32  0.004  0.001  0.003  0.008
   33  0.002  0.000  0.002  0.005
   34  0.005  0.001  0.003  0.008
   35  0.000  0.001  0.004  0.005
   36  0.000  0.000  0.000  0.000
tot    0.297  0.041  0.354  0.692
 
band    15 # energy   -5.39815907 # occ.  2.00000000
 
ion      s      p      d    tot
    1  0.000  0.001  0.004  0.004
    2  0.001  0.001  0.005  0.006
    3  0.008  0.001  0.004  0.014
    4  0.001  0.001  0.005  0.006
    5  0.000  0.001  0.010  0.011
    6  0.004  0.001  0.004  0.009
    7  0.008  0.001  0.004  0.014
    8  0.004  0.001  0.004  0.009
    9  0.000  0.000  0.008  0.008
   10  0.000  0.001  0.049  0.050
   11  0.016  0.001  0.020  0.037
   12  0.007  0.001  0.018  0.027
   13  0.016  0.001  0.020  0.037
   14  0.000  0.000  0.048  0.048
   15  0.002  0.000  0.019  0.021
   16  0.007  0.001  0.018  0.027
   17  0.002  0.000  0.019  0.021
   18  0.000  0.001  0.011  0.012
   19  0.004  0.000  0.019  0.023
   20  0.000  0.000  0.085  0.085
   21  0.016  0.001  0.026  0.043
   22  0.004  0.001  0.019  0.023
   23  0.016  0.001  0.026  0.043
   24  0.000  0.001  0.033  0.034
   25  0.000  0.001  0.010  0.011
   26  0.004  0.000  0.019  0.023
   27  0.004  0.001  0.019  0.023
   28  0.000  0.000  0.009  0.009
   29  0.004  0.001  0.005  0.009
   30  0.009  0.001  0.005  0.015
   31  0.004  0.001  0.005  0.009
   32  0.001  0.001  0.004  0.006
   33  0.009  0.001  0.005  0.015
   34  0.001  0.001  0.004  0.006
   35  0.000  0.000  0.003  0.003
   36  0.000  0.001  0.005  0.006
tot    0.150  0.028  0.570  0.748
 
band    16 # energy   -5.39813424 # occ.  2.00000000
 
ion      s      p      d    tot
    1  0.000  0.001  0.004  0.004
    2  0.008  0.001  0.004  0.013
    3  0.001  0.000  0.004  0.005
    4  0.008  0.001  0.004  0.013
    5  0.000  0.001  0.010  0.011
    6  0.005  0.001  0.005  0.010
    7  0.001  0.000  0.004  0.005
    8  0.005  0.001  0.005  0.010
    9  0.000  0.000  0.008  0.008
   10  0.009  0.002  0.008  0.019
   11  0.005  0.000  0.039  0.044
   12  0.002  0.001  0.039  0.042
   13  0.005  0.000  0.039  0.044
   14  0.021  0.001  0.011  0.033
   15  0.001  0.001  0.014  0.015
   16  0.002  0.001  0.039  0.042
   17  0.001  0.001  0.014  0.015
   18  0.002  0.000  0.021  0.024
   19  0.001  0.001  0.013  0.015
   20  0.021  0.001  0.007  0.029
   21  0.005  0.000  0.065  0.071
   22  0.001  0.001  0.028  0.030
   23  0.005  0.000  0.065  0.071
   24  0.005  0.001  0.014  0.020
   25  0.006  0.000  0.022  0.027
   26  0.001  0.001  0.013  0.015
   27  0.001  0.001  0.028  0.030
   28  0.000  0.000  0.009  0.009
   29  0.006  0.001  0.004  0.011
   30  0.000  0.000  0.005  0.005
   31  0.006  0.001  0.004  0.011
   32  0.008  0.001  0.006  0.014
   33  0.000  0.000  0.005  0.005
   34  0.008  0.001  0.006  0.015
   35  0.000  0.000  0.003  0.003
   36  0.000  0.001  0.005  0.006
tot    0.150  0.028  0.570  0.748
 
band    17 # energy   -5.39048633 # occ.  2.00000000
 
ion      s      p      d    tot
    1  0.014  0.002  0.002  0.018
    2  0.000  0.001  0.007  0.008
    3  0.000  0.001  0.007  0.008
    4  0.000  0.001  0.007  0.008
    5  0.000  0.000  0.002  0.002
    6  0.000  0.001  0.007  0.008
    7  0.000  0.001  0.007  0.008
    8  0.000  0.001  0.007  0.008
    9  0.015  0.001  0.000  0.016
   10  0.010  0.001  0.014  0.025
   11  0.003  0.000  0.044  0.047
   12  0.010  0.001  0.014  0.025
   13  0.003  0.000  0.044  0.047
   14  0.003  0.000  0.044  0.047
   15  0.003  0.001  0.020  0.025
   16  0.010  0.001  0.014  0.025
   17  0.003  0.001  0.020  0.025
   18  0.003  0.001  0.020  0.025
   19  0.003  0.001  0.013  0.017
   20  0.001  0.000  0.054  0.055
   21  0.001  0.000  0.054  0.055
   22  0.012  0.001  0.017  0.030
   23  0.001  0.000  0.054  0.055
   24  0.012  0.001  0.017  0.030
   25  0.003  0.001  0.013  0.017
   26  0.003  0.001  0.013  0.017
   27  0.012  0.001  0.017  0.030
   28  0.014  0.001  0.000  0.015
   29  0.000  0.000  0.007  0.008
   30  0.000  0.000  0.007  0.008
   31  0.000  0.000  0.007  0.008
   32  0.000  0.000  0.007  0.008
   33  0.000  0.000  0.007  0.008
   34  0.000  0.000  0.007  0.008
   35  0.007  0.001  0.003  0.011
   36  0.000  0.000  0.001  0.001
tot    0.148  0.027  0.580  0.754
 
band    18 # energy   -5.32996600 # occ.  2.00000000
 
ion      s      p      d    tot
    1  0.000  0.001  0.014  0.014
    2  0.009  0.001  0.004  0.015
    3  0.001  0.000  0.005  0.006
    4  0.009  0.001  0.004  0.015
    5  0.000  0.000  0.005  0.005
    6  0.004  0.001  0.005  0.010
    7  0.001  0.000  0.005  0.006
    8  0.004  0.001  0.005  0.010
    9  0.000  0.001  0.006  0.007
   10  0.000  0.001  0.031  0.031
   11  0.000  0.001  0.019  0.021
   12  0.008  0.000  0.021  0.030
   13  0.000  0.001  0.019  0.021
   14  0.000  0.001  0.017  0.019
   15  0.011  0.002  0.020  0.032
   16  0.008  0.000  0.021  0.030
   17  0.011  0.002  0.019  0.032
   18  0.000  0.000  0.061  0.061
   19  0.014  0.001  0.019  0.034
   20  0.000  0.002  0.019  0.021
   21  0.000  0.001  0.024  0.025
   22  0.017  0.001  0.020  0.037
   23  0.000  0.001  0.024  0.025
   24  0.000  0.001  0.031  0.032
   25  0.000  0.000  0.065  0.066
   26  0.014  0.001  0.019  0.034
   27  0.016  0.001  0.020  0.037
   28  0.000  0.001  0.005  0.006
   29  0.006  0.001  0.004  0.011
   30  0.000  0.000  0.006  0.006
   31  0.006  0.001  0.004  0.011
   32  0.005  0.001  0.003  0.009
   33  0.000  0.000  0.006  0.006
   34  0.005  0.001  0.003  0.010
   35  0.000  0.001  0.009  0.010
   36  0.000  0.000  0.002  0.002
tot    0.150  0.029  0.568  0.747
 
band    19 # energy   -5.32995980 # occ.  2.00000000
 
ion      s      p      d    tot
    1  0.000  0.001  0.014  0.014
    2  0.000  0.000  0.005  0.006
    3  0.009  0.001  0.005  0.014
    4  0.000  0.000  0.005  0.006
    5  0.000  0.000  0.005  0.005
    6  0.005  0.001  0.004  0.010
    7  0.009  0.001  0.005  0.014
    8  0.005  0.001  0.004  0.010
    9  0.000  0.001  0.006  0.007
   10  0.011  0.000  0.018  0.029
   11  0.000  0.001  0.018  0.019
   12  0.003  0.001  0.028  0.031
   13  0.000  0.001  0.018  0.019
   14  0.000  0.001  0.020  0.021
   15  0.003  0.001  0.047  0.051
   16  0.003  0.001  0.028  0.031
   17  0.003  0.001  0.047  0.051
   18  0.014  0.002  0.006  0.023
   19  0.004  0.001  0.050  0.055
   20  0.000  0.000  0.025  0.026
   21  0.000  0.001  0.021  0.022
   22  0.005  0.001  0.028  0.034
   23  0.000  0.001  0.021  0.022
   24  0.022  0.001  0.015  0.038
   25  0.019  0.001  0.004  0.024
   26  0.004  0.001  0.050  0.055
   27  0.006  0.001  0.028  0.034
   28  0.000  0.001  0.005  0.006
   29  0.002  0.000  0.005  0.007
   30  0.008  0.001  0.003  0.012
   31  0.002  0.000  0.005  0.007
   32  0.002  0.001  0.005  0.008
   33  0.008  0.001  0.003  0.012
   34  0.002  0.001  0.005  0.008
   35  0.000  0.001  0.009  0.010
   36  0.000  0.000  0.002  0.002
tot    0.150  0.029  0.568  0.747
 
band    20 # energy   -5.32929830 # occ.  2.00000000
 
ion      s      p      d    tot
    1  0.007  0.000  0.001  0.008
    2  0.000  0.001  0.008  0.009
    3  0.000  0.001  0.008  0.009
    4  0.000  0.001  0.008  0.009
    5  0.017  0.002  0.000  0.019
    6  0.000  0.001  0.009  0.009
    7  0.000  0.001  0.008  0.009
    8  0.000  0.001  0.009  0.009
    9  0.003  0.001  0.002  0.005
   10  0.000  0.000  0.044  0.044
   11  0.006  0.002  0.008  0.016
   12  0.000  0.000  0.043  0.044
   13  0.006  0.002  0.008  0.016
   14  0.006  0.002  0.008  0.016
   15  0.008  0.001  0.026  0.034
   16  0.000  0.000  0.043  0.044
   17  0.008  0.001  0.026  0.034
   18  0.007  0.001  0.026  0.034
   19  0.011  0.001  0.039  0.051
   20  0.009  0.002  0.010  0.021
   21  0.009  0.002  0.010  0.021
   22  0.000  0.000  0.036  0.037
   23  0.009  0.002  0.010  0.021
   24  0.000  0.000  0.037  0.038
   25  0.011  0.001  0.039  0.050
   26  0.011  0.001  0.039  0.051
   27  0.000  0.000  0.036  0.037
   28  0.002  0.001  0.005  0.008
   29  0.000  0.000  0.006  0.006
   30  0.000  0.000  0.006  0.006
   31  0.000  0.000  0.006  0.006
   32  0.000  0.000  0.006  0.006
   33  0.000  0.000  0.006  0.006
   34  0.000  0.000  0.006  0.006
   35  0.002  0.000  0.000  0.003
   36  0.007  0.001  0.000  0.009
tot    0.142  0.028  0.583  0.754
 
band    21 # energy   -5.02778963 # occ.  2.00000000
 
ion      s      p      d    tot
    1  0.000  0.000  0.024  0.024
    2  0.004  0.001  0.008  0.013
    3  0.002  0.000  0.011  0.013
    4  0.004  0.001  0.008  0.013
    5  0.000  0.001  0.015  0.016
    6  0.010  0.001  0.009  0.020
    7  0.002  0.000  0.011  0.013
    8  0.010  0.001  0.009  0.020
    9  0.000  0.001  0.006  0.007
   10  0.000  0.001  0.024  0.024
   11  0.000  0.000  0.045  0.046
   12  0.000  0.000  0.014  0.014
   13  0.000  0.000  0.045  0.046
   14  0.001  0.001  0.044  0.045
   15  0.000  0.000  0.010  0.010
   16  0.000  0.000  0.014  0.014
   17  0.000  0.000  0.010  0.010
   18  0.001  0.000  0.016  0.016
   19  0.000  0.000  0.009  0.009
   20  0.001  0.000  0.085  0.087
   21  0.000  0.001  0.052  0.053
   22  0.000  0.000  0.019  0.019
   23  0.000  0.001  0.052  0.053
   24  0.001  0.000  0.014  0.015
   25  0.000  0.000  0.016  0.016
   26  0.000  0.000  0.009  0.009
   27  0.000  0.000  0.019  0.019
   28  0.000  0.001  0.004  0.004
   29  0.012  0.001  0.021  0.034
   30  0.003  0.000  0.014  0.017
   31  0.012  0.001  0.021  0.034
   32  0.003  0.000  0.010  0.013
   33  0.003  0.000  0.014  0.017
   34  0.003  0.000  0.010  0.013
   35  0.000  0.000  0.026  0.026
   36  0.000  0.001  0.010  0.011
tot    0.072  0.016  0.728  0.817
 
band    22 # energy   -5.02776564 # occ.  2.00000000
 
ion      s      p      d    tot
    1  0.000  0.000  0.024  0.024
    2  0.007  0.000  0.011  0.018
    3  0.009  0.001  0.008  0.017
    4  0.007  0.000  0.011  0.018
    5  0.000  0.001  0.015  0.016
    6  0.000  0.001  0.010  0.010
    7  0.009  0.001  0.008  0.017
    8  0.000  0.001  0.010  0.010
    9  0.000  0.001  0.006  0.007
   10  0.000  0.000  0.011  0.011
   11  0.001  0.000  0.044  0.046
   12  0.000  0.000  0.020  0.021
   13  0.001  0.000  0.044  0.046
   14  0.000  0.000  0.046  0.046
   15  0.000  0.000  0.014  0.014
   16  0.000  0.000  0.020  0.021