 vasp.6.2.0 18Jan21 (build Jun 12 2021 23:27:24) complex                        
  
 executed on             LinuxIFC date 2022.05.28  02:30:22
 running on   28 total cores
 distrk:  each k-point on   28 cores,    1 groups
 distr:  one band on NCORE=   1 cores,   28 groups


--------------------------------------------------------------------------------------------------------


 INCAR:
   ISMEAR = -5
   SIGMA = 0.1
   ISPIN = 1
   EDIFF = 1.d-5
   EDIFFG = -0.01
   NSW = 0
   NELM = 150
   ENCUT = 500
   ISIF = 2
   IBRION = 2
   LREAL = Auto
   ALGO = Fast
   ICHARG = 11
   LORBIT = 10
   LCHARG = .F.
   LWAVE = .F.

 POTCAR:    PAW_PBE Cu 22Jun2005                  
 POTCAR:    PAW_PBE Zr_sv 04Jan2005               
 POTCAR:    PAW_PBE O 08Apr2002                   
 POTCAR:    PAW_PBE H 15Jun2001                   
 -----------------------------------------------------------------------------
|                                                                             |
|           W    W    AA    RRRRR   N    N  II  N    N   GGGG   !!!           |
|           W    W   A  A   R    R  NN   N  II  NN   N  G    G  !!!           |
|           W    W  A    A  R    R  N N  N  II  N N  N  G       !!!           |
|           W WW W  AAAAAA  RRRRR   N  N N  II  N  N N  G  GGG   !            |
|           WW  WW  A    A  R   R   N   NN  II  N   NN  G    G                |
|           W    W  A    A  R    R  N    N  II  N    N   GGGG   !!!           |
|                                                                             |
|     For optimal performance we recommend to set                             |
|       NCORE = 2 up to number-of-cores-per-socket                            |
|     NCORE specifies how many cores store one orbital (NPAR=cpu/NCORE).      |
|     This setting can greatly improve the performance of VASP for DFT.       |
|     The default, NCORE=1 might be grossly inefficient on modern             |
|     multi-core architectures or massively parallel machines. Do your        |
|     own testing! More info at https://www.vasp.at/wiki/index.php/NCORE      |
|     Unfortunately you need to use the default for GW and RPA                |
|     calculations (for HF NCORE is supported but not extensively tested      |
|     yet).                                                                   |
|                                                                             |
 -----------------------------------------------------------------------------

 POTCAR:    PAW_PBE Cu 22Jun2005                  
   VRHFIN =Cu: d10 p1                                                                               
   LEXCH  = PE                                                                                      
   EATOM  =  1390.9808 eV,  102.2342 Ry                                                             
                                                                                                    
   TITEL  = PAW_PBE Cu 22Jun2005                                                                    
   LULTRA =        F    use ultrasoft PP ?                                                          
   IUNSCR =        1    unscreen: 0-lin 1-nonlin 2-no                                               
   RPACOR =    2.000    partial core radius                                                         
   POMASS =   63.546; ZVAL   =   11.000    mass and valenz                                          
   RCORE  =    2.300    outmost cutoff radius                                                       
   RWIGS  =    2.200; RWIGS  =    1.164    wigner-seitz radius (au A)                               
   ENMAX  =  295.446; ENMIN  =  221.585 eV                                                          
   ICORE  =        3    local potential                                                             
   LCOR   =        T    correct aug charges                                                         
   LPAW   =        T    paw PP                                                                      
   EAUG   =  586.980                                                                                
   DEXC   =    0.000                                                                                
   RMAX   =    2.344    core radius for proj-oper                                                   
   RAUG   =    1.300    factor for augmentation sphere                                              
   RDEP   =    2.302    radius for radial grids                                                     
   RDEPT  =    1.771    core radius for aug-charge                                                  
                                                                                                    
   Atomic configuration                                                                             
    9 entries                                                                                       
     n  l   j            E        occ.                                                              
     1  0  0.50     -8850.2468   2.0000                                                             
     2  0  0.50     -1062.3498   2.0000                                                             
     2  1  1.50      -916.8226   6.0000                                                             
     3  0  0.50      -114.6929   2.0000                                                             
     3  1  1.50       -72.1325   6.0000                                                             
     3  2  2.50        -5.0394  10.0000                                                             
     4  0  0.50        -4.6097   1.0000                                                             
     4  1  0.50        -4.0817   0.0000                                                             
     4  3  2.50        -1.3606   0.0000                                                             
   Description                                                                                      
     l       E           TYP  RCUT    TYP  RCUT                                                     
     2     -5.0393973     23  2.200                                                                 
     2     10.8846608     23  2.200                                                                 
     0     -4.6097109     23  2.200                                                                 
     0      8.2520465     23  2.200                                                                 
     1     -2.7211652     23  2.200                                                                 
     1     21.7055443     23  2.200                                                                 
     3      2.7211652     23  2.300                                                                 
  local pseudopotential read in
  partial core-charges read in
  partial kinetic energy density read in
  atomic valenz-charges read in
  non local Contribution for L=           2  read in
    real space projection operators read in
  non local Contribution for L=           2  read in
    real space projection operators read in
  non local Contribution for L=           0  read in
    real space projection operators read in
  non local Contribution for L=           0  read in
    real space projection operators read in
  non local Contribution for L=           1  read in
    real space projection operators read in
  non local Contribution for L=           1  read in
    real space projection operators read in
    PAW grid and wavefunctions read in
 
   number of l-projection  operators is LMAX  =           6
   number of lm-projection operators is LMMAX =          18
 
 POTCAR:    PAW_PBE Zr_sv 04Jan2005               
   VRHFIN =Zr: 4s4p5s4d                                                                             
   LEXCH  = PE                                                                                      
   EATOM  =  1284.2219 eV,   94.3876 Ry                                                             
                                                                                                    
   TITEL  = PAW_PBE Zr_sv 04Jan2005                                                                 
   LULTRA =        F    use ultrasoft PP ?                                                          
   IUNSCR =        1    unscreen: 0-lin 1-nonlin 2-no                                               
   RPACOR =    2.200    partial core radius                                                         
   POMASS =   91.224; ZVAL   =   12.000    mass and valenz                                          
   RCORE  =    2.500    outmost cutoff radius                                                       
   RWIGS  =    3.070; RWIGS  =    1.625    wigner-seitz radius (au A)                               
   ENMAX  =  229.898; ENMIN  =  172.424 eV                                                          
   ICORE  =        3    local potential                                                             
   LCOR   =        T    correct aug charges                                                         
   LPAW   =        T    paw PP                                                                      
   EAUG   =  461.257                                                                                
   DEXC   =    0.000                                                                                
   RMAX   =    2.561    core radius for proj-oper                                                   
   RAUG   =    1.300    factor for augmentation sphere                                              
   RDEP   =    2.597    radius for radial grids                                                     
   RDEPT  =    2.007    core radius for aug-charge                                                  
                                                                                                    
   Atomic configuration                                                                             
   11 entries                                                                                       
     n  l   j            E        occ.                                                              
     1  0  0.50    -17820.0161   2.0000                                                             
     2  0  0.50     -2467.0882   2.0000                                                             
     2  1  1.50     -2199.6095   6.0000                                                             
     3  0  0.50      -402.4863   2.0000                                                             
     3  1  1.50      -315.3675   6.0000                                                             
     3  2  2.50      -172.4472  10.0000                                                             
     4  0  0.50       -52.4146   2.0000                                                             
     5  0  0.50        -3.8421   1.0000                                                             
     4  1  1.50       -30.5054   6.0000                                                             
     4  2  2.50        -2.3341   3.0000                                                             
     4  3  2.50        -1.3606   0.0000                                                             
   Description                                                                                      
     l       E           TYP  RCUT    TYP  RCUT                                                     
     0    -52.4145962     23  2.200                                                                 
     0     -3.8421270     23  2.500                                                                 
     1    -30.5053914     23  2.200                                                                 
     1     20.4087390     23  2.200                                                                 
     2     -2.3340816     23  2.500                                                                 
     2     -0.6120942     23  2.500                                                                 
     3     -4.0817478     23  2.500                                                                 
  local pseudopotential read in
  partial core-charges read in
  partial kinetic energy density read in
  atomic valenz-charges read in
  non local Contribution for L=           0  read in
    real space projection operators read in
  non local Contribution for L=           0  read in
    real space projection operators read in
  non local Contribution for L=           1  read in
    real space projection operators read in
  non local Contribution for L=           1  read in
    real space projection operators read in
  non local Contribution for L=           2  read in
    real space projection operators read in
  non local Contribution for L=           2  read in
    real space projection operators read in
    PAW grid and wavefunctions read in
 
   number of l-projection  operators is LMAX  =           6
   number of lm-projection operators is LMMAX =          18
 
 POTCAR:    PAW_PBE O 08Apr2002                   
   VRHFIN =O: s2p4                                                                                  
   LEXCH  = PE                                                                                      
   EATOM  =   432.3788 eV,   31.7789 Ry                                                             
                                                                                                    
   TITEL  = PAW_PBE O 08Apr2002                                                                     
   LULTRA =        F    use ultrasoft PP ?                                                          
   IUNSCR =        1    unscreen: 0-lin 1-nonlin 2-no                                               
   RPACOR =    1.200    partial core radius                                                         
   POMASS =   16.000; ZVAL   =    6.000    mass and valenz                                          
   RCORE  =    1.520    outmost cutoff radius                                                       
   RWIGS  =    1.550; RWIGS  =    0.820    wigner-seitz radius (au A)                               
   ENMAX  =  400.000; ENMIN  =  300.000 eV                                                          
   ICORE  =        2    local potential                                                             
   LCOR   =        T    correct aug charges                                                         
   LPAW   =        T    paw PP                                                                      
   EAUG   =  605.392                                                                                
   DEXC   =    0.000                                                                                
   RMAX   =    1.553    core radius for proj-oper                                                   
   RAUG   =    1.300    factor for augmentation sphere                                              
   RDEP   =    1.550    radius for radial grids                                                     
   RDEPT  =    1.329    core radius for aug-charge                                                  
                                                                                                    
   Atomic configuration                                                                             
    4 entries                                                                                       
     n  l   j            E        occ.                                                              
     1  0  0.50      -514.6923   2.0000                                                             
     2  0  0.50       -23.9615   2.0000                                                             
     2  1  0.50        -9.0305   4.0000                                                             
     3  2  1.50        -9.5241   0.0000                                                             
   Description                                                                                      
     l       E           TYP  RCUT    TYP  RCUT                                                     
     0    -23.9615318     23  1.200                                                                 
     0     -9.5240782     23  1.200                                                                 
     1     -9.0304911     23  1.520                                                                 
     1      8.1634956     23  1.520                                                                 
     2     -9.5240782      7  1.500                                                                 
  local pseudopotential read in
  partial core-charges read in
  partial kinetic energy density read in
  kinetic energy density of atom read in
  atomic valenz-charges read in
  non local Contribution for L=           0  read in
    real space projection operators read in
  non local Contribution for L=           0  read in
    real space projection operators read in
  non local Contribution for L=           1  read in
    real space projection operators read in
  non local Contribution for L=           1  read in
    real space projection operators read in
    PAW grid and wavefunctions read in
 
   number of l-projection  operators is LMAX  =           4
   number of lm-projection operators is LMMAX =           8
 
 POTCAR:    PAW_PBE H 15Jun2001                   
   VRHFIN =H: ultrasoft test                                                                        
   LEXCH  = PE                                                                                      
   EATOM  =    12.4884 eV,    0.9179 Ry                                                             
                                                                                                    
   TITEL  = PAW_PBE H 15Jun2001                                                                     
   LULTRA =        F    use ultrasoft PP ?                                                          
   IUNSCR =        0    unscreen: 0-lin 1-nonlin 2-no                                               
   RPACOR =    0.000    partial core radius                                                         
   POMASS =    1.000; ZVAL   =    1.000    mass and valenz                                          
   RCORE  =    1.100    outmost cutoff radius                                                       
   RWIGS  =    0.700; RWIGS  =    0.370    wigner-seitz radius (au A)                               
   ENMAX  =  250.000; ENMIN  =  200.000 eV                                                          
   RCLOC  =    0.701    cutoff for local pot                                                        
   LCOR   =        T    correct aug charges                                                         
   LPAW   =        T    paw PP                                                                      
   EAUG   =  400.000                                                                                
   RMAX   =    1.123    core radius for proj-oper                                                   
   RAUG   =    1.200    factor for augmentation sphere                                              
   RDEP   =    1.112    radius for radial grids                                                     
   RDEPT  =    0.926    core radius for aug-charge                                                  
                                                                                                    
   Atomic configuration                                                                             
    2 entries                                                                                       
     n  l   j            E        occ.                                                              
     1  0  0.50        -6.4927   1.0000                                                             
     2  1  0.50        -3.4015   0.0000                                                             
   Description                                                                                      
     l       E           TYP  RCUT    TYP  RCUT                                                     
     0     -6.4927494     23  1.100                                                                 
     0      6.8029130     23  1.100                                                                 
     1     -4.0817478     23  1.100                                                                 
  local pseudopotential read in
  atomic valenz-charges read in
  non local Contribution for L=           0  read in
    real space projection operators read in
  non local Contribution for L=           0  read in
    real space projection operators read in
  non local Contribution for L=           1  read in
    real space projection operators read in
    PAW grid and wavefunctions read in
 
   number of l-projection  operators is LMAX  =           3
   number of lm-projection operators is LMMAX =           5
 
 Optimization of the real space projectors (new method)

 maximal supplied QI-value         = 16.25
 optimisation between [QCUT,QGAM] = [ 11.38, 22.75] = [ 36.24,144.96] Ry 
 Optimized for a Real-space Cutoff    1.52 Angstroem

   l    n(q)    QCUT    max X(q) W(low)/X(q) W(high)/X(q)  e(spline) 
   2      9    11.376     4.610    0.21E-03    0.10E-03    0.26E-06
   2      9    11.376     8.522    0.33E-03    0.16E-03    0.37E-06
   0     10    11.376    51.609    0.62E-04    0.20E-04    0.13E-06
   0     10    11.376    27.747    0.54E-04    0.20E-04    0.13E-06
   1     10    11.376    20.408    0.13E-04    0.99E-04    0.19E-06
   1     10    11.376    13.425    0.12E-04    0.87E-04    0.17E-06
 Optimization of the real space projectors (new method)

 maximal supplied QI-value         = 15.12
 optimisation between [QCUT,QGAM] = [ 11.34, 22.83] = [ 36.00,145.93] Ry 
 Optimized for a Real-space Cutoff    1.47 Angstroem

   l    n(q)    QCUT    max X(q) W(low)/X(q) W(high)/X(q)  e(spline) 
   0     10    11.338    12.107    0.38E-04    0.13E-04    0.27E-07
   0     10    11.338     9.948    0.69E-04    0.30E-04    0.38E-07
   1     10    11.338     3.563    0.26E-04    0.18E-04    0.40E-07
   1     10    11.338     4.524    0.25E-03    0.39E-04    0.44E-06
   2      9    11.338    87.261    0.26E-03    0.91E-05    0.26E-06
   2      9    11.338    70.950    0.25E-03    0.91E-05    0.25E-06
 Optimization of the real space projectors (new method)

 maximal supplied QI-value         = 24.76
 optimisation between [QCUT,QGAM] = [ 11.39, 22.77] = [ 36.31,145.25] Ry 
 Optimized for a Real-space Cutoff    1.00 Angstroem

   l    n(q)    QCUT    max X(q) W(low)/X(q) W(high)/X(q)  e(spline) 
   0      7    11.387    20.381    0.39E-03    0.13E-02    0.15E-06
   0      7    11.387    15.268    0.42E-03    0.14E-02    0.17E-06
   1      6    11.387     5.964    0.41E-03    0.11E-02    0.17E-06
   1      6    11.387     5.382    0.39E-03    0.87E-03    0.15E-06
 Optimization of the real space projectors (new method)

 maximal supplied QI-value         = 34.20
 optimisation between [QCUT,QGAM] = [ 11.29, 22.57] = [ 35.68,142.71] Ry 
 Optimized for a Real-space Cutoff    1.16 Angstroem

   l    n(q)    QCUT    max X(q) W(low)/X(q) W(high)/X(q)  e(spline) 
   0      8    11.287    19.460    0.40E-03    0.73E-03    0.16E-06
   0      8    11.287    12.209    0.38E-03    0.70E-03    0.15E-06
   1      7    11.287     4.655    0.22E-03    0.25E-04    0.22E-06
  PAW_PBE Cu 22Jun2005                  :
 energy of atom  1       EATOM=-1390.9808
 kinetic energy error for atom=    0.0043 (will be added to EATOM!!)
  PAW_PBE Zr_sv 04Jan2005               :
 energy of atom  2       EATOM=-1284.2219
 kinetic energy error for atom=    0.0049 (will be added to EATOM!!)
  PAW_PBE O 08Apr2002                   :
 energy of atom  3       EATOM= -432.3788
 kinetic energy error for atom=    0.0224 (will be added to EATOM!!)
  PAW_PBE H 15Jun2001                   :
 energy of atom  4       EATOM=  -12.4884
 kinetic energy error for atom=    0.0020 (will be added to EATOM!!)
 
 
 POSCAR: Cu-Zr-OOH
  positions in direct lattice
  velocities in cartesian coordinates
 exchange correlation table for  LEXCH =        8
   RHO(1)=    0.500       N(1)  =     2000
   RHO(2)=  100.500       N(2)  =     4000

 VTST: version 3.2, (02/03/18)

 CHAIN: initializing optimizer
 
 OPT: Using VASP Conjugate-Gradient optimizer
 CHAIN: Read ICHAIN            0
 
 POSCAR: Cu-Zr-OOH
  positions in direct lattice
  velocities in cartesian coordinates
 


--------------------------------------------------------------------------------------------------------


 ion  position               nearest neighbor table
   1  0.000  0.000  0.212-   7 2.57   3 2.57   4 2.57   2 2.57   6 2.57   8 2.57  12 2.57  10 2.57
                            16 2.57
   2  0.333  0.000  0.212-   8 2.57   9 2.57   5 2.57   1 2.57   3 2.57  11 2.57   4 2.57  10 2.57
                            17 2.57
   3  0.667  0.000  0.212-   1 2.57   7 2.57   6 2.57   9 2.57   2 2.57  12 2.57   5 2.57  18 2.57
                            11 2.57
   4  0.000  0.333  0.212-   5 2.57   6 2.57   1 2.57   7 2.57   2 2.57  13 2.57   9 2.57  10 2.57
                            15 2.57
   5  0.333  0.333  0.212-   4 2.57   2 2.57   7 2.57  13 2.57   8 2.57   6 2.57   3 2.57  11 2.57
                            14 2.57
   6  0.667  0.333  0.212-   4 2.57   9 2.57  15 2.57   3 2.57   1 2.57   8 2.57  14 2.57   5 2.57
                            12 2.57
   7  0.000  0.667  0.212-   1 2.57   3 2.57  16 2.57  18 2.57   4 2.57   5 2.57   8 2.57   9 2.57
                            13 2.57
   8  0.333  0.667  0.212-   9 2.57   2 2.57  17 2.57   6 2.57   1 2.57   7 2.57   5 2.57  14 2.57
                            16 2.57
   9  0.667  0.667  0.212-   8 2.57   6 2.57   2 2.57  17 2.57   3 2.57   7 2.57   4 2.57  15 2.57
                            18 2.57
  10  0.111  0.111  0.294-  26 2.54  19 2.54  11 2.57  12 2.57  13 2.57   1 2.57   2 2.57   4 2.57
                            15 2.57  16 2.57  17 2.57  20 2.59
  11  0.444  0.111  0.294-  27 2.56  10 2.57  13 2.57   2 2.57  17 2.57  14 2.57  12 2.57   5 2.57
                             3 2.57  18 2.57  20 2.58  21 2.58
  12  0.778  0.111  0.294-  19 2.54  25 2.54  15 2.57  10 2.57  14 2.57  18 2.57   3 2.57   1 2.57
                            16 2.57  11 2.57   6 2.57  21 2.59
  13  0.111  0.444  0.294-  22 2.56  16 2.57  18 2.57  10 2.57  11 2.57  14 2.57   5 2.57   4 2.57
                             7 2.57  15 2.57  23 2.58  20 2.58
  14  0.444  0.444  0.294-  24 2.56  15 2.57  17 2.57  12 2.57  16 2.57  13 2.57  11 2.57   6 2.57
                             8 2.57   5 2.57  21 2.58  23 2.58
  15  0.778  0.444  0.294-  19 2.54  24 2.56  22 2.56  14 2.57  17 2.57  12 2.57   6 2.57  18 2.57
                            10 2.57   9 2.57  13 2.57   4 2.57
  16  0.111  0.778  0.294-  25 2.54  26 2.54  18 2.57  13 2.57   7 2.57  14 2.57  17 2.57  12 2.57
                            10 2.57   8 2.57   1 2.57  23 2.59
  17  0.444  0.778  0.294-  26 2.54  27 2.56  24 2.56  14 2.57  15 2.57   8 2.57   9 2.57  11 2.57
                            16 2.57  18 2.57  10 2.57   2 2.57
  18  0.778  0.778  0.294-  25 2.54  22 2.56  27 2.56  16 2.57  13 2.57   7 2.57  15 2.57  12 2.57
                            17 2.57   9 2.57   3 2.57  11 2.57
  19  0.889  0.221  0.375-  12 2.54  10 2.54  15 2.54  25 2.55  26 2.55  32 2.56  31 2.56  22 2.57
                            24 2.57  28 2.57  21 2.58  20 2.58
  20  0.223  0.223  0.378-  23 2.55  21 2.55  29 2.57  31 2.57  27 2.57  22 2.57  26 2.58  19 2.58
                            11 2.58  13 2.58  10 2.59  36 2.86
  21  0.554  0.223  0.378-  20 2.55  23 2.55  32 2.57  30 2.57  24 2.57  27 2.57  19 2.58  25 2.58
                            14 2.58  11 2.58  12 2.59  36 2.86
  22  0.889  0.556  0.376-  18 2.56  15 2.56  13 2.56  31 2.56  33 2.56  24 2.57  27 2.57  23 2.57
                            20 2.57  19 2.57  25 2.57  35 2.58
  23  0.223  0.554  0.378-  20 2.55  21 2.55  33 2.57  34 2.57  22 2.57  24 2.57  25 2.58  26 2.58
                            13 2.58  14 2.58  16 2.59  36 2.86
  24  0.556  0.556  0.376-  15 2.56  17 2.56  14 2.56  32 2.56  34 2.56  22 2.57  27 2.57  21 2.57
                            23 2.57  19 2.57  26 2.57  35 2.58
  25  0.889  0.889  0.375-  12 2.54  16 2.54  18 2.54  19 2.55  26 2.55  33 2.56  30 2.56  22 2.57
                            27 2.57  28 2.57  21 2.58  23 2.58
  26  0.221  0.889  0.375-  10 2.54  16 2.54  17 2.54  25 2.55  19 2.55  29 2.56  34 2.56  27 2.57
                            24 2.57  28 2.57  20 2.58  23 2.58
  27  0.556  0.889  0.376-  17 2.56  18 2.56  11 2.56  29 2.56  30 2.56  24 2.57  22 2.57  20 2.57
                            21 2.57  26 2.57  25 2.57  35 2.58
  28  0.000  0.000  0.459-  33 2.55  30 2.55  31 2.55  29 2.55  32 2.55  34 2.55  25 2.57  19 2.57
                            26 2.57
  29  0.334  0.994  0.459-  34 2.47  35 2.54  28 2.55  27 2.56  26 2.56  20 2.57  30 2.60  31 2.62
                            36 2.64
  30  0.672  0.994  0.459-  33 2.47  35 2.54  28 2.55  27 2.56  25 2.56  21 2.57  29 2.60  32 2.62
                            36 2.64
  31  0.994  0.334  0.459-  32 2.47  35 2.54  28 2.55  22 2.56  19 2.56  20 2.57  33 2.60  29 2.62
                            36 2.64
  32  0.672  0.334  0.459-  31 2.47  35 2.54  28 2.55  24 2.56  19 2.56  21 2.57  34 2.60  30 2.62
                            36 2.64
  33  0.994  0.672  0.459-  30 2.47  35 2.54  28 2.55  22 2.56  25 2.56  23 2.57  31 2.60  34 2.62
                            36 2.64
  34  0.334  0.672  0.459-  29 2.47  35 2.54  28 2.55  24 2.56  26 2.56  23 2.57  32 2.60  33 2.62
                            36 2.64
  35  0.667  0.667  0.460-  34 2.54  32 2.54  29 2.54  30 2.54  33 2.54  31 2.54  24 2.58  27 2.58
                            22 2.58
  36  0.333  0.333  0.474-  37 1.91  31 2.64  29 2.64  33 2.64  32 2.64  34 2.64  30 2.64  23 2.86
                            20 2.86  21 2.86
  37  0.334  0.333  0.549-  38 1.42  36 1.91
  38  0.316  0.333  0.605-  39 0.98  37 1.42
  39  0.439  0.333  0.616-  38 0.98
 
  LATTYP: Found a hexagonal cell.
 ALAT       =     7.6967864036
 C/A-ratio  =     3.2973366172
  
  Lattice vectors:
  
 A1 = (  -3.8483927580,  -6.6656128093,   0.0000000000)
 A2 = (   7.6967864037,   0.0000000000,   0.0000000000)
 A3 = (   0.0000000000,   0.0000000000,  25.3788956434)


Analysis of symmetry for initial positions (statically):
=====================================================================
 Subroutine PRICEL returns:
 Original cell was already a primitive cell.
 

 Routine SETGRP: Setting up the symmetry group for a 
 hexagonal supercell.


 Subroutine GETGRP returns: Found  1 space group operations
 (whereof  1 operations were pure point group operations)
 out of a pool of 24 trial point group operations.


The static configuration has the point symmetry C_1 .


Analysis of symmetry for dynamics (positions and initial velocities):
=====================================================================
 Subroutine PRICEL returns:
 Original cell was already a primitive cell.
 

 Routine SETGRP: Setting up the symmetry group for a 
 hexagonal supercell.


 Subroutine GETGRP returns: Found  1 space group operations
 (whereof  1 operations were pure point group operations)
 out of a pool of 24 trial point group operations.


The dynamic configuration has the point symmetry C_1 .


Analysis of constrained symmetry for selective dynamics:
=====================================================================
 Subroutine PRICEL returns:
 Original cell was already a primitive cell.
 

 Routine SETGRP: Setting up the symmetry group for a 
 hexagonal supercell.


 Subroutine GETGRP returns: Found  1 space group operations
 (whereof  1 operations were pure point group operations)
 out of a pool of 24 trial point group operations.


The constrained configuration has the point symmetry C_1 .


 Subroutine INISYM returns: Found  1 space group operations
 (whereof  1 operations are pure point group operations),
 and found     1 'primitive' translations


----------------------------------------------------------------------------------------

                                     Primitive cell                                     

  volume of cell :    1302.0337

  direct lattice vectors                    reciprocal lattice vectors
     7.696786404  0.000000000  0.000000000     0.129924354 -0.075011849  0.000000000
     3.848392758  6.665612809  0.000000000     0.000000000  0.150023716  0.000000000
     0.000000000  0.000000000 25.378895643     0.000000000  0.000000000  0.039402818

  length of vectors
     7.696786404  7.696786404 25.378895643     0.150023716  0.150023716  0.039402818

  position of ions in fractional coordinates (direct lattice)
     0.000000000  0.000000000  0.211654586
     0.333333343  0.000000000  0.211654586
     0.666666687  0.000000000  0.211654586
     1.000000000  0.333333343  0.211654586
     0.333333313  0.333333343  0.211654586
     0.666666687  0.333333343  0.211654586
     1.000000000  0.666666687  0.211654586
     0.333333373  0.666666687  0.211654586
     0.666666627  0.666666687  0.211654586
     0.111111119  0.111111112  0.294195619
     0.444444418  0.111111112  0.294195619
     0.777777791  0.111111112  0.294195619
     0.111111119  0.444444448  0.294195619
     0.444444478  0.444444448  0.294195619
     0.777777731  0.444444448  0.294195619
     0.111111112  0.777777731  0.294195619
     0.444444478  0.777777731  0.294195619
     0.777777851  0.777777731  0.294195619
     0.889406203  0.221187610  0.375478131
     0.223097349  0.223097334  0.377517873
     0.553805361  0.223097334  0.377517873
     0.888858350  0.555570795  0.376369894
     0.223097319  0.553805301  0.377517873
     0.555570855  0.555570795  0.376369894
     0.889406203  0.889406203  0.375478131
     0.221187625  0.889406203  0.375478131
     0.555570795  0.888858350  0.376369894
     0.000000000  0.000000000  0.458556362
     0.334159469  0.993667856  0.458683568
     0.672172705  0.993667856  0.458683568
     0.993667856  0.334159469  0.458683568
     0.672172705  0.334159469  0.458683568
     0.993667856  0.672172705  0.458683568
     0.334159499  0.672172705  0.458683568
     0.666666627  0.666666687  0.459704383
     0.333333313  0.333333343  0.474130103
     0.333634262  0.333359824  0.549399412
     0.316239698  0.333387228  0.605110655
     0.438675125  0.333437365  0.615983136

  ion indices of the primitive-cell ions
   primitive index   ion index
                 1           1
                 2           2
                 3           3
                 4           4
                 5           5
                 6           6
                 7           7
                 8           8
                 9           9
                10          10
                11          11
                12          12
                13          13
                14          14
                15          15
                16          16
                17          17
                18          18
                19          19
                20          20
                21          21
                22          22
                23          23
                24          24
                25          25
                26          26
                27          27
                28          28
                29          29
                30          30
                31          31
                32          32
                33          33
                34          34
                35          35
                36          36
                37          37
                38          38
                39          39

----------------------------------------------------------------------------------------

 
 
 KPOINTS: Automatic mesh                          

Automatic generation of k-mesh.
 Grid dimensions read from file:
 generate k-points for:    8    8    1

 Generating k-lattice:

  Cartesian coordinates                     Fractional coordinates (reciprocal lattice)
     0.016240544 -0.009376481  0.000000000     0.125000000 -0.000000000  0.000000000
     0.000000000  0.018752964  0.000000000     0.000000000  0.125000000  0.000000000
     0.000000000  0.000000000  0.039402818     0.000000000  0.000000000  1.000000000

  Length of vectors
     0.018752964  0.018752964  0.039402818

  Shift w.r.t. Gamma in fractional coordinates (k-lattice)
     0.000000000  0.000000000  0.000000000

 TETIRR: Found    192 inequivalent tetrahedra from      384
 
 Subroutine IBZKPT returns following result:
 ===========================================
 
 Found     34 irreducible k-points:
 
 Following reciprocal coordinates:
            Coordinates               Weight
  0.000000  0.000000  0.000000      1.000000
  0.125000  0.000000  0.000000      2.000000
  0.125000  0.125000  0.000000      2.000000
  0.000000  0.125000  0.000000      2.000000
  0.250000  0.000000  0.000000      2.000000
  0.250000  0.250000  0.000000      2.000000
  0.000000  0.250000  0.000000      2.000000
  0.375000  0.000000  0.000000      2.000000
  0.375000  0.375000  0.000000      2.000000
  0.000000  0.375000  0.000000      2.000000
  0.500000  0.000000  0.000000      1.000000
  0.500000  0.500000  0.000000      1.000000
  0.000000  0.500000  0.000000      1.000000
  0.250000  0.125000  0.000000      2.000000
  0.125000  0.250000  0.000000      2.000000
 -0.125000  0.125000  0.000000      2.000000
  0.375000  0.125000  0.000000      2.000000
  0.250000  0.375000  0.000000      2.000000
 -0.125000  0.250000  0.000000      2.000000
  0.250000 -0.125000  0.000000      2.000000
 -0.125000 -0.375000  0.000000      2.000000
 -0.375000 -0.250000  0.000000      2.000000
  0.500000  0.125000  0.000000      2.000000
  0.375000  0.500000  0.000000      2.000000
 -0.125000  0.375000  0.000000      2.000000
  0.375000 -0.125000  0.000000      2.000000
 -0.125000  0.500000  0.000000      2.000000
  0.500000 -0.375000  0.000000      2.000000
  0.500000  0.250000  0.000000      2.000000
  0.250000  0.500000  0.000000      2.000000
 -0.250000  0.250000  0.000000      2.000000
 -0.375000  0.250000  0.000000      2.000000
  0.375000 -0.375000  0.000000      2.000000
 -0.250000  0.375000  0.000000      2.000000
 
 Following cartesian coordinates:
            Coordinates               Weight
  0.000000  0.000000  0.000000      1.000000
  0.016241 -0.009376  0.000000      2.000000
  0.016241  0.009376  0.000000      2.000000
  0.000000  0.018753  0.000000      2.000000
  0.032481 -0.018753  0.000000      2.000000
  0.032481  0.018753  0.000000      2.000000
  0.000000  0.037506  0.000000      2.000000
  0.048722 -0.028129  0.000000      2.000000
  0.048722  0.028129  0.000000      2.000000
  0.000000  0.056259  0.000000      2.000000
  0.064962 -0.037506  0.000000      1.000000
  0.064962  0.037506  0.000000      1.000000
  0.000000  0.075012  0.000000      1.000000
  0.032481  0.000000  0.000000      2.000000
  0.016241  0.028129  0.000000      2.000000
 -0.016241  0.028129  0.000000      2.000000
  0.048722 -0.009376  0.000000      2.000000
  0.032481  0.037506  0.000000      2.000000
 -0.016241  0.046882  0.000000      2.000000
  0.032481 -0.037506  0.000000      2.000000
 -0.016241 -0.046882  0.000000      2.000000
 -0.048722 -0.009376  0.000000      2.000000
  0.064962 -0.018753  0.000000      2.000000
  0.048722  0.046882  0.000000      2.000000
 -0.016241  0.065635  0.000000      2.000000
  0.048722 -0.046882  0.000000      2.000000
 -0.016241  0.084388  0.000000      2.000000
  0.064962 -0.093765  0.000000      2.000000
  0.064962  0.000000  0.000000      2.000000
  0.032481  0.056259  0.000000      2.000000
 -0.032481  0.056259  0.000000      2.000000
 -0.048722  0.065635  0.000000      2.000000
  0.048722 -0.084388  0.000000      2.000000
 -0.032481  0.075012  0.000000      2.000000
 


--------------------------------------------------------------------------------------------------------




 Dimension of arrays:
   k-points           NKPTS =     34   k-points in BZ     NKDIM =     34   number of bands    NBANDS=    252
   number of dos      NEDOS =    301   number of ions     NIONS =     39
   non local maximal  LDIM  =      6   non local SUM 2l+1 LMDIM =     18
   total plane-waves  NPLWV = 246960
   max r-space proj   IRMAX =   2832   max aug-charges    IRDMAX=   8086
   dimension x,y,z NGX =    42 NGY =   42 NGZ =  140
   dimension x,y,z NGXF=    84 NGYF=   84 NGZF=  280
   support grid    NGXF=    84 NGYF=   84 NGZF=  280
   ions per type =              35   1   2   1
   NGX,Y,Z   is equivalent  to a cutoff of   9.07,  9.07,  9.17 a.u.
   NGXF,Y,Z  is equivalent  to a cutoff of  18.14, 18.14, 18.34 a.u.

 SYSTEM =  unknown system                          
 POSCAR =  Cu-Zr-OOH                               

 Startparameter for this run:
   NWRITE =      2    write-flag & timer
   PREC   = normal    normal or accurate (medium, high low for compatibility)
   ISTART =      0    job   : 0-new  1-cont  2-samecut
   ICHARG =     11    charge: 1-file 2-atom 10-const
   ISPIN  =      1    spin polarized calculation?
   LNONCOLLINEAR =      F non collinear calculations
   LSORBIT =      F    spin-orbit coupling
   INIWAV =      1    electr: 0-lowe 1-rand  2-diag
   LASPH  =      F    aspherical Exc in radial PAW
   METAGGA=      F    non-selfconsistent MetaGGA calc.

 Electronic Relaxation 1
   ENCUT  =  500.0 eV  36.75 Ry    6.06 a.u.  14.03 14.03 46.27*2*pi/ulx,y,z
   ENINI  =  500.0     initial cutoff
   ENAUG  =  605.4 eV  augmentation charge cutoff
   NELM   =    150;   NELMIN=  2; NELMDL= -5     # of ELM steps 
   EDIFF  = 0.1E-04   stopping-criterion for ELM
   LREAL  =      T    real-space projection
   NLSPLINE    = F    spline interpolate recip. space projectors
   LCOMPAT=      F    compatible to vasp.4.4
   GGA_COMPAT  = T    GGA compatible to vasp.4.4-vasp.4.6
   LMAXPAW     = -100 max onsite density
   LMAXMIX     =    2 max onsite mixed and CHGCAR
   VOSKOWN=      0    Vosko Wilk Nusair interpolation
   ROPT   =   -0.00050  -0.00050  -0.00050  -0.00050
 Ionic relaxation
   EDIFFG = -.1E-01   stopping-criterion for IOM
   NSW    =      0    number of steps for IOM
   NBLOCK =      1;   KBLOCK =      1    inner block; outer block 
   IBRION =     -1    ionic relax: 0-MD 1-quasi-New 2-CG
   NFREE  =      1    steps in history (QN), initial steepest desc. (CG)
   ISIF   =      2    stress and relaxation
   IWAVPR =     10    prediction:  0-non 1-charg 2-wave 3-comb
   ISYM   =      2    0-nonsym 1-usesym 2-fastsym
   LCORR  =      T    Harris-Foulkes like correction to forces

   POTIM  = 0.5000    time-step for ionic-motion
   TEIN   =    0.0    initial temperature
   TEBEG  =    0.0;   TEEND  =   0.0 temperature during run
   SMASS  =  -3.00    Nose mass-parameter (am)
   estimated Nose-frequenzy (Omega)   =  0.10E-29 period in steps = 0.13E+47 mass=  -0.135E-26a.u.
   SCALEE = 1.0000    scale energy and forces
   NPACO  =    256;   APACO  = 16.0  distance and # of slots for P.C.
   PSTRESS=    0.0 pullay stress

  Mass of Ions in am
   POMASS =  63.55 91.22 16.00  1.00
  Ionic Valenz
   ZVAL   =  11.00 12.00  6.00  1.00
  Atomic Wigner-Seitz radii
   RWIGS  =  -1.00 -1.00 -1.00 -1.00
  virtual crystal weights 
   VCA    =   1.00  1.00  1.00  1.00
   NELECT =     410.0000    total number of electrons
   NUPDOWN=      -1.0000    fix difference up-down

 DOS related values:
   EMIN   =  10.00;   EMAX   =-10.00  energy-range for DOS
   EFERMI =   0.00
   ISMEAR =    -5;   SIGMA  =   0.10  broadening in eV -4-tet -1-fermi 0-gaus

 Electronic relaxation 2 (details)
   IALGO  =     68    algorithm
   LDIAG  =      T    sub-space diagonalisation (order eigenvalues)
   LSUBROT=      F    optimize rotation matrix (better conditioning)
   TURBO    =      0    0=normal 1=particle mesh
   IRESTART =      0    0=no restart 2=restart with 2 vectors
   NREBOOT  =      0    no. of reboots
   NMIN     =      0    reboot dimension
   EREF     =   0.00    reference energy to select bands
   IMIX   =      4    mixing-type and parameters
     AMIX     =   0.40;   BMIX     =  1.00
     AMIX_MAG =   1.60;   BMIX_MAG =  1.00
     AMIN     =   0.10
     WC   =   100.;   INIMIX=   1;  MIXPRE=   1;  MAXMIX= -45

 Intra band minimization:
   WEIMIN = 0.0000     energy-eigenvalue tresh-hold
   EBREAK =  0.99E-08  absolut break condition
   DEPER  =   0.30     relativ break condition  

   TIME   =   0.40     timestep for ELM

  volume/ion in A,a.u.               =      33.39       225.30
  Fermi-wavevector in a.u.,A,eV,Ry     =   1.113770  2.104719 16.877793  1.240483
  Thomas-Fermi vector in A             =   2.250358
 
 Write flags
   LWAVE        =      F    write WAVECAR
   LDOWNSAMPLE  =      F    k-point downsampling of WAVECAR
   LCHARG       =      F    write CHGCAR
   LVTOT        =      F    write LOCPOT, total local potential
   LVHAR        =      F    write LOCPOT, Hartree potential only
   LELF         =      F    write electronic localiz. function (ELF)
   LORBIT       =     10    0 simple, 1 ext, 2 COOP (PROOUT), +10 PAW based schemes


 Dipole corrections
   LMONO  =      F    monopole corrections only (constant potential shift)
   LDIPOL =      F    correct potential (dipole corrections)
   IDIPOL =      0    1-x, 2-y, 3-z, 4-all directions 
   EPSILON=  1.0000000 bulk dielectric constant

 Exchange correlation treatment:
   GGA     =    --    GGA type
   LEXCH   =     8    internal setting for exchange type
   VOSKOWN=      0    Vosko Wilk Nusair interpolation
   LHFCALC =     F    Hartree Fock is set to
   LHFONE  =     F    Hartree Fock one center treatment
   AEXX    =    0.0000 exact exchange contribution

 Linear response parameters
   LEPSILON=     F    determine dielectric tensor
   LRPA    =     F    only Hartree local field effects (RPA)
   LNABLA  =     F    use nabla operator in PAW spheres
   LVEL    =     F    velocity operator in full k-point grid
   LINTERFAST=   F  fast interpolation
   KINTER  =     0    interpolate to denser k-point grid
   CSHIFT  =0.1000    complex shift for real part using Kramers Kronig
   OMEGAMAX=  -1.0    maximum frequency
   DEG_THRESHOLD= 0.2000000E-02 threshold for treating states as degnerate
   RTIME   =   -0.100 relaxation time in fs
  (WPLASMAI=    0.000 imaginary part of plasma frequency in eV, 0.658/RTIME)
   DFIELD  = 0.0000000 0.0000000 0.0000000 field for delta impulse in time
 
 Orbital magnetization related:
   ORBITALMAG=     F  switch on orbital magnetization
   LCHIMAG   =     F  perturbation theory with respect to B field
   DQ        =  0.001000  dq finite difference perturbation B field
   LLRAUG    =     F  two centre corrections for induced B field



--------------------------------------------------------------------------------------------------------


 Static calculation
 charge density and potential remain constant during run
 non-spin polarized calculation
 RMM-DIIS sequential band-by-band and
  variant of blocked Davidson during initial phase
 perform sub-space diagonalisation
    before iterative eigenvector-optimisation
 no mixing
 using additional bands           47
 real space projection scheme for non local part
 use partial core corrections
 calculate Harris-corrections to forces 
   (improved forces if not selfconsistent)
 use gradient corrections 
 WARNING: stress and forces are not correct
  (second derivative of E(xc) not defined)
 use of overlap-Matrix (Vanderbilt PP)
 Fermi weights with tetrahedron method with Bloechl corrections


--------------------------------------------------------------------------------------------------------


  energy-cutoff  :      500.00
  volume of cell :     1302.03
      direct lattice vectors                 reciprocal lattice vectors
     7.696786404  0.000000000  0.000000000     0.129924354 -0.075011849  0.000000000
     3.848392758  6.665612809  0.000000000     0.000000000  0.150023716  0.000000000
     0.000000000  0.000000000 25.378895643     0.000000000  0.000000000  0.039402818

  length of vectors
     7.696786404  7.696786404 25.378895643     0.150023716  0.150023716  0.039402818


 
 k-points in units of 2pi/SCALE and weight: Automatic mesh                          
   0.00000000  0.00000000  0.00000000       0.016
   0.01624054 -0.00937648  0.00000000       0.031
   0.01624054  0.00937648  0.00000000       0.031
   0.00000000  0.01875296  0.00000000       0.031
   0.03248109 -0.01875296  0.00000000       0.031
   0.03248109  0.01875297  0.00000000       0.031
   0.00000000  0.03750593  0.00000000       0.031
   0.04872163 -0.02812944  0.00000000       0.031
   0.04872163  0.02812945  0.00000000       0.031
   0.00000000  0.05625889  0.00000000       0.031
   0.06496218 -0.03750592  0.00000000       0.016
   0.06496218  0.03750593  0.00000000       0.016
   0.00000000  0.07501186  0.00000000       0.016
   0.03248109  0.00000000  0.00000000       0.031
   0.01624054  0.02812945  0.00000000       0.031
  -0.01624054  0.02812945  0.00000000       0.031
   0.04872163 -0.00937648  0.00000000       0.031
   0.03248109  0.03750593  0.00000000       0.031
  -0.01624054  0.04688241  0.00000000       0.031
   0.03248109 -0.03750593  0.00000000       0.031
  -0.01624054 -0.04688241  0.00000000       0.031
  -0.04872163 -0.00937649  0.00000000       0.031
   0.06496218 -0.01875296  0.00000000       0.031
   0.04872163  0.04688241  0.00000000       0.031
  -0.01624054  0.06563537  0.00000000       0.031
   0.04872163 -0.04688241  0.00000000       0.031
  -0.01624054  0.08438834  0.00000000       0.031
   0.06496218 -0.09376482  0.00000000       0.031
   0.06496218  0.00000000  0.00000000       0.031
   0.03248109  0.05625890  0.00000000       0.031
  -0.03248109  0.05625889  0.00000000       0.031
  -0.04872163  0.06563537  0.00000000       0.031
   0.04872163 -0.08438834  0.00000000       0.031
  -0.03248109  0.07501186  0.00000000       0.031
 
 k-points in reciprocal lattice and weights: Automatic mesh                          
   0.00000000  0.00000000  0.00000000       0.016
   0.12500000  0.00000000  0.00000000       0.031
   0.12500000  0.12500000  0.00000000       0.031
   0.00000000  0.12500000  0.00000000       0.031
   0.25000000  0.00000000  0.00000000       0.031
   0.25000000  0.25000000  0.00000000       0.031
   0.00000000  0.25000000  0.00000000       0.031
   0.37500000  0.00000000  0.00000000       0.031
   0.37500000  0.37500000  0.00000000       0.031
   0.00000000  0.37500000  0.00000000       0.031
   0.50000000  0.00000000  0.00000000       0.016
   0.50000000  0.50000000  0.00000000       0.016
   0.00000000  0.50000000  0.00000000       0.016
   0.25000000  0.12500000  0.00000000       0.031
   0.12500000  0.25000000  0.00000000       0.031
  -0.12500000  0.12500000  0.00000000       0.031
   0.37500000  0.12500000  0.00000000       0.031
   0.25000000  0.37500000  0.00000000       0.031
  -0.12500000  0.25000000  0.00000000       0.031
   0.25000000 -0.12500000  0.00000000       0.031
  -0.12500000 -0.37500000  0.00000000       0.031
  -0.37500000 -0.25000000  0.00000000       0.031
   0.50000000  0.12500000  0.00000000       0.031
   0.37500000  0.50000000  0.00000000       0.031
  -0.12500000  0.37500000  0.00000000       0.031
   0.37500000 -0.12500000  0.00000000       0.031
  -0.12500000  0.50000000  0.00000000       0.031
   0.50000000 -0.37500000  0.00000000       0.031
   0.50000000  0.25000000  0.00000000       0.031
   0.25000000  0.50000000  0.00000000       0.031
  -0.25000000  0.25000000  0.00000000       0.031
  -0.37500000  0.25000000  0.00000000       0.031
   0.37500000 -0.37500000  0.00000000       0.031
  -0.25000000  0.37500000  0.00000000       0.031
 
 position of ions in fractional coordinates (direct lattice) 
   0.00000000  0.00000000  0.21165459
   0.33333334  0.00000000  0.21165459
   0.66666669  0.00000000  0.21165459
   0.00000000  0.33333334  0.21165459
   0.33333331  0.33333334  0.21165459
   0.66666669  0.33333334  0.21165459
   0.00000000  0.66666669  0.21165459
   0.33333337  0.66666669  0.21165459
   0.66666663  0.66666669  0.21165459
   0.11111112  0.11111111  0.29419562
   0.44444442  0.11111111  0.29419562
   0.77777779  0.11111111  0.29419562
   0.11111112  0.44444445  0.29419562
   0.44444448  0.44444445  0.29419562
   0.77777773  0.44444445  0.29419562
   0.11111111  0.77777773  0.29419562
   0.44444448  0.77777773  0.29419562
   0.77777785  0.77777773  0.29419562
   0.88940620  0.22118761  0.37547813
   0.22309735  0.22309733  0.37751787
   0.55380536  0.22309733  0.37751787
   0.88885835  0.55557079  0.37636989
   0.22309732  0.55380530  0.37751787
   0.55557085  0.55557079  0.37636989
   0.88940620  0.88940620  0.37547813
   0.22118762  0.88940620  0.37547813
   0.55557079  0.88885835  0.37636989
   0.00000000  0.00000000  0.45855636
   0.33415947  0.99366786  0.45868357
   0.67217271  0.99366786  0.45868357
   0.99366786  0.33415947  0.45868357
   0.67217271  0.33415947  0.45868357
   0.99366786  0.67217271  0.45868357
   0.33415950  0.67217271  0.45868357
   0.66666663  0.66666669  0.45970438
   0.33333331  0.33333334  0.47413010
   0.33363426  0.33335982  0.54939941
   0.31623970  0.33338723  0.60511066
   0.43867512  0.33343736  0.61598314
 
 position of ions in cartesian coordinates  (Angst):
   0.00000000  0.00000000  5.37155964
   2.56559554  0.00000000  5.37155964
   5.13119109  0.00000000  5.37155964
   1.28279762  2.22187100  5.37155964
   3.84839293  2.22187100  5.37155964
   6.41398872  2.22187100  5.37155964
   2.56559525  4.44374201  5.37155964
   5.13119102  4.44374201  5.37155964
   7.69678588  4.44374201  5.37155964
   1.28279775  0.74062365  7.46635991
   3.84839295  0.74062365  7.46635991
   6.41398873  0.74062365  7.46635991
   2.56559535  2.96249461  7.46635991
   5.13119101  2.96249461  7.46635991
   7.69678586  2.96249461  7.46635991
   3.84839268  5.18436521  7.46635991
   6.41398840  5.18436521  7.46635991
   8.97958418  5.18436521  7.46635991
   7.69678637  1.47435097  9.52922029
   2.57569881  1.48708045  9.58098670
   5.12108774  1.48708045  9.58098670
   8.97940749  3.70321981  9.55185227
   3.84839273  3.69145171  9.58098670
   6.41416482  3.70321981  9.55185227
  10.26835396  5.92843738  9.52922029
   5.12521829  5.92843738  9.52922029
   7.69678578  5.92478561  9.55185227
   0.00000000  0.00000000 11.63765405
   6.39597824  6.62340519 11.64088240
   8.99759392  6.62340519 11.64088240
   8.93402612  2.22737764 11.64088240
   6.45954662  2.22737764 11.64088240
  10.23483381  4.48044299 11.64088240
   5.15873886  4.48044299 11.64088240
   7.69678588  4.44374201 11.66678957
   3.84839293  2.22187100 12.03289841
   3.85081118  2.22204751 13.94315036
   3.71703440  2.22223017 15.35704017
   4.65958668  2.22256437 15.63297172
 


--------------------------------------------------------------------------------------------------------


 k-point   1 :   0.0000 0.0000 0.0000  plane waves:   33027
 k-point   2 :   0.1250 0.0000 0.0000  plane waves:   32999
 k-point   3 :   0.1250 0.1250 0.0000  plane waves:   32999
 k-point   4 :   0.0000 0.1250 0.0000  plane waves:   32999
 k-point   5 :   0.2500 0.0000 0.0000  plane waves:   33054
 k-point   6 :   0.2500 0.2500 0.0000  plane waves:   33054
 k-point   7 :   0.0000 0.2500 0.0000  plane waves:   33054
 k-point   8 :   0.3750 0.0000 0.0000  plane waves:   33036
 k-point   9 :   0.3750 0.3750 0.0000  plane waves:   33036
 k-point  10 :   0.0000 0.3750 0.0000  plane waves:   33036
 k-point  11 :   0.5000 0.0000 0.0000  plane waves:   33066
 k-point  12 :   0.5000 0.5000 0.0000  plane waves:   33066
 k-point  13 :   0.0000 0.5000 0.0000  plane waves:   33066
 k-point  14 :   0.2500 0.1250 0.0000  plane waves:   33058
 k-point  15 :   0.1250 0.2500 0.0000  plane waves:   33058
 k-point  16 :  -0.1250 0.1250 0.0000  plane waves:   33058
 k-point  17 :   0.3750 0.1250 0.0000  plane waves:   33072
 k-point  18 :   0.2500 0.3750 0.0000  plane waves:   33072
 k-point  19 :  -0.1250 0.2500 0.0000  plane waves:   33072
 k-point  20 :   0.2500-0.1250 0.0000  plane waves:   33072
 k-point  21 :  -0.1250-0.3750 0.0000  plane waves:   33072
 k-point  22 :  -0.3750-0.2500 0.0000  plane waves:   33072
 k-point  23 :   0.5000 0.1250 0.0000  plane waves:   33053
 k-point  24 :   0.3750 0.5000 0.0000  plane waves:   33053
 k-point  25 :  -0.1250 0.3750 0.0000  plane waves:   33053
 k-point  26 :   0.3750-0.1250 0.0000  plane waves:   33053
 k-point  27 :  -0.1250 0.5000 0.0000  plane waves:   33053
 k-point  28 :   0.5000-0.3750 0.0000  plane waves:   33053
 k-point  29 :   0.5000 0.2500 0.0000  plane waves:   33084
 k-point  30 :   0.2500 0.5000 0.0000  plane waves:   33084
 k-point  31 :  -0.2500 0.2500 0.0000  plane waves:   33084
 k-point  32 :  -0.3750 0.2500 0.0000  plane waves:   33108
 k-point  33 :   0.3750-0.3750 0.0000  plane waves:   33108
 k-point  34 :  -0.2500 0.3750 0.0000  plane waves:   33108

 maximum and minimum number of plane-waves per node :     33108    32999

 maximum number of plane-waves:     33108
 maximum index in each direction: 
   IXMAX=   14   IYMAX=   14   IZMAX=   46
   IXMIN=  -14   IYMIN=  -14   IZMIN=  -46


 serial   3D FFT for wavefunctions
 parallel 3D FFT for charge:
    minimum data exchange during FFTs selected (reduces bandwidth)


 total amount of memory used by VASP MPI-rank0   231879. kBytes
=======================================================================

   base      :      30000. kBytes
   nonlr-proj:      17399. kBytes
   fftplans  :       3394. kBytes
   grid      :      15015. kBytes
   one-center:        606. kBytes
   wavefun   :     165465. kBytes
 
     INWAV:  cpu time    0.0000: real time    0.0000
 initial charge density was supplied:
 number of electron     409.9999445 magnetization 
 keeping initial charge density in first step


--------------------------------------------------------------------------------------------------------


 Maximum index for non-local projection operator         2735
 Maximum index for augmentation-charges          427 (set IRDMAX)


--------------------------------------------------------------------------------------------------------


 First call to EWALD:  gamma=   0.162
 Maximum number of real-space cells 4x 4x 1
 Maximum number of reciprocal cells 2x 2x 6

    FEWALD:  cpu time    0.0013: real time    0.0014


--------------------------------------- Iteration      1(   1)  ---------------------------------------


    POTLOK:  cpu time    0.0301: real time    0.0304
    SETDIJ:  cpu time    0.0036: real time    0.0037
     EDDAV:  cpu time   20.9366: real time   20.9392
 BZINTS: Fermi energy:   12.950582;  410.000000 electrons
         Band energy: 0.230407E+04;  BLOECHL correction:   -0.034876
       DOS:  cpu time    0.0514: real time    0.0514
    --------------------------------------------
      LOOP:  cpu time   21.0217: real time   21.0248

 eigenvalue-minimisations  : 17136
 total energy-change (2. order) : 0.3828130E+04  (-0.1756365E+05)
 number of electron     409.9999445 magnetization 
 augmentation part      409.9999445 magnetization 

 Free energy of the ion-electron system (eV)
  ---------------------------------------------------
  alpha Z        PSCENC =       782.95665408
  Ewald energy   TEWEN  =    229258.84833856
  -Hartree energ DENC   =   -277276.94068013
  -exchange      EXHF   =         0.00000000
  -V(xc)+E(xc)   XCENC  =      1666.48810334
  PAW double counting   =     48569.53141424   -52322.42355103
  entropy T*S    EENTRO =         0.00000000
  eigenvalues    EBANDS =      2304.07436351
  atomic energy  EATOM  =     50845.59542598
  Solvation  Ediel_sol  =         0.00000000
  ---------------------------------------------------
  free energy    TOTEN  =      3828.13006854 eV

  energy without entropy =     3828.13006854  energy(sigma->0) =     3828.13006854


--------------------------------------------------------------------------------------------------------




--------------------------------------- Iteration      1(   2)  ---------------------------------------


     EDDAV:  cpu time   22.7350: real time   22.7365
 BZINTS: Fermi energy:    2.927847;  410.000000 electrons
         Band energy:-0.112918E+04;  BLOECHL correction:   -0.019620
       DOS:  cpu time    0.0531: real time    0.0531
    --------------------------------------------
      LOOP:  cpu time   22.7882: real time   22.7896

 eigenvalue-minimisations  : 18760
 total energy-change (2. order) :-0.3433259E+04  (-0.3310284E+04)
 number of electron     409.9999445 magnetization 
 augmentation part      409.9999445 magnetization 

 Free energy of the ion-electron system (eV)
  ---------------------------------------------------
  alpha Z        PSCENC =       782.95665408
  Ewald energy   TEWEN  =    229258.84833856
  -Hartree energ DENC   =   -277276.94068013
  -exchange      EXHF   =         0.00000000
  -V(xc)+E(xc)   XCENC  =      1666.48810334
  PAW double counting   =     48569.53141424   -52322.42355103
  entropy T*S    EENTRO =         0.00000000
  eigenvalues    EBANDS =     -1129.18416375
  atomic energy  EATOM  =     50845.59542598
  Solvation  Ediel_sol  =         0.00000000
  ---------------------------------------------------
  free energy    TOTEN  =       394.87154129 eV

  energy without entropy =      394.87154129  energy(sigma->0) =      394.87154129


--------------------------------------------------------------------------------------------------------




--------------------------------------- Iteration      1(   3)  ---------------------------------------


     EDDAV:  cpu time   25.1733: real time   25.1748
 BZINTS: Fermi energy:   -0.026632;  410.000000 electrons
         Band energy:-0.162413E+04;  BLOECHL correction:   -0.048836
       DOS:  cpu time    0.0501: real time    0.0501
    --------------------------------------------
      LOOP:  cpu time   25.2234: real time   25.2249

 eigenvalue-minimisations  : 21168
 total energy-change (2. order) :-0.4949459E+03  (-0.4733621E+03)
 number of electron     409.9999445 magnetization 
 augmentation part      409.9999445 magnetization 

 Free energy of the ion-electron system (eV)
  ---------------------------------------------------
  alpha Z        PSCENC =       782.95665408
  Ewald energy   TEWEN  =    229258.84833856
  -Hartree energ DENC   =   -277276.94068013
  -exchange      EXHF   =         0.00000000
  -V(xc)+E(xc)   XCENC  =      1666.48810334
  PAW double counting   =     48569.53141424   -52322.42355103
  entropy T*S    EENTRO =         0.00000000
  eigenvalues    EBANDS =     -1624.13009062
  atomic energy  EATOM  =     50845.59542598
  Solvation  Ediel_sol  =         0.00000000
  ---------------------------------------------------
  free energy    TOTEN  =      -100.07438559 eV

  energy without entropy =     -100.07438559  energy(sigma->0) =     -100.07438559


--------------------------------------------------------------------------------------------------------




--------------------------------------- Iteration      1(   4)  ---------------------------------------


     EDDAV:  cpu time   28.9249: real time   28.9266
 BZINTS: Fermi energy:   -0.353147;  410.000000 electrons
         Band energy:-0.166892E+04;  BLOECHL correction:   -0.065591
       DOS:  cpu time    0.0530: real time    0.0530
    --------------------------------------------
      LOOP:  cpu time   28.9778: real time   28.9795

 eigenvalue-minimisations  : 25060
 total energy-change (2. order) :-0.4478952E+02  (-0.4376136E+02)
 number of electron     409.9999445 magnetization 
 augmentation part      409.9999445 magnetization 

 Free energy of the ion-electron system (eV)
  ---------------------------------------------------
  alpha Z        PSCENC =       782.95665408
  Ewald energy   TEWEN  =    229258.84833856
  -Hartree energ DENC   =   -277276.94068013
  -exchange      EXHF   =         0.00000000
  -V(xc)+E(xc)   XCENC  =      1666.48810334
  PAW double counting   =     48569.53141424   -52322.42355103
  entropy T*S    EENTRO =         0.00000000
  eigenvalues    EBANDS =     -1668.91961089
  atomic energy  EATOM  =     50845.59542598
  Solvation  Ediel_sol  =         0.00000000
  ---------------------------------------------------
  free energy    TOTEN  =      -144.86390585 eV

  energy without entropy =     -144.86390585  energy(sigma->0) =     -144.86390585


--------------------------------------------------------------------------------------------------------




--------------------------------------- Iteration      1(   5)  ---------------------------------------


     EDDAV:  cpu time   32.2706: real time   32.2724
 BZINTS: Fermi energy:   -0.363621;  410.000000 electrons
         Band energy:-0.167077E+04;  BLOECHL correction:   -0.064684
       DOS:  cpu time    0.0534: real time    0.0534
    --------------------------------------------
      LOOP:  cpu time   32.3241: real time   32.3258

 eigenvalue-minimisations  : 28448
 total energy-change (2. order) :-0.1854450E+01  (-0.1842936E+01)
 number of electron     409.9999445 magnetization 
 augmentation part      409.9999445 magnetization 

 Free energy of the ion-electron system (eV)
  ---------------------------------------------------
  alpha Z        PSCENC =       782.95665408
  Ewald energy   TEWEN  =    229258.84833856
  -Hartree energ DENC   =   -277276.94068013
  -exchange      EXHF   =         0.00000000
  -V(xc)+E(xc)   XCENC  =      1666.48810334
  PAW double counting   =     48569.53141424   -52322.42355103
  entropy T*S    EENTRO =         0.00000000
  eigenvalues    EBANDS =     -1670.77406086
  atomic energy  EATOM  =     50845.59542598
  Solvation  Ediel_sol  =         0.00000000
  ---------------------------------------------------
  free energy    TOTEN  =      -146.71835582 eV

  energy without entropy =     -146.71835582  energy(sigma->0) =     -146.71835582


--------------------------------------------------------------------------------------------------------




--------------------------------------- Iteration      1(   6)  ---------------------------------------


    EDDIAG:  cpu time    4.0431: real time    4.0464
  RMM-DIIS:  cpu time   14.6146: real time   14.6155
    ORTHCH:  cpu time    0.7687: real time    0.7687
 BZINTS: Fermi energy:   -0.363745;  410.000000 electrons
         Band energy:-0.167081E+04;  BLOECHL correction:   -0.064687
       DOS:  cpu time    0.0546: real time    0.0546
    --------------------------------------------
      LOOP:  cpu time   19.4810: real time   19.4852

 eigenvalue-minimisations  : 21403
 total energy-change (2. order) :-0.3300611E-01  (-0.3300035E-01)
 number of electron     409.9999445 magnetization 
 augmentation part      409.9999445 magnetization 

 Free energy of the ion-electron system (eV)
  ---------------------------------------------------
  alpha Z        PSCENC =       782.95665408
  Ewald energy   TEWEN  =    229258.84833856
  -Hartree energ DENC   =   -277276.94068013
  -exchange      EXHF   =         0.00000000
  -V(xc)+E(xc)   XCENC  =      1666.48810334
  PAW double counting   =     48569.53141424   -52322.42355103
  entropy T*S    EENTRO =         0.00000000
  eigenvalues    EBANDS =     -1670.80706696
  atomic energy  EATOM  =     50845.59542598
  Solvation  Ediel_sol  =         0.00000000
  ---------------------------------------------------
  free energy    TOTEN  =      -146.75136192 eV

  energy without entropy =     -146.75136192  energy(sigma->0) =     -146.75136192


--------------------------------------------------------------------------------------------------------




--------------------------------------- Iteration      1(   7)  ---------------------------------------


    EDDIAG:  cpu time    4.0705: real time    4.0709
  RMM-DIIS:  cpu time   21.8480: real time   21.8493
    ORTHCH:  cpu time    0.7385: real time    0.7386
 BZINTS: Fermi energy:   -0.363818;  410.000000 electrons
         Band energy:-0.167082E+04;  BLOECHL correction:   -0.064685
       DOS:  cpu time    0.0547: real time    0.0547
    --------------------------------------------
      LOOP:  cpu time   26.7117: real time   26.7134

 eigenvalue-minimisations  : 32676
 total energy-change (2. order) :-0.1291280E-01  (-0.1275650E-01)
 number of electron     409.9999445 magnetization 
 augmentation part      409.9999445 magnetization 

 Free energy of the ion-electron system (eV)
  ---------------------------------------------------
  alpha Z        PSCENC =       782.95665408
  Ewald energy   TEWEN  =    229258.84833856
  -Hartree energ DENC   =   -277276.94068013
  -exchange      EXHF   =         0.00000000
  -V(xc)+E(xc)   XCENC  =      1666.48810334
  PAW double counting   =     48569.53141424   -52322.42355103
  entropy T*S    EENTRO =         0.00000000
  eigenvalues    EBANDS =     -1670.81997976
  atomic energy  EATOM  =     50845.59542598
  Solvation  Ediel_sol  =         0.00000000
  ---------------------------------------------------
  free energy    TOTEN  =      -146.76427472 eV

  energy without entropy =     -146.76427472  energy(sigma->0) =     -146.76427472


--------------------------------------------------------------------------------------------------------




--------------------------------------- Iteration      1(   8)  ---------------------------------------


    EDDIAG:  cpu time    4.0534: real time    4.0536
  RMM-DIIS:  cpu time   22.4687: real time   22.4700
    ORTHCH:  cpu time    0.7694: real time    0.7695
 BZINTS: Fermi energy:   -0.363830;  410.000000 electrons
         Band energy:-0.167082E+04;  BLOECHL correction:   -0.064684
       DOS:  cpu time    0.0534: real time    0.0534
    --------------------------------------------
      LOOP:  cpu time   27.3449: real time   27.3466

 eigenvalue-minimisations  : 33911
 total energy-change (2. order) :-0.3384566E-02  (-0.3248317E-02)
 number of electron     409.9999445 magnetization 
 augmentation part      409.9999445 magnetization 

 Free energy of the ion-electron system (eV)
  ---------------------------------------------------
  alpha Z        PSCENC =       782.95665408
  Ewald energy   TEWEN  =    229258.84833856
  -Hartree energ DENC   =   -277276.94068013
  -exchange      EXHF   =         0.00000000
  -V(xc)+E(xc)   XCENC  =      1666.48810334
  PAW double counting   =     48569.53141424   -52322.42355103
  entropy T*S    EENTRO =         0.00000000
  eigenvalues    EBANDS =     -1670.82336432
  atomic energy  EATOM  =     50845.59542598
  Solvation  Ediel_sol  =         0.00000000
  ---------------------------------------------------
  free energy    TOTEN  =      -146.76765928 eV

  energy without entropy =     -146.76765928  energy(sigma->0) =     -146.76765928


--------------------------------------------------------------------------------------------------------




--------------------------------------- Iteration      1(   9)  ---------------------------------------


    EDDIAG:  cpu time    4.0585: real time    4.0589
  RMM-DIIS:  cpu time   22.1265: real time   22.1278
    ORTHCH:  cpu time    0.7414: real time    0.7415
 BZINTS: Fermi energy:   -0.363836;  410.000000 electrons
         Band energy:-0.167082E+04;  BLOECHL correction:   -0.064684
       DOS:  cpu time    0.0535: real time    0.0535
    --------------------------------------------
      LOOP:  cpu time   26.9799: real time   26.9817

 eigenvalue-minimisations  : 33260
 total energy-change (2. order) :-0.1304793E-02  (-0.1264362E-02)
 number of electron     409.9999445 magnetization 
 augmentation part      409.9999445 magnetization 

 Free energy of the ion-electron system (eV)
  ---------------------------------------------------
  alpha Z        PSCENC =       782.95665408
  Ewald energy   TEWEN  =    229258.84833856
  -Hartree energ DENC   =   -277276.94068013
  -exchange      EXHF   =         0.00000000
  -V(xc)+E(xc)   XCENC  =      1666.48810334
  PAW double counting   =     48569.53141424   -52322.42355103
  entropy T*S    EENTRO =         0.00000000
  eigenvalues    EBANDS =     -1670.82466912
  atomic energy  EATOM  =     50845.59542598
  Solvation  Ediel_sol  =         0.00000000
  ---------------------------------------------------
  free energy    TOTEN  =      -146.76896408 eV

  energy without entropy =     -146.76896408  energy(sigma->0) =     -146.76896408


--------------------------------------------------------------------------------------------------------




--------------------------------------- Iteration      1(  10)  ---------------------------------------


    EDDIAG:  cpu time    4.0675: real time    4.0679
  RMM-DIIS:  cpu time   20.7765: real time   20.7777
    ORTHCH:  cpu time    0.7397: real time    0.7397
 BZINTS: Fermi energy:   -0.363839;  410.000000 electrons
         Band energy:-0.167083E+04;  BLOECHL correction:   -0.064683
       DOS:  cpu time    0.0535: real time    0.0535
    --------------------------------------------
      LOOP:  cpu time   25.6371: real time   25.6388

 eigenvalue-minimisations  : 31060
 total energy-change (2. order) :-0.6122591E-03  (-0.6029346E-03)
 number of electron     409.9999445 magnetization 
 augmentation part      409.9999445 magnetization 

 Free energy of the ion-electron system (eV)
  ---------------------------------------------------
  alpha Z        PSCENC =       782.95665408
  Ewald energy   TEWEN  =    229258.84833856
  -Hartree energ DENC   =   -277276.94068013
  -exchange      EXHF   =         0.00000000
  -V(xc)+E(xc)   XCENC  =      1666.48810334
  PAW double counting   =     48569.53141424   -52322.42355103
  entropy T*S    EENTRO =         0.00000000
  eigenvalues    EBANDS =     -1670.82528137
  atomic energy  EATOM  =     50845.59542598
  Solvation  Ediel_sol  =         0.00000000
  ---------------------------------------------------
  free energy    TOTEN  =      -146.76957634 eV

  energy without entropy =     -146.76957634  energy(sigma->0) =     -146.76957634


--------------------------------------------------------------------------------------------------------




--------------------------------------- Iteration      1(  11)  ---------------------------------------


    EDDIAG:  cpu time    4.0535: real time    4.0539
  RMM-DIIS:  cpu time   20.2829: real time   20.2841
    ORTHCH:  cpu time    0.7458: real time    0.7458
 BZINTS: Fermi energy:   -0.363841;  410.000000 electrons
         Band energy:-0.167083E+04;  BLOECHL correction:   -0.064683
       DOS:  cpu time    0.0511: real time    0.0511
    --------------------------------------------
      LOOP:  cpu time   25.1333: real time   25.1349

 eigenvalue-minimisations  : 30023
 total energy-change (2. order) :-0.3112312E-03  (-0.3125461E-03)
 number of electron     409.9999445 magnetization 
 augmentation part      409.9999445 magnetization 

 Free energy of the ion-electron system (eV)
  ---------------------------------------------------
  alpha Z        PSCENC =       782.95665408
  Ewald energy   TEWEN  =    229258.84833856
  -Hartree energ DENC   =   -277276.94068013
  -exchange      EXHF   =         0.00000000
  -V(xc)+E(xc)   XCENC  =      1666.48810334
  PAW double counting   =     48569.53141424   -52322.42355103
  entropy T*S    EENTRO =         0.00000000
  eigenvalues    EBANDS =     -1670.82559261
  atomic energy  EATOM  =     50845.59542598
  Solvation  Ediel_sol  =         0.00000000
  ---------------------------------------------------
  free energy    TOTEN  =      -146.76988757 eV

  energy without entropy =     -146.76988757  energy(sigma->0) =     -146.76988757


--------------------------------------------------------------------------------------------------------




--------------------------------------- Iteration      1(  12)  ---------------------------------------


    EDDIAG:  cpu time    4.0456: real time    4.0459
  RMM-DIIS:  cpu time   18.8588: real time   18.8600
    ORTHCH:  cpu time    0.7382: real time    0.7382
 BZINTS: Fermi energy:   -0.363843;  410.000000 electrons
         Band energy:-0.167083E+04;  BLOECHL correction:   -0.064683
       DOS:  cpu time    0.0547: real time    0.0547
    --------------------------------------------
      LOOP:  cpu time   23.6974: real time   23.6988

 eigenvalue-minimisations  : 27691
 total energy-change (2. order) :-0.1630068E-03  (-0.1647388E-03)
 number of electron     409.9999445 magnetization 
 augmentation part      409.9999445 magnetization 

 Free energy of the ion-electron system (eV)
  ---------------------------------------------------
  alpha Z        PSCENC =       782.95665408
  Ewald energy   TEWEN  =    229258.84833856
  -Hartree energ DENC   =   -277276.94068013
  -exchange      EXHF   =         0.00000000
  -V(xc)+E(xc)   XCENC  =      1666.48810334
  PAW double counting   =     48569.53141424   -52322.42355103
  entropy T*S    EENTRO =         0.00000000
  eigenvalues    EBANDS =     -1670.82575561
  atomic energy  EATOM  =     50845.59542598
  Solvation  Ediel_sol  =         0.00000000
  ---------------------------------------------------
  free energy    TOTEN  =      -146.77005057 eV

  energy without entropy =     -146.77005057  energy(sigma->0) =     -146.77005057


--------------------------------------------------------------------------------------------------------




--------------------------------------- Iteration      1(  13)  ---------------------------------------


    EDDIAG:  cpu time    4.0592: real time    4.0595
  RMM-DIIS:  cpu time   17.9438: real time   17.9449
    ORTHCH:  cpu time    0.7362: real time    0.7363
 BZINTS: Fermi energy:   -0.363843;  410.000000 electrons
         Band energy:-0.167083E+04;  BLOECHL correction:   -0.064683
[...]
  0.000   0.000   0.000   0.000   0.000   0.000   0.000   0.000   0.000   0.000   1.000   0.000   0.000   0.000   0.000   0.000
  0.000   0.000   0.000   0.000   0.000   0.000   0.000   0.000   0.000   0.000   0.000   0.000   0.000   0.000   0.000   0.000
  0.000   0.000   0.000   0.000   0.000   0.000   0.000   0.000   0.000   0.000   0.000   0.000   0.000   0.000   0.000   0.000
  0.000   0.000   0.000   0.000   0.000   0.000   0.000   0.000   0.000   0.000   0.000   0.000   0.000   0.000   0.000   0.000
  0.000   0.000   0.000   0.000   0.000   0.000   0.000   0.000   0.000   0.000   0.000   0.000   0.000   0.000   0.000   0.000
  0.000   0.000   0.000   0.000   0.000   0.000   0.000   0.000   0.000   0.000   0.000   0.000   0.000   0.000   0.000   0.000
  0.000   0.000   0.000   0.000   0.000   0.000   0.000   0.000   0.000   0.000   0.000   0.000   0.000   0.000   0.000   0.000
  0.000   0.000   0.000   0.000   0.000   0.000   0.000   0.000   0.000   0.000   0.000   0.000   0.000   0.000   0.000   0.000


------------------------ aborting loop because EDIFF is reached ----------------------------------------





 total charge

# of ion       s       p       d       tot
------------------------------------------
    1        0.448   0.284   9.186   9.918
    2        0.448   0.285   9.185   9.919
    3        0.448   0.285   9.185   9.919
    4        0.448   0.285   9.185   9.919
    5        0.447   0.286   9.184   9.917
    6        0.448   0.285   9.185   9.919
    7        0.448   0.285   9.185   9.919
    8        0.448   0.285   9.185   9.919
    9        0.448   0.284   9.188   9.920
   10        0.442   0.371   9.178   9.991
   11        0.441   0.365   9.182   9.987
   12        0.442   0.371   9.178   9.991
   13        0.441   0.364   9.182   9.987
   14        0.441   0.364   9.182   9.987
   15        0.439   0.373   9.177   9.989
   16        0.442   0.371   9.178   9.991
   17        0.439   0.373   9.177   9.989
   18        0.439   0.373   9.177   9.989
   19        0.447   0.372   9.181  10.000
   20        0.453   0.379   9.166   9.998
   21        0.453   0.378   9.167   9.999
   22        0.436   0.376   9.178   9.989
   23        0.453   0.379   9.167   9.998
   24        0.436   0.376   9.177   9.989
   25        0.447   0.372   9.181   9.999
   26        0.447   0.372   9.181   9.999
   27        0.436   0.376   9.177   9.989
   28        0.446   0.300   9.179   9.924
   29        0.487   0.317   9.169   9.973
   30        0.487   0.318   9.169   9.973
   31        0.487   0.318   9.168   9.973
   32        0.487   0.319   9.168   9.974
   33        0.487   0.317   9.169   9.973
   34        0.487   0.318   9.168   9.973
   35        0.448   0.304   9.178   9.930
   36        2.227   6.002   1.658   9.887
   37        1.575   3.385   0.000   4.960
   38        1.588   3.397   0.000   4.985
   39        0.616   0.113   0.000   0.729
--------------------------------------------------
tot         21.828  24.674 322.879 369.380
 
    CHARGE:  cpu time    0.7674: real time    0.7676
    FORLOC:  cpu time    0.0085: real time    0.0085
    FORNL :  cpu time    4.2132: real time    4.2135
    STRESS:  cpu time   12.5863: real time   12.5872
    FORCOR:  cpu time    0.0313: real time    0.0313
    FORHAR:  cpu time    0.0130: real time    0.0131
    OFIELD:  cpu time    0.0002: real time    0.0002

  FORCE on cell =-STRESS in cart. coord.  units (eV):
  Direction    XX          YY          ZZ          XY          YZ          ZX
  --------------------------------------------------------------------------------------
  Alpha Z   782.95665   782.95665   782.95665
  Ewald  255390.34330255297.11145************     0.01144     0.06442     6.42379
  Hartree268477.53156268458.35361************    -0.03740     0.01724    -7.25379
  E(xc)   -2360.56131 -2360.94876 -2364.22737     0.00024     0.00026     0.05953
  Local  ************************536515.09376     0.07415    -0.08025     4.91849
  n-local  -818.19752  -818.21262  -817.78960    -0.00826     0.00667    -0.25847
  augment  3322.55675  3324.43553  3340.22537    -0.02416     0.00020    -0.11696
  Kinetic  3636.29598  3661.35184  3620.37826    -0.01705     0.00082    -3.78934
  Fock        0.00000     0.00000     0.00000     0.00000     0.00000     0.00000
  -------------------------------------------------------------------------------------
  Total      -3.26453    -3.26274     0.28763    -0.00104     0.00936    -0.01675
  in kB      -4.01707    -4.01486     0.35394    -0.00127     0.01152    -0.02061
  external pressure =       -2.56 kB  Pullay stress =        0.00 kB


 VOLUME and BASIS-vectors are now :
 -----------------------------------------------------------------------------
  energy-cutoff  :      500.00
  volume of cell :     1302.03
      direct lattice vectors                 reciprocal lattice vectors
     7.696786404  0.000000000  0.000000000     0.129924354 -0.075011849  0.000000000
     3.848392758  6.665612809  0.000000000     0.000000000  0.150023716  0.000000000
     0.000000000  0.000000000 25.378895643     0.000000000  0.000000000  0.039402818

  length of vectors
     7.696786404  7.696786404 25.378895643     0.150023716  0.150023716  0.039402818


 FORCES acting on ions
    electron-ion (+dipol)            ewald-force                    non-local-force                 convergence-correction
 -----------------------------------------------------------------------------------------------
   0.179E-02 -.647E-02 0.392E+04   -.276E-03 -.537E-03 -.392E+04   -.459E-02 0.302E-02 -.217E+01   0.318E-02 0.433E-02 -.466E+00
   -.868E+00 -.880E+00 0.392E+04   0.859E+00 0.892E+00 -.392E+04   0.274E-01 0.441E-01 -.191E+01   -.160E-01 -.483E-01 -.398E+00
   0.867E+00 -.892E+00 0.392E+04   -.859E+00 0.893E+00 -.392E+04   -.238E-01 0.454E-01 -.190E+01   0.133E-01 -.379E-01 -.383E+00
   -.121E+01 -.312E+00 0.392E+04   0.120E+01 0.297E+00 -.392E+04   0.600E-01 0.517E-02 -.189E+01   -.498E-01 0.719E-02 -.395E+00
   -.830E-02 -.601E-02 0.392E+04   0.790E-03 -.401E-04 -.391E+04   -.112E-01 -.551E-02 -.190E+01   0.199E-01 0.116E-01 -.382E+00
   0.121E+01 -.320E+00 0.392E+04   -.120E+01 0.297E+00 -.392E+04   -.572E-01 0.403E-02 -.189E+01   0.436E-01 0.171E-01 -.376E+00
   -.328E+00 0.120E+01 0.392E+04   0.344E+00 -.119E+01 -.392E+04   0.173E-01 -.504E-01 -.190E+01   -.267E-01 0.310E-01 -.384E+00
   0.311E+00 0.121E+01 0.392E+04   -.344E+00 -.119E+01 -.392E+04   -.140E-01 -.504E-01 -.190E+01   0.408E-01 0.280E-01 -.380E+00
   0.192E-01 0.582E-02 0.392E+04   -.706E-04 0.583E-03 -.392E+04   0.749E-02 0.401E-02 -.208E+01   -.269E-01 -.114E-01 -.379E+00
   -.101E+02 -.581E+01 0.141E+04   0.103E+02 0.595E+01 -.141E+04   -.205E+00 -.125E+00 -.817E+00   0.465E-02 0.323E-02 -.673E+00
   -.193E-01 -.804E+01 0.140E+04   0.396E-02 0.780E+01 -.139E+04   -.928E-02 0.229E+00 -.500E+00   0.247E-01 0.905E-04 -.650E+00
   0.101E+02 -.582E+01 0.141E+04   -.103E+02 0.596E+01 -.141E+04   0.205E+00 -.122E+00 -.792E+00   -.168E-01 0.157E-01 -.663E+00
   -.698E+01 0.400E+01 0.140E+04   0.676E+01 -.390E+01 -.139E+04   0.197E+00 -.124E+00 -.486E+00   0.105E-01 0.227E-01 -.647E+00
   0.694E+01 0.401E+01 0.140E+04   -.675E+01 -.390E+01 -.139E+04   -.209E+00 -.121E+00 -.484E+00   0.332E-01 0.167E-01 -.641E+00
   0.218E-01 -.206E+01 0.141E+04   -.424E-02 0.201E+01 -.141E+04   0.101E-02 0.388E-01 -.833E+00   -.178E-01 0.176E-01 -.649E+00
   -.499E-02 0.116E+02 0.141E+04   0.106E-02 -.119E+02 -.141E+04   0.119E-02 0.242E+00 -.817E+00   0.265E-02 -.216E-01 -.666E+00
   -.177E+01 0.104E+01 0.141E+04   0.174E+01 -.101E+01 -.141E+04   0.307E-01 -.114E-01 -.836E+00   0.985E-02 -.254E-01 -.654E+00
   0.178E+01 0.102E+01 0.141E+04   -.174E+01 -.100E+01 -.141E+04   -.356E-01 -.157E-01 -.840E+00   -.115E-01 -.935E-02 -.649E+00
   0.329E-01 -.438E+01 -.110E+04   -.306E-01 0.435E+01 0.110E+04   0.138E-01 -.196E-01 0.104E+01   -.164E-01 0.359E-01 -.416E+00
   -.231E+02 -.133E+02 -.117E+04   0.240E+02 0.138E+02 0.117E+04   -.998E+00 -.597E+00 -.267E+00   0.461E-02 0.787E-02 -.471E+00
   0.231E+02 -.133E+02 -.117E+04   -.240E+02 0.138E+02 0.117E+04   0.942E+00 -.585E+00 -.235E+00   0.392E-01 0.160E-01 -.479E+00
   -.877E+01 0.502E+01 -.112E+04   0.865E+01 -.496E+01 0.112E+04   0.186E+00 -.995E-01 0.847E+00   -.408E-01 0.241E-01 -.451E+00
   -.448E-01 0.266E+02 -.117E+04   0.289E-01 -.277E+02 0.117E+04   -.123E-01 0.113E+01 -.216E+00   0.270E-01 0.282E-01 -.474E+00
   0.880E+01 0.504E+01 -.112E+04   -.868E+01 -.498E+01 0.112E+04   -.178E+00 -.927E-01 0.839E+00   0.264E-01 0.144E-01 -.454E+00
   0.381E+01 0.221E+01 -.110E+04   -.379E+01 -.218E+01 0.110E+04   0.134E-01 -.232E-02 0.105E+01   -.197E-01 -.159E-01 -.414E+00
   -.380E+01 0.224E+01 -.110E+04   0.378E+01 -.221E+01 0.110E+04   -.127E-01 0.100E-01 0.106E+01   0.187E-01 -.334E-01 -.409E+00
   -.718E-02 -.101E+02 -.112E+04   0.695E-02 0.999E+01 0.112E+04   0.321E-03 0.210E+00 0.858E+00   -.521E-04 -.552E-01 -.449E+00
   0.873E-01 0.198E+00 -.366E+04   -.874E-01 -.180E+00 0.366E+04   0.495E-03 -.889E-02 0.162E+01   -.582E-03 -.628E-02 0.176E+00
   0.123E+02 0.777E+01 -.361E+04   -.120E+02 -.772E+01 0.361E+04   -.258E+00 -.119E+00 0.124E+01   -.666E-01 -.874E-01 -.514E-01
   -.123E+02 0.753E+01 -.361E+04   0.121E+02 -.748E+01 0.361E+04   0.264E+00 -.125E+00 0.121E+01   0.681E-01 -.772E-01 -.607E-01
   0.128E+02 0.694E+01 -.361E+04   -.127E+02 -.677E+01 0.361E+04   -.210E+00 -.161E+00 0.119E+01   -.104E+00 -.139E-01 -.583E-01
   -.125E+02 0.694E+01 -.361E+04   0.124E+02 -.677E+01 0.361E+04   0.229E+00 -.163E+00 0.111E+01   0.976E-01 -.901E-02 -.752E-01
   0.230E+00 -.147E+02 -.361E+04   -.316E+00 0.145E+02 0.361E+04   0.227E-01 0.276E+00 0.123E+01   -.271E-01 0.980E-01 -.600E-01
   -.319E+00 -.145E+02 -.361E+04   0.390E+00 0.143E+02 0.361E+04   -.179E-01 0.284E+00 0.120E+01   0.383E-01 0.934E-01 -.664E-01
   0.106E+00 -.199E+00 -.368E+04   -.887E-01 0.193E+00 0.368E+04   0.682E-02 0.149E-01 0.172E+01   -.246E-01 -.112E-01 0.640E-01
   -.644E+00 0.331E-01 -.395E+04   0.530E+00 -.332E-01 0.395E+04   0.991E-01 -.793E-03 -.458E+00   0.109E-01 0.929E-02 0.363E-01
   -.119E+02 0.210E-01 -.223E+04   0.138E+02 -.241E-01 0.221E+04   -.186E+01 0.322E-02 0.209E+02   -.161E-02 0.773E-04 0.172E+00
   0.668E+02 -.148E-01 -.217E+04   -.109E+03 0.294E-02 0.219E+04   0.426E+02 0.112E-01 -.249E+02   -.183E-02 0.181E-02 0.108E+00
   -.876E+02 -.260E-01 -.357E+03   0.955E+02 0.292E-01 0.359E+03   -.786E+01 -.274E-02 -.247E+01   -.772E-04 0.583E-04 0.182E-01
 -----------------------------------------------------------------------------------------------
   -.331E+02 0.125E-01 0.284E+02   0.284E-13 0.291E-12 0.455E-12   0.330E+02 -.474E-01 -.153E+02   0.678E-01 0.408E-01 -.132E+02
 
 
 POSITION                                       TOTAL-FORCE (eV/Angst)
 -----------------------------------------------------------------------------------
      0.00000      0.00000      5.37156         0.000123      0.000192      0.017398
      2.56560      0.00000      5.37156         0.001846      0.007919      0.058491
      5.13119      0.00000      5.37156        -0.001741      0.008144      0.059367
      1.28280      2.22187      5.37156         0.006498     -0.002782      0.060116
      3.84839      2.22187      5.37156         0.001138     -0.000067      0.065818
      6.41399      2.22187      5.37156        -0.007110     -0.002645      0.060423
      2.56560      4.44374      5.37156         0.006557     -0.005206      0.059171
      5.13119      4.44374      5.37156        -0.006441     -0.005860      0.059110
      7.69679      4.44374      5.37156        -0.000194     -0.001096      0.032540
      1.28280      0.74062      7.46636         0.044011      0.024805     -0.105568
      3.84839      0.74062      7.46636         0.000069     -0.012100     -0.022231
      6.41399      0.74062      7.46636        -0.043316      0.024314     -0.104280
      2.56560      2.96249      7.46636        -0.010525      0.006530     -0.022560
      5.13119      2.96249      7.46636         0.011459      0.006988     -0.021639
      7.69679      2.96249      7.46636         0.000818      0.011963     -0.034675
      3.84839      5.18437      7.46636        -0.000068     -0.050574     -0.105505
      6.41399      5.18437      7.46636         0.009892     -0.005282     -0.034404
      8.97958      5.18437      7.46636        -0.009888     -0.006198     -0.034819
      7.69679      1.47435      9.52922        -0.000300     -0.014081      0.013639
      2.57570      1.48708      9.58099        -0.095360     -0.053737     -0.165652
      5.12109      1.48708      9.58099         0.100791     -0.059059     -0.179054
      8.97941      3.70322      9.55185         0.024125     -0.014864      0.023032
      3.84839      3.69145      9.58099        -0.001142      0.109860     -0.168633
      6.41416      3.70322      9.55185        -0.024310     -0.014970      0.019889
     10.26835      5.92844      9.52922         0.011859      0.007200      0.017328
      5.12522      5.92844      9.52922        -0.012042      0.006768      0.018149
      7.69679      5.92479      9.55185         0.000052      0.026356      0.024114
      0.00000      0.00000     11.63765        -0.000126      0.001941     -0.050115
      6.39598      6.62341     11.64088        -0.091144     -0.156279     -0.135842
      8.99759      6.62341     11.64088         0.092996     -0.154731     -0.137198
      8.93403      2.22738     11.64088        -0.181357     -0.000261     -0.140771
      6.45955      2.22738     11.64088         0.180580     -0.000965     -0.147193
     10.23483      4.48044     11.64088        -0.090057      0.156576     -0.134348
      5.15874      4.48044     11.64088         0.090983      0.154819     -0.136844
      7.69679      4.44374     11.66679        -0.000825     -0.003274     -0.045054
      3.84839      2.22187     12.03290        -0.004534      0.008279      1.345521
      3.85081      2.22205     13.94315         0.001977      0.000042     -0.001594
      3.71703      2.22223     15.35704        -0.004344      0.001032     -0.008963
      4.65959      2.22256     15.63297        -0.000948      0.000304      0.002834
 -----------------------------------------------------------------------------------
    total drift:                               -0.000594      0.005915     -0.133865


--------------------------------------------------------------------------------------------------------



  FREE ENERGIE OF THE ION-ELECTRON SYSTEM (eV)
  ---------------------------------------------------
  free  energy   TOTEN  =      -146.77024695 eV

  energy  without entropy=     -146.77024695  energy(sigma->0) =     -146.77024695
 


--------------------------------------------------------------------------------------------------------


    POTLOK:  cpu time    0.0295: real time    0.0295


--------------------------------------------------------------------------------------------------------


 stress matrix after NEB project (eV)
     -3.26453     -0.00104     -0.01675
     -0.00104     -3.26274      0.00936
     -0.01675      0.00936      0.28763
  FORCES: max atom, RMS     0.010014    0.001723
  FORCE total and by dimension    0.010759    0.008963
  Stress total and by dimension    4.624508    3.264531
     LOOP+:  cpu time  443.4074: real time  443.4460
 -----------------------------------------------------------------------------
|                                                                             |
|           W    W    AA    RRRRR   N    N  II  N    N   GGGG   !!!           |
|           W    W   A  A   R    R  NN   N  II  NN   N  G    G  !!!           |
|           W    W  A    A  R    R  N N  N  II  N N  N  G       !!!           |
|           W WW W  AAAAAA  RRRRR   N  N N  II  N  N N  G  GGG   !            |
|           WW  WW  A    A  R   R   N   NN  II  N   NN  G    G                |
|           W    W  A    A  R    R  N    N  II  N    N   GGGG   !!!           |
|                                                                             |
|     Tetrahedron method does not include variations of the Fermi             |
|     occupations, so forces and stress will be inaccurate. We suggest        |
|     using a different smearing scheme ISMEAR = 1 or 2 for metals in         |
|     relaxations.                                                            |
|                                                                             |
 -----------------------------------------------------------------------------

    4ORBIT:  cpu time    0.0000: real time    0.0000



 total charge

# of ion       s       p       d       tot
------------------------------------------
    1        0.448   0.284   9.186   9.918
    2        0.448   0.285   9.185   9.919
    3        0.448   0.285   9.185   9.919
    4        0.448   0.285   9.185   9.919
    5        0.447   0.286   9.184   9.917
    6        0.448   0.285   9.185   9.919
    7        0.448   0.285   9.185   9.919
    8        0.448   0.285   9.185   9.919
    9        0.448   0.284   9.188   9.920
   10        0.442   0.371   9.178   9.991
   11        0.441   0.365   9.182   9.987
   12        0.442   0.371   9.178   9.991
   13        0.441   0.364   9.182   9.987
   14        0.441   0.364   9.182   9.987
   15        0.439   0.373   9.177   9.989
   16        0.442   0.371   9.178   9.991
   17        0.439   0.373   9.177   9.989
   18        0.439   0.373   9.177   9.989
   19        0.447   0.372   9.181  10.000
   20        0.453   0.379   9.166   9.998
   21        0.453   0.378   9.167   9.999
   22        0.436   0.376   9.178   9.989
   23        0.453   0.379   9.167   9.998
   24        0.436   0.376   9.177   9.989
   25        0.447   0.372   9.181   9.999
   26        0.447   0.372   9.181   9.999
   27        0.436   0.376   9.177   9.989
   28        0.446   0.300   9.179   9.924
   29        0.487   0.317   9.169   9.973
   30        0.487   0.318   9.169   9.973
   31        0.487   0.318   9.168   9.973
   32        0.487   0.319   9.168   9.974
   33        0.487   0.317   9.169   9.973
   34        0.487   0.318   9.168   9.973
   35        0.448   0.304   9.178   9.930
   36        2.227   6.002   1.658   9.887
   37        1.575   3.385   0.000   4.960
   38        1.588   3.397   0.000   4.985
   39        0.616   0.113   0.000   0.729
--------------------------------------------------
tot         21.828  24.674 322.879 369.380
 
 BZINTS: Fermi energy:   -0.363844;  410.000000 electrons
         Band energy:-0.167083E+04;  BLOECHL correction:   -0.064683

 total amount of memory used by VASP MPI-rank0   231879. kBytes
=======================================================================

   base      :      30000. kBytes
   nonlr-proj:      17399. kBytes
   fftplans  :       3394. kBytes
   grid      :      15015. kBytes
   one-center:        606. kBytes
   wavefun   :     165465. kBytes
 
  
  
 General timing and accounting informations for this job:
 ========================================================
  
                  Total CPU time used (sec):      460.853
                            User time (sec):      449.251
                          System time (sec):       11.602
                         Elapsed time (sec):      461.263
  
                   Maximum memory used (kb):      514040.
                   Average memory used (kb):          N/A
  
                          Minor page faults:       204950
                          Major page faults:            0
                 Voluntary context switches:         8785
