PROCAR new format
# of k-points:   10         # of bands:  252         # of ions:   37

 k-point     1 :    0.00000000 0.00000000 0.00000000     weight = 0.01562500

band     1 # energy  -18.31616155 # occ.  2.00000000
 
ion      s      p      d    tot
    1  0.000  0.000  0.000  0.000
    2  0.000  0.000  0.000  0.000
    3  0.000  0.000  0.000  0.000
    4  0.000  0.000  0.000  0.000
    5  0.000  0.000  0.000  0.000
    6  0.000  0.000  0.000  0.000
    7  0.000  0.000  0.000  0.000
    8  0.000  0.000  0.000  0.000
    9  0.000  0.000  0.000  0.000
   10  0.000  0.000  0.000  0.000
   11  0.000  0.000  0.000  0.000
   12  0.000  0.000  0.000  0.000
   13  0.000  0.000  0.000  0.000
   14  0.000  0.000  0.000  0.000
   15  0.000  0.000  0.000  0.000
   16  0.000  0.000  0.000  0.000
   17  0.000  0.000  0.000  0.000
   18  0.000  0.000  0.000  0.000
   19  0.000  0.000  0.000  0.000
   20  0.000  0.000  0.000  0.000
   21  0.000  0.000  0.000  0.000
   22  0.000  0.000  0.000  0.000
   23  0.000  0.000  0.000  0.000
   24  0.000  0.000  0.000  0.000
   25  0.000  0.000  0.000  0.000
   26  0.000  0.000  0.000  0.000
   27  0.000  0.000  0.000  0.000
   28  0.000  0.000  0.000  0.000
   29  0.000  0.000  0.000  0.000
   30  0.000  0.000  0.000  0.000
   31  0.000  0.000  0.000  0.000
   32  0.000  0.000  0.000  0.000
   33  0.000  0.000  0.000  0.000
   34  0.000  0.000  0.000  0.000
   35  0.000  0.000  0.000  0.000
   36  0.049  0.070  0.090  0.209
   37  0.779  0.010  0.000  0.790
tot    0.829  0.080  0.090  0.999
 
band     2 # energy   -8.76395617 # occ.  2.00000000
 
ion      s      p      d    tot
    1  0.007  0.001  0.000  0.008
    2  0.007  0.001  0.000  0.008
    3  0.007  0.001  0.000  0.008
    4  0.007  0.001  0.000  0.008
    5  0.007  0.001  0.000  0.008
    6  0.007  0.001  0.000  0.008
    7  0.007  0.001  0.000  0.008
    8  0.007  0.001  0.000  0.008
    9  0.007  0.001  0.000  0.007
   10  0.025  0.000  0.000  0.025
   11  0.025  0.000  0.000  0.025
   12  0.025  0.000  0.000  0.025
   13  0.025  0.000  0.000  0.025
   14  0.025  0.000  0.000  0.025
   15  0.025  0.000  0.000  0.025
   16  0.025  0.000  0.000  0.025
   17  0.025  0.000  0.000  0.025
   18  0.025  0.000  0.000  0.025
   19  0.024  0.000  0.000  0.025
   20  0.025  0.000  0.000  0.025
   21  0.025  0.000  0.000  0.025
   22  0.024  0.000  0.000  0.024
   23  0.025  0.000  0.000  0.025
   24  0.024  0.000  0.000  0.024
   25  0.024  0.000  0.000  0.025
   26  0.024  0.000  0.000  0.025
   27  0.024  0.000  0.000  0.024
   28  0.006  0.001  0.000  0.007
   29  0.006  0.001  0.000  0.007
   30  0.006  0.001  0.000  0.007
   31  0.006  0.001  0.000  0.007
   32  0.006  0.001  0.000  0.007
   33  0.006  0.001  0.000  0.007
   34  0.006  0.001  0.000  0.007
   35  0.006  0.001  0.000  0.007
   36  0.007  0.002  0.000  0.009
   37  0.000  0.000  0.000  0.001
tot    0.564  0.018  0.001  0.583
 
band     3 # energy   -7.43913957 # occ.  2.00000000
 
ion      s      p      d    tot
    1  0.018  0.001  0.001  0.020
    2  0.018  0.001  0.001  0.020
    3  0.018  0.001  0.001  0.020
    4  0.018  0.001  0.001  0.020
    5  0.018  0.001  0.001  0.020
    6  0.018  0.001  0.001  0.020
    7  0.018  0.001  0.001  0.020
    8  0.018  0.001  0.001  0.020
    9  0.018  0.001  0.001  0.020
   10  0.010  0.002  0.001  0.012
   11  0.009  0.002  0.001  0.012
   12  0.010  0.002  0.001  0.012
   13  0.009  0.002  0.001  0.012
   14  0.009  0.002  0.001  0.012
   15  0.009  0.002  0.001  0.012
   16  0.010  0.002  0.001  0.012
   17  0.009  0.002  0.001  0.012
   18  0.009  0.002  0.001  0.012
   19  0.011  0.002  0.001  0.014
   20  0.011  0.002  0.001  0.013
   21  0.011  0.002  0.001  0.013
   22  0.011  0.002  0.001  0.014
   23  0.011  0.002  0.001  0.013
   24  0.011  0.002  0.001  0.014
   25  0.011  0.002  0.001  0.014
   26  0.011  0.002  0.001  0.014
   27  0.011  0.002  0.001  0.014
   28  0.018  0.001  0.000  0.020
   29  0.017  0.001  0.000  0.019
   30  0.017  0.001  0.000  0.019
   31  0.017  0.001  0.000  0.019
   32  0.017  0.001  0.000  0.019
   33  0.017  0.001  0.000  0.019
   34  0.017  0.001  0.000  0.019
   35  0.018  0.001  0.000  0.019
   36  0.016  0.002  0.001  0.019
   37  0.001  0.001  0.000  0.001
tot    0.508  0.057  0.020  0.585
 
band     4 # energy   -5.85269020 # occ.  2.00000000
 
ion      s      p      d    tot
    1  0.012  0.000  0.004  0.016
    2  0.009  0.001  0.005  0.014
    3  0.009  0.001  0.005  0.014
    4  0.009  0.001  0.005  0.014
    5  0.000  0.001  0.005  0.007
    6  0.009  0.001  0.005  0.014
    7  0.009  0.001  0.005  0.014
    8  0.009  0.001  0.005  0.014
    9  0.025  0.000  0.002  0.027
   10  0.001  0.003  0.004  0.009
   11  0.019  0.006  0.001  0.027
   12  0.001  0.003  0.004  0.009
   13  0.019  0.006  0.001  0.027
   14  0.019  0.006  0.001  0.027
   15  0.002  0.002  0.006  0.009
   16  0.001  0.003  0.004  0.009
   17  0.002  0.002  0.006  0.009
   18  0.002  0.002  0.006  0.009
   19  0.000  0.002  0.007  0.009
   20  0.029  0.006  0.003  0.038
   21  0.029  0.006  0.003  0.038
   22  0.000  0.005  0.004  0.009
   23  0.029  0.006  0.003  0.038
   24  0.000  0.005  0.004  0.009
   25  0.000  0.002  0.007  0.009
   26  0.000  0.002  0.007  0.009
   27  0.000  0.005  0.004  0.009
   28  0.020  0.000  0.003  0.022
   29  0.011  0.001  0.006  0.018
   30  0.011  0.001  0.006  0.018
   31  0.011  0.001  0.006  0.018
   32  0.011  0.001  0.006  0.018
   33  0.011  0.001  0.006  0.018
   34  0.011  0.001  0.006  0.018
   35  0.027  0.000  0.003  0.030
   36  0.001  0.002  0.029  0.032
   37  0.000  0.010  0.000  0.010
tot    0.364  0.091  0.186  0.641
 
band     5 # energy   -5.79163637 # occ.  2.00000000
 
ion      s      p      d    tot
    1  0.000  0.002  0.005  0.007
    2  0.001  0.001  0.002  0.004
    3  0.009  0.002  0.002  0.013
    4  0.001  0.001  0.002  0.003
    5  0.000  0.003  0.004  0.007
    6  0.005  0.002  0.002  0.008
    7  0.009  0.002  0.002  0.013
    8  0.005  0.002  0.002  0.008
    9  0.000  0.000  0.002  0.002
   10  0.000  0.000  0.016  0.017
   11  0.028  0.004  0.006  0.038
   12  0.039  0.004  0.006  0.050
   13  0.027  0.004  0.006  0.037
   14  0.000  0.012  0.005  0.017
   15  0.001  0.003  0.004  0.009
   16  0.040  0.004  0.006  0.050
   17  0.001  0.003  0.004  0.009
   18  0.000  0.007  0.007  0.014
   19  0.013  0.003  0.005  0.022
   20  0.000  0.004  0.016  0.020
   21  0.050  0.004  0.008  0.062
   22  0.011  0.004  0.005  0.019
   23  0.051  0.004  0.008  0.063
   24  0.000  0.003  0.012  0.015
   25  0.000  0.014  0.002  0.015
   26  0.013  0.004  0.005  0.022
   27  0.011  0.004  0.005  0.019
   28  0.000  0.002  0.003  0.005
   29  0.000  0.001  0.002  0.003
   30  0.009  0.002  0.003  0.014
   31  0.000  0.001  0.002  0.003
   32  0.007  0.002  0.003  0.012
   33  0.009  0.002  0.003  0.014
   34  0.007  0.002  0.003  0.012
   35  0.000  0.000  0.003  0.003
   36  0.000  0.006  0.008  0.014
   37  0.000  0.000  0.000  0.000
tot    0.346  0.117  0.182  0.644
 
band     6 # energy   -5.79155352 # occ.  2.00000000
 
ion      s      p      d    tot
    1  0.000  0.002  0.005  0.007
    2  0.009  0.002  0.002  0.013
    3  0.001  0.001  0.002  0.004
    4  0.009  0.002  0.002  0.013
    5  0.000  0.003  0.004  0.007
    6  0.005  0.002  0.002  0.009
    7  0.001  0.001  0.002  0.003
    8  0.005  0.002  0.002  0.008
    9  0.000  0.000  0.002  0.002
   10  0.053  0.005  0.003  0.061
   11  0.009  0.009  0.005  0.023
   12  0.014  0.002  0.013  0.028
   13  0.010  0.009  0.005  0.024
   14  0.037  0.001  0.007  0.044
   15  0.000  0.006  0.006  0.012
   16  0.013  0.002  0.013  0.027
   17  0.000  0.006  0.006  0.012
   18  0.001  0.002  0.004  0.007
   19  0.004  0.010  0.003  0.017
   20  0.067  0.004  0.005  0.076
   21  0.017  0.004  0.014  0.035
   22  0.004  0.003  0.010  0.017
   23  0.016  0.004  0.014  0.034
   24  0.014  0.004  0.003  0.020
   25  0.017  0.000  0.007  0.024
   26  0.004  0.010  0.003  0.018
   27  0.003  0.003  0.010  0.017
   28  0.000  0.002  0.003  0.005
   29  0.010  0.003  0.003  0.016
   30  0.002  0.001  0.002  0.005
   31  0.010  0.003  0.003  0.016
   32  0.004  0.001  0.002  0.008
   33  0.002  0.001  0.002  0.005
   34  0.003  0.001  0.002  0.007
   35  0.000  0.000  0.003  0.003
   36  0.000  0.006  0.008  0.014
   37  0.000  0.000  0.000  0.000
tot    0.346  0.117  0.182  0.644
 
band     7 # energy   -5.76109304 # occ.  2.00000000
 
ion      s      p      d    tot
    1  0.021  0.003  0.001  0.025
    2  0.000  0.002  0.004  0.006
    3  0.000  0.002  0.004  0.006
    4  0.000  0.002  0.004  0.006
    5  0.002  0.000  0.000  0.003
    6  0.000  0.002  0.004  0.006
    7  0.000  0.002  0.004  0.006
    8  0.000  0.002  0.004  0.006
    9  0.009  0.001  0.000  0.010
   10  0.032  0.006  0.005  0.043
   11  0.006  0.000  0.012  0.018
   12  0.031  0.006  0.005  0.043
   13  0.006  0.000  0.012  0.018
   14  0.006  0.000  0.012  0.018
   15  0.010  0.008  0.004  0.022
   16  0.031  0.006  0.005  0.043
   17  0.010  0.008  0.004  0.022
   18  0.011  0.008  0.004  0.022
   19  0.024  0.009  0.002  0.035
   20  0.000  0.003  0.011  0.014
   21  0.000  0.003  0.011  0.013
   22  0.023  0.002  0.009  0.034
   23  0.000  0.003  0.011  0.013
   24  0.023  0.002  0.010  0.034
   25  0.023  0.009  0.002  0.035
   26  0.024  0.009  0.002  0.035
   27  0.023  0.002  0.009  0.034
   28  0.017  0.003  0.001  0.021
   29  0.000  0.002  0.004  0.006
   30  0.000  0.002  0.004  0.006
   31  0.000  0.002  0.004  0.006
   32  0.000  0.002  0.004  0.006
   33  0.000  0.002  0.004  0.006
   34  0.000  0.002  0.004  0.006
   35  0.012  0.002  0.001  0.015
   36  0.000  0.000  0.000  0.000
   37  0.000  0.000  0.000  0.000
tot    0.344  0.114  0.181  0.640
 
band     8 # energy   -5.75355289 # occ.  2.00000000
 
ion      s      p      d    tot
    1  0.000  0.001  0.003  0.004
    2  0.001  0.001  0.002  0.004
    3  0.010  0.002  0.003  0.015
    4  0.001  0.001  0.002  0.004
    5  0.000  0.000  0.004  0.004
    6  0.005  0.002  0.002  0.009
    7  0.010  0.002  0.003  0.015
    8  0.005  0.002  0.002  0.009
    9  0.000  0.003  0.006  0.009
   10  0.008  0.000  0.006  0.015
   11  0.006  0.002  0.011  0.020
   12  0.002  0.010  0.003  0.015
   13  0.006  0.002  0.011  0.020
   14  0.025  0.004  0.002  0.031
   15  0.015  0.005  0.010  0.031
   16  0.002  0.010  0.003  0.015
   17  0.016  0.005  0.010  0.031
   18  0.061  0.003  0.005  0.069
   19  0.011  0.001  0.013  0.026
   20  0.000  0.001  0.005  0.007
   21  0.000  0.008  0.005  0.013
   22  0.012  0.008  0.007  0.027
   23  0.000  0.008  0.005  0.013
   24  0.049  0.002  0.006  0.057
   25  0.046  0.005  0.002  0.053
   26  0.011  0.001  0.013  0.026
   27  0.012  0.008  0.007  0.026
   28  0.000  0.002  0.005  0.006
   29  0.000  0.001  0.002  0.003
   30  0.008  0.002  0.002  0.013
   31  0.000  0.001  0.002  0.003
   32  0.007  0.002  0.003  0.012
   33  0.008  0.002  0.002  0.013
   34  0.007  0.002  0.003  0.012
   35  0.000  0.003  0.005  0.008
   36  0.000  0.001  0.002  0.003
   37  0.000  0.000  0.000  0.000
tot    0.344  0.116  0.178  0.638
 
band     9 # energy   -5.75346513 # occ.  2.00000000
 
ion      s      p      d    tot
    1  0.000  0.001  0.003  0.004
    2  0.010  0.002  0.002  0.014
    3  0.001  0.001  0.002  0.004
    4  0.010  0.002  0.002  0.015
    5  0.000  0.000  0.004  0.004
    6  0.005  0.002  0.002  0.009
    7  0.001  0.001  0.002  0.004
    8  0.005  0.002  0.002  0.009
    9  0.000  0.003  0.006  0.009
   10  0.000  0.013  0.002  0.015
   11  0.018  0.004  0.005  0.027
   12  0.006  0.004  0.005  0.015
   13  0.018  0.004  0.005  0.027
   14  0.000  0.001  0.014  0.016
   15  0.046  0.004  0.007  0.057
   16  0.006  0.003  0.005  0.015
   17  0.046  0.004  0.007  0.056
   18  0.000  0.006  0.012  0.018
   19  0.034  0.004  0.006  0.044
   20  0.000  0.010  0.005  0.015
   21  0.000  0.004  0.005  0.009
   22  0.036  0.004  0.006  0.046
   23  0.000  0.004  0.005  0.009
   24  0.000  0.010  0.007  0.017
   25  0.000  0.000  0.017  0.017
   26  0.034  0.004  0.006  0.044
   27  0.037  0.004  0.006  0.046
   28  0.000  0.002  0.005  0.006
   29  0.010  0.002  0.003  0.015
   30  0.002  0.001  0.002  0.006
   31  0.010  0.002  0.003  0.015
   32  0.003  0.001  0.002  0.007
   33  0.002  0.001  0.002  0.006
   34  0.003  0.001  0.002  0.007
   35  0.000  0.003  0.005  0.008
   36  0.000  0.001  0.002  0.003
   37  0.000  0.000  0.000  0.000
tot    0.344  0.116  0.178  0.638
 
band    10 # energy   -5.72264765 # occ.  2.00000000
 
ion      s      p      d    tot
    1  0.003  0.000  0.003  0.007
    2  0.007  0.001  0.006  0.015
    3  0.007  0.001  0.006  0.015
    4  0.007  0.001  0.006  0.015
    5  0.040  0.002  0.001  0.042
    6  0.007  0.001  0.006  0.015
    7  0.007  0.001  0.006  0.015
    8  0.007  0.001  0.006  0.015
    9  0.000  0.002  0.007  0.008
   10  0.004  0.004  0.007  0.015
   11  0.007  0.007  0.005  0.019
   12  0.004  0.004  0.007  0.015
   13  0.007  0.007  0.005  0.019
   14  0.007  0.007  0.005  0.018
   15  0.026  0.003  0.007  0.036
   16  0.004  0.004  0.007  0.015
   17  0.026  0.003  0.007  0.036
   18  0.026  0.003  0.007  0.036
   19  0.009  0.003  0.006  0.018
   20  0.010  0.004  0.006  0.019
   21  0.010  0.004  0.006  0.019
   22  0.010  0.006  0.003  0.019
   23  0.010  0.004  0.006  0.019
   24  0.010  0.006  0.003  0.020
   25  0.009  0.003  0.006  0.018
   26  0.009  0.003  0.006  0.018
   27  0.010  0.006  0.003  0.019
   28  0.003  0.000  0.005  0.009
   29  0.007  0.001  0.004  0.012
   30  0.007  0.001  0.004  0.012
   31  0.007  0.001  0.004  0.012
   32  0.007  0.001  0.004  0.012
   33  0.007  0.001  0.004  0.012
   34  0.007  0.001  0.004  0.012
   35  0.001  0.001  0.004  0.005
   36  0.031  0.002  0.000  0.033
   37  0.002  0.006  0.000  0.007
tot    0.366  0.100  0.184  0.650
 
band    11 # energy   -5.10659354 # occ.  2.00000000
 
ion      s      p      d    tot
    1  0.011  0.000  0.005  0.016
    2  0.003  0.002  0.009  0.014
    3  0.003  0.002  0.009  0.014
    4  0.003  0.002  0.009  0.014
    5  0.005  0.003  0.007  0.016
    6  0.003  0.002  0.009  0.014
    7  0.003  0.002  0.009  0.014
    8  0.003  0.002  0.009  0.014
    9  0.020  0.000  0.003  0.023
   10  0.003  0.000  0.020  0.023
   11  0.018  0.002  0.012  0.033
   12  0.003  0.000  0.020  0.023
   13  0.018  0.002  0.012  0.033
   14  0.018  0.002  0.012  0.033
   15  0.000  0.001  0.015  0.015
   16  0.003  0.000  0.020  0.023
   17  0.000  0.001  0.015  0.015
   18  0.000  0.001  0.015  0.015
   19  0.000  0.000  0.009  0.009
   20  0.010  0.003  0.029  0.042
   21  0.010  0.003  0.029  0.042
   22  0.001  0.000  0.013  0.014
   23  0.010  0.003  0.029  0.042
   24  0.001  0.000  0.013  0.014
   25  0.000  0.000  0.009  0.009
   26  0.000  0.000  0.009  0.009
   27  0.001  0.000  0.013  0.014
   28  0.006  0.000  0.002  0.007
   29  0.002  0.001  0.004  0.007
   30  0.002  0.001  0.004  0.007
   31  0.002  0.001  0.004  0.007
   32  0.002  0.001  0.004  0.007
   33  0.002  0.001  0.004  0.007
   34  0.002  0.001  0.004  0.007
   35  0.007  0.000  0.002  0.009
   36  0.019  0.000  0.084  0.103
   37  0.004  0.083  0.000  0.087
tot    0.197  0.120  0.474  0.791
 
band    12 # energy   -5.01188437 # occ.  2.00000000
 
ion      s      p      d    tot
    1  0.000  0.002  0.010  0.011
    2  0.005  0.002  0.005  0.012
    3  0.021  0.004  0.005  0.030
    4  0.005  0.002  0.005  0.012
    5  0.000  0.006  0.009  0.015
    6  0.005  0.002  0.005  0.012
    7  0.021  0.004  0.005  0.030
    8  0.006  0.002  0.005  0.013
    9  0.000  0.001  0.012  0.013
   10  0.000  0.001  0.016  0.017
   11  0.016  0.004  0.010  0.030
   12  0.009  0.003  0.010  0.022
   13  0.016  0.004  0.010  0.030
   14  0.000  0.001  0.026  0.027
   15  0.001  0.001  0.010  0.012
   16  0.009  0.003  0.010  0.023
   17  0.001  0.001  0.010  0.012
   18  0.000  0.004  0.018  0.022
   19  0.001  0.001  0.010  0.012
   20  0.000  0.001  0.034  0.035
   21  0.013  0.004  0.013  0.030
   22  0.008  0.003  0.011  0.022
   23  0.014  0.004  0.012  0.030
   24  0.000  0.001  0.014  0.014
   25  0.000  0.003  0.021  0.024
   26  0.001  0.001  0.011  0.012
   27  0.008  0.003  0.011  0.022
   28  0.000  0.001  0.012  0.014
   29  0.007  0.002  0.005  0.015
   30  0.023  0.004  0.005  0.032
   31  0.007  0.002  0.005  0.014
   32  0.004  0.002  0.005  0.012
   33  0.023  0.004  0.005  0.031
   34  0.005  0.002  0.005  0.012
   35  0.000  0.002  0.009  0.011
   36  0.000  0.013  0.002  0.015
   37  0.000  0.006  0.000  0.006
tot    0.228  0.105  0.372  0.706
 
band    13 # energy   -5.01181150 # occ.  2.00000000
 
ion      s      p      d    tot
    1  0.000  0.002  0.010  0.011
    2  0.016  0.003  0.005  0.024
    3  0.000  0.002  0.005  0.007
    4  0.016  0.003  0.005  0.025
    5  0.000  0.006  0.009  0.015
    6  0.015  0.003  0.005  0.024
    7  0.000  0.002  0.005  0.007
    8  0.015  0.003  0.005  0.023
    9  0.000  0.001  0.012  0.013
   10  0.012  0.004  0.008  0.024
   11  0.005  0.002  0.021  0.028
   12  0.003  0.001  0.014  0.019
   13  0.006  0.002  0.020  0.028
   14  0.021  0.004  0.005  0.031
   15  0.000  0.003  0.016  0.019
   16  0.003  0.001  0.015  0.019
   17  0.000  0.003  0.015  0.019
   18  0.001  0.000  0.008  0.009
   19  0.000  0.002  0.017  0.020
   20  0.018  0.005  0.005  0.028
   21  0.005  0.002  0.026  0.033
   22  0.003  0.002  0.013  0.017
   23  0.004  0.002  0.027  0.033
   24  0.011  0.004  0.010  0.025
   25  0.001  0.000  0.007  0.008
   26  0.000  0.002  0.017  0.020
   27  0.003  0.001  0.013  0.017
   28  0.000  0.001  0.012  0.014
   29  0.016  0.003  0.005  0.024
   30  0.000  0.002  0.005  0.007
   31  0.016  0.003  0.005  0.024
   32  0.019  0.003  0.005  0.027
   33  0.000  0.002  0.005  0.007
   34  0.018  0.003  0.005  0.027
   35  0.000  0.002  0.009  0.011
   36  0.000  0.013  0.002  0.015
   37  0.000  0.006  0.000  0.006
tot    0.228  0.105  0.372  0.706
 
band    14 # energy   -4.99049071 # occ.  2.00000000
 
ion      s      p      d    tot
    1  0.034  0.004  0.000  0.038
    2  0.000  0.003  0.010  0.013
    3  0.000  0.003  0.010  0.013
    4  0.000  0.003  0.010  0.013
    5  0.000  0.000  0.000  0.000
    6  0.000  0.003  0.010  0.013
    7  0.000  0.003  0.010  0.013
    8  0.000  0.003  0.010  0.013
    9  0.030  0.003  0.000  0.034
   10  0.010  0.004  0.011  0.024
   11  0.001  0.000  0.015  0.016
   12  0.009  0.004  0.011  0.024
   13  0.001  0.000  0.015  0.016
   14  0.001  0.000  0.014  0.015
   15  0.005  0.003  0.018  0.027
   16  0.009  0.004  0.011  0.024
   17  0.005  0.003  0.018  0.027
   18  0.006  0.003  0.018  0.027
   19  0.007  0.004  0.016  0.027
   20  0.000  0.000  0.018  0.019
   21  0.000  0.000  0.018  0.018
   22  0.011  0.003  0.010  0.023
   23  0.000  0.000  0.018  0.018
   24  0.010  0.003  0.010  0.023
   25  0.006  0.004  0.017  0.026
   26  0.007  0.004  0.016  0.027
   27  0.011  0.003  0.010  0.023
   28  0.035  0.004  0.000  0.039
   29  0.000  0.003  0.010  0.013
   30  0.000  0.003  0.010  0.013
   31  0.000  0.003  0.010  0.013
   32  0.000  0.003  0.010  0.013
   33  0.000  0.003  0.010  0.013
   34  0.000  0.003  0.010  0.013
   35  0.027  0.003  0.001  0.031
   36  0.001  0.000  0.000  0.001
   37  0.000  0.000  0.000  0.000
tot    0.225  0.091  0.389  0.706
 
band    15 # energy   -4.98837567 # occ.  2.00000000
 
ion      s      p      d    tot
    1  0.000  0.005  0.011  0.015
    2  0.005  0.002  0.005  0.012
    3  0.021  0.004  0.005  0.030
    4  0.005  0.002  0.005  0.012
    5  0.000  0.000  0.012  0.012
    6  0.006  0.002  0.005  0.013
    7  0.021  0.004  0.005  0.030
    8  0.006  0.002  0.005  0.013
    9  0.000  0.005  0.008  0.013
   10  0.010  0.002  0.005  0.017
   11  0.000  0.002  0.013  0.016
   12  0.003  0.003  0.021  0.027
   13  0.000  0.002  0.013  0.016
   14  0.002  0.001  0.010  0.013
   15  0.005  0.001  0.018  0.024
   16  0.003  0.003  0.021  0.027
   17  0.005  0.001  0.018  0.024
   18  0.020  0.006  0.007  0.032
   19  0.005  0.001  0.018  0.025
   20  0.002  0.001  0.011  0.015
   21  0.000  0.002  0.015  0.018
   22  0.002  0.003  0.021  0.026
   23  0.000  0.002  0.015  0.018
   24  0.011  0.002  0.005  0.017
   25  0.021  0.006  0.006  0.033
   26  0.005  0.001  0.018  0.025
   27  0.002  0.003  0.021  0.026
   28  0.000  0.005  0.008  0.013
   29  0.007  0.002  0.006  0.015
   30  0.022  0.004  0.005  0.031
   31  0.007  0.002  0.006  0.015
   32  0.004  0.002  0.006  0.013
   33  0.022  0.004  0.005  0.031
   34  0.004  0.002  0.006  0.013
   35  0.000  0.004  0.011  0.015
   36  0.000  0.000  0.010  0.010
   37  0.000  0.001  0.000  0.001
tot    0.226  0.094  0.383  0.702
 
band    16 # energy   -4.98829047 # occ.  2.00000000
 
ion      s      p      d    tot
    1  0.000  0.005  0.011  0.015
    2  0.016  0.003  0.005  0.025
    3  0.000  0.002  0.005  0.007
    4  0.016  0.003  0.005  0.025
    5  0.000  0.000  0.012  0.012
    6  0.015  0.003  0.005  0.024
    7  0.000  0.002  0.005  0.007
    8  0.015  0.003  0.005  0.024
    9  0.000  0.005  0.008  0.013
   10  0.000  0.003  0.026  0.030
   11  0.001  0.001  0.011  0.014
   12  0.008  0.002  0.011  0.021
   13  0.001  0.001  0.011  0.014
   14  0.000  0.002  0.015  0.017
   15  0.015  0.004  0.010  0.030
   16  0.008  0.002  0.011  0.021
   17  0.015  0.004  0.010  0.030
   18  0.000  0.000  0.021  0.022
   19  0.015  0.004  0.010  0.030
   20  0.000  0.003  0.016  0.019
   21  0.001  0.002  0.013  0.016
   22  0.008  0.002  0.010  0.020
   23  0.001  0.002  0.013  0.016
   24  0.000  0.003  0.026  0.029
   25  0.000  0.000  0.022  0.022
   26  0.015  0.004  0.010  0.030
   27  0.008  0.002  0.010  0.020
   28  0.000  0.005  0.008  0.013
   29  0.015  0.003  0.005  0.024
   30  0.000  0.002  0.006  0.008
   31  0.015  0.003  0.005  0.024
   32  0.017  0.003  0.006  0.026
   33  0.000  0.002  0.006  0.008
   34  0.017  0.003  0.006  0.026
   35  0.000  0.004  0.011  0.015
   36  0.000  0.000  0.010  0.010
   37  0.000  0.001  0.000  0.001
tot    0.226  0.094  0.383  0.702
 
band    17 # energy   -4.93280010 # occ.  2.00000000
 
ion      s      p      d    tot
    1  0.001  0.001  0.004  0.006
    2  0.002  0.002  0.008  0.012
    3  0.002  0.002  0.008  0.012
    4  0.002  0.002  0.008  0.012
    5  0.033  0.001  0.002  0.036
    6  0.002  0.002  0.008  0.012
    7  0.002  0.002  0.008  0.012
    8  0.002  0.002  0.008  0.012
    9  0.001  0.001  0.005  0.007
   10  0.004  0.001  0.019  0.023
   11  0.000  0.002  0.019  0.021
   12  0.004  0.001  0.019  0.023
   13  0.000  0.002  0.019  0.021
   14  0.000  0.002  0.019  0.021
   15  0.009  0.001  0.017  0.027
   16  0.004  0.001  0.019  0.023
   17  0.009  0.001  0.017  0.027
   18  0.009  0.001  0.017  0.027
   19  0.012  0.000  0.021  0.034
   20  0.000  0.003  0.023  0.026
   21  0.000  0.003  0.023  0.026
   22  0.007  0.001  0.020  0.027
   23  0.000  0.003  0.023  0.026
   24  0.007  0.001  0.020  0.027
   25  0.012  0.000  0.021  0.034
   26  0.012  0.000  0.021  0.034
   27  0.007  0.001  0.020  0.027
   28  0.000  0.001  0.010  0.011
   29  0.004  0.001  0.009  0.014
   30  0.004  0.001  0.009  0.014
   31  0.004  0.001  0.009  0.014
   32  0.004  0.001  0.009  0.014
   33  0.004  0.001  0.009  0.014
   34  0.004  0.001  0.009  0.014
   35  0.000  0.001  0.007  0.009
   36  0.044  0.000  0.003  0.047
   37  0.003  0.030  0.000  0.033
tot    0.212  0.072  0.495  0.779
 
band    18 # energy   -4.68177434 # occ.  2.00000000
 
ion      s      p      d    tot
    1  0.000  0.001  0.000  0.001
    2  0.002  0.000  0.001  0.003
    3  0.001  0.000  0.001  0.002
    4  0.002  0.000  0.001  0.003
    5  0.000  0.000  0.002  0.002
    6  0.000  0.000  0.001  0.001
    7  0.001  0.000  0.001  0.002
    8  0.000  0.000  0.001  0.001
    9  0.000  0.000  0.002  0.002
   10  0.000  0.001  0.002  0.004
   11  0.000  0.000  0.005  0.005
   12  0.000  0.000  0.002  0.002
   13  0.000  0.000  0.005  0.005
   14  0.000  0.000  0.000  0.001
   15  0.000  0.000  0.001  0.002
   16  0.000  0.000  0.002  0.002
   17  0.000  0.000  0.001  0.002
   18  0.000  0.000  0.001  0.002
   19  0.000  0.000  0.003  0.003
   20  0.002  0.000  0.008  0.011
   21  0.001  0.000  0.009  0.010
   22  0.000  0.000  0.003  0.003
   23  0.001  0.000  0.009  0.010
   24  0.000  0.000  0.001  0.002
   25  0.000  0.000  0.001  0.001
   26  0.000  0.000  0.003  0.003
   27  0.000  0.000  0.003  0.003
   28  0.000  0.000  0.005  0.005
   29  0.008  0.002  0.012  0.022
   30  0.000  0.000  0.006  0.006
   31  0.008  0.002  0.012  0.022
   32  0.006  0.002  0.012  0.020
   33  0.000  0.000  0.006  0.006
   34  0.006  0.002  0.012  0.020
   35  0.000  0.000  0.006  0.006
   36  0.000  0.021  0.195  0.216
   37  0.000  0.355  0.000  0.355
tot    0.039  0.391  0.336  0.765
 
band    19 # energy   -4.68173242 # occ.  2.00000000
 
ion      s      p      d    tot
    1  0.000  0.001  0.000  0.001
    2  0.000  0.000  0.001  0.001
    3  0.001  0.000  0.001  0.002
    4  0.000  0.000  0.001  0.001
    5  0.000  0.000  0.002  0.002
    6  0.002  0.000  0.001  0.003
    7  0.001  0.000  0.001  0.002
    8  0.002  0.000  0.001  0.003
    9  0.000  0.000  0.002  0.002
   10  0.000  0.000  0.002  0.002
   11  0.000  0.000  0.002  0.002
   12  0.000  0.001  0.002  0.003
   13  0.000  0.000  0.002  0.002
   14  0.000  0.000  0.006  0.007
   15  0.000  0.000  0.001  0.002
   16  0.000  0.001  0.002  0.003
   17  0.000  0.000  0.001  0.002
   18  0.000  0.000  0.001  0.001
   19  0.000  0.000  0.002  0.002
   20  0.000  0.000  0.009  0.009
   21  0.002  0.000  0.009  0.011
   22  0.000  0.000  0.002  0.002
   23  0.002  0.000  0.009  0.011
   24  0.000  0.000  0.003  0.003
   25  0.000  0.000  0.003  0.003
   26  0.000  0.000  0.002  0.002
   27  0.000  0.000  0.002  0.002
   28  0.000  0.000  0.005  0.005
   29  0.001  0.001  0.008  0.010
   30  0.009  0.003  0.014  0.026
   31  0.002  0.001  0.008  0.010
   32  0.003  0.001  0.008  0.012
   33  0.009  0.003  0.014  0.026
   34  0.003  0.001  0.008  0.012
   35  0.000  0.000  0.006  0.006
   36  0.000  0.021  0.195  0.216
   37  0.000  0.355  0.000  0.355
tot    0.039  0.391  0.336  0.765
 
band    20 # energy   -4.57254536 # occ.  2.00000000
 
ion      s      p      d    tot
    1  0.010  0.000  0.000  0.011
    2  0.000  0.001  0.005  0.006
    3  0.000  0.001  0.005  0.006
    4  0.000  0.001  0.005  0.006
    5  0.012  0.001  0.000  0.013
    6  0.000  0.001  0.005  0.006
    7  0.000  0.001  0.005  0.006
    8  0.000  0.001  0.005  0.006
    9  0.000  0.000  0.000  0.001
   10  0.000  0.001  0.016  0.016
   11  0.000  0.003  0.015  0.018
   12  0.000  0.001  0.016  0.016
   13  0.000  0.003  0.015  0.018
   14  0.000  0.003  0.015  0.018
   15  0.000  0.000  0.002  0.002
   16  0.000  0.001  0.016  0.016
   17  0.000  0.000  0.002  0.002
   18  0.000  0.000  0.002  0.002
   19  0.001  0.000  0.012  0.012
   20  0.006  0.000  0.018  0.024
   21  0.006  0.000  0.018  0.024
   22  0.000  0.001  0.012  0.013
   23  0.006  0.000  0.018  0.024
   24  0.000  0.001  0.012  0.013
   25  0.001  0.000  0.012  0.012
   26  0.001  0.000  0.012  0.012
   27  0.000  0.001  0.012  0.013
   28  0.000  0.000  0.000  0.001
   29  0.000  0.001  0.006  0.007
   30  0.000  0.001  0.006  0.007
   31  0.000  0.001  0.006  0.007
   32  0.000  0.001  0.006  0.007
   33  0.000  0.001  0.006  0.007
   34  0.000  0.001  0.006  0.007
   35  0.009  0.000  0.001  0.010
   36  0.010  0.022  0.202  0.233
   37  0.010  0.280  0.000  0.289
tot    0.073  0.329  0.493  0.896
 
band    21 # energy   -4.32003038 # occ.  2.00000000
 
ion      s      p      d    tot
    1  0.000  0.000  0.035  0.035
    2  0.012  0.001  0.010  0.023
    3  0.014  0.001  0.010  0.025
    4  0.009  0.001  0.010  0.020
    5  0.000  0.002  0.004  0.006
    6  0.000  0.001  0.009  0.010
    7  0.012  0.001  0.010  0.023
    8  0.001  0.001  0.009  0.011
    9  0.000  0.003  0.016  0.018
   10  0.000  0.000  0.048  0.048
   11  0.001  0.006  0.018  0.025
   12  0.000  0.000  0.023  0.024
   13  0.001  0.005  0.016  0.021
   14  0.000  0.000  0.007  0.007
   15  0.001  0.003  0.013  0.017
   16  0.000  0.000  0.017  0.018
   17  0.001  0.002  0.020  0.023
   18  0.000  0.000  0.047  0.047
   19  0.000  0.003  0.015  0.019
   20  0.000  0.000  0.077  0.077
   21  0.001  0.000  0.030  0.031
   22  0.001  0.004  0.018  0.023
   23  0.001  0.000  0.019  0.020
   24  0.000  0.000  0.019  0.019
   25  0.000  0.000  0.016  0.017
   26  0.000  0.003  0.015  0.018
   27  0.001  0.005  0.018  0.024
   28  0.000  0.001  0.016  0.016
   29  0.014  0.001  0.011  0.026
   30  0.002  0.001  0.011  0.015
   31  0.015  0.001  0.010  0.026
   32  0.008  0.001  0.008  0.017
   33  0.001  0.001  0.011  0.013
   34  0.005  0.001  0.009  0.014
   35  0.000  0.002  0.002  0.004
   36  0.000  0.001  0.020  0.022