PROCAR new format
# of k-points:   10         # of bands:  252         # of ions:   39

 k-point     1 :    0.00000000 0.00000000 0.00000000     weight = 0.01562500

band     1 # energy  -24.57232331 # occ.  2.00000000
 
ion      s      p      d    tot
    1  0.000  0.000  0.000  0.000
    2  0.000  0.000  0.000  0.000
    3  0.000  0.000  0.000  0.000
    4  0.000  0.000  0.000  0.000
    5  0.000  0.000  0.000  0.000
    6  0.000  0.000  0.000  0.000
    7  0.000  0.000  0.000  0.000
    8  0.000  0.000  0.000  0.000
    9  0.000  0.000  0.000  0.000
   10  0.000  0.000  0.000  0.000
   11  0.000  0.000  0.000  0.000
   12  0.000  0.000  0.000  0.000
   13  0.000  0.000  0.000  0.000
   14  0.000  0.000  0.000  0.000
   15  0.000  0.000  0.000  0.000
   16  0.000  0.000  0.000  0.000
   17  0.000  0.000  0.000  0.000
   18  0.000  0.000  0.000  0.000
   19  0.000  0.000  0.000  0.000
   20  0.000  0.000  0.000  0.000
   21  0.000  0.000  0.000  0.000
   22  0.000  0.000  0.000  0.000
   23  0.000  0.000  0.000  0.000
   24  0.000  0.000  0.000  0.000
   25  0.000  0.000  0.000  0.000
   26  0.000  0.000  0.000  0.000
   27  0.000  0.000  0.000  0.000
   28  0.000  0.000  0.000  0.000
   29  0.000  0.000  0.000  0.000
   30  0.000  0.000  0.000  0.000
   31  0.000  0.000  0.000  0.000
   32  0.000  0.000  0.000  0.000
   33  0.000  0.000  0.000  0.000
   34  0.000  0.000  0.000  0.000
   35  0.000  0.000  0.000  0.000
   36  0.000  0.000  0.000  0.000
   37  0.082  0.059  0.000  0.141
   38  0.723  0.009  0.000  0.731
   39  0.058  0.012  0.000  0.070
tot    0.862  0.081  0.000  0.943
 
band     2 # energy  -15.23268971 # occ.  2.00000000
 
ion      s      p      d    tot
    1  0.000  0.000  0.000  0.000
    2  0.000  0.000  0.000  0.000
    3  0.000  0.000  0.000  0.000
    4  0.000  0.000  0.000  0.000
    5  0.000  0.000  0.000  0.000
    6  0.000  0.000  0.000  0.000
    7  0.000  0.000  0.000  0.000
    8  0.000  0.000  0.000  0.000
    9  0.000  0.000  0.000  0.000
   10  0.000  0.000  0.000  0.000
   11  0.000  0.000  0.000  0.000
   12  0.000  0.000  0.000  0.000
   13  0.000  0.000  0.000  0.000
   14  0.000  0.000  0.000  0.000
   15  0.000  0.000  0.000  0.000
   16  0.000  0.000  0.000  0.000
   17  0.000  0.000  0.000  0.000
   18  0.000  0.000  0.000  0.000
   19  0.000  0.000  0.000  0.000
   20  0.000  0.000  0.000  0.000
   21  0.000  0.000  0.000  0.000
   22  0.000  0.000  0.000  0.000
   23  0.000  0.000  0.000  0.000
   24  0.000  0.000  0.000  0.000
   25  0.000  0.000  0.000  0.000
   26  0.000  0.000  0.000  0.000
   27  0.000  0.000  0.000  0.000
   28  0.000  0.000  0.000  0.000
   29  0.000  0.000  0.000  0.000
   30  0.000  0.000  0.000  0.000
   31  0.000  0.000  0.000  0.000
   32  0.000  0.000  0.000  0.000
   33  0.000  0.000  0.000  0.000
   34  0.000  0.000  0.000  0.000
   35  0.000  0.000  0.000  0.000
   36  0.004  0.003  0.005  0.013
   37  0.165  0.045  0.000  0.210
   38  0.021  0.516  0.000  0.537
   39  0.199  0.032  0.000  0.230
tot    0.389  0.596  0.005  0.990
 
band     3 # energy   -9.08330135 # occ.  2.00000000
 
ion      s      p      d    tot
    1  0.000  0.000  0.000  0.000
    2  0.000  0.000  0.000  0.000
    3  0.000  0.000  0.000  0.000
    4  0.000  0.000  0.000  0.000
    5  0.000  0.000  0.000  0.000
    6  0.000  0.000  0.000  0.000
    7  0.000  0.000  0.000  0.000
    8  0.000  0.000  0.000  0.000
    9  0.000  0.000  0.000  0.000
   10  0.000  0.000  0.000  0.000
   11  0.000  0.000  0.000  0.000
   12  0.000  0.000  0.000  0.000
   13  0.000  0.000  0.000  0.000
   14  0.000  0.000  0.000  0.000
   15  0.000  0.000  0.000  0.000
   16  0.000  0.000  0.000  0.000
   17  0.000  0.000  0.000  0.000
   18  0.000  0.000  0.000  0.000
   19  0.000  0.000  0.000  0.000
   20  0.002  0.001  0.003  0.006
   21  0.002  0.001  0.003  0.006
   22  0.000  0.000  0.000  0.000
   23  0.002  0.001  0.003  0.006
   24  0.000  0.000  0.000  0.000
   25  0.000  0.000  0.000  0.000
   26  0.000  0.000  0.000  0.000
   27  0.000  0.000  0.000  0.000
   28  0.000  0.000  0.000  0.000
   29  0.001  0.000  0.001  0.002
   30  0.001  0.000  0.001  0.002
   31  0.001  0.000  0.001  0.002
   32  0.001  0.000  0.001  0.002
   33  0.001  0.000  0.001  0.002
   34  0.001  0.000  0.001  0.002
   35  0.000  0.000  0.000  0.000
   36  0.157  0.060  0.287  0.504
   37  0.177  0.191  0.000  0.368
   38  0.010  0.054  0.000  0.065
   39  0.015  0.001  0.000  0.016
tot    0.370  0.311  0.300  0.982
 
band     4 # energy   -7.39241299 # occ.  2.00000000
 
ion      s      p      d    tot
    1  0.000  0.000  0.000  0.000
    2  0.000  0.000  0.000  0.000
    3  0.000  0.000  0.000  0.000
    4  0.000  0.000  0.000  0.000
    5  0.000  0.000  0.000  0.000
    6  0.000  0.000  0.000  0.000
    7  0.000  0.000  0.000  0.000
    8  0.000  0.000  0.000  0.000
    9  0.000  0.000  0.000  0.000
   10  0.000  0.000  0.000  0.000
   11  0.000  0.000  0.000  0.000
   12  0.000  0.000  0.000  0.000
   13  0.000  0.000  0.000  0.000
   14  0.000  0.000  0.000  0.000
   15  0.000  0.000  0.000  0.000
   16  0.000  0.000  0.000  0.000
   17  0.000  0.000  0.000  0.000
   18  0.000  0.000  0.000  0.000
   19  0.000  0.000  0.000  0.000
   20  0.000  0.000  0.000  0.000
   21  0.000  0.000  0.000  0.000
   22  0.000  0.000  0.000  0.000
   23  0.000  0.000  0.000  0.000
   24  0.000  0.000  0.000  0.000
   25  0.000  0.000  0.000  0.000
   26  0.000  0.000  0.000  0.000
   27  0.000  0.000  0.000  0.000
   28  0.000  0.000  0.000  0.000
   29  0.000  0.000  0.001  0.001
   30  0.000  0.000  0.000  0.000
   31  0.000  0.000  0.001  0.001
   32  0.000  0.000  0.001  0.001
   33  0.000  0.000  0.000  0.000
   34  0.000  0.000  0.001  0.001
   35  0.000  0.000  0.000  0.000
   36  0.000  0.003  0.030  0.033
   37  0.000  0.125  0.000  0.125
   38  0.000  0.514  0.000  0.514
   39  0.000  0.007  0.000  0.007
tot    0.001  0.649  0.035  0.685
 
band     5 # energy   -7.39221409 # occ.  2.00000000
 
ion      s      p      d    tot
    1  0.000  0.000  0.000  0.000
    2  0.000  0.000  0.000  0.000
    3  0.000  0.000  0.000  0.000
    4  0.000  0.000  0.000  0.000
    5  0.000  0.000  0.000  0.000
    6  0.000  0.000  0.000  0.000
    7  0.000  0.000  0.000  0.000
    8  0.000  0.000  0.000  0.000
    9  0.000  0.000  0.000  0.000
   10  0.000  0.000  0.000  0.000
   11  0.000  0.000  0.000  0.000
   12  0.000  0.000  0.000  0.000
   13  0.000  0.000  0.000  0.000
   14  0.000  0.000  0.000  0.000
   15  0.000  0.000  0.000  0.000
   16  0.000  0.000  0.000  0.000
   17  0.000  0.000  0.000  0.000
   18  0.000  0.000  0.000  0.000
   19  0.000  0.000  0.000  0.000
   20  0.000  0.000  0.000  0.000
   21  0.000  0.000  0.000  0.000
   22  0.000  0.000  0.000  0.000
   23  0.000  0.000  0.000  0.000
   24  0.000  0.000  0.000  0.000
   25  0.000  0.000  0.000  0.000
   26  0.000  0.000  0.000  0.000
   27  0.000  0.000  0.000  0.000
   28  0.000  0.000  0.000  0.000
   29  0.000  0.000  0.000  0.001
   30  0.000  0.000  0.001  0.002
   31  0.000  0.000  0.000  0.001
   32  0.000  0.000  0.000  0.001
   33  0.000  0.000  0.001  0.002
   34  0.000  0.000  0.000  0.001
   35  0.000  0.000  0.000  0.000
   36  0.000  0.003  0.030  0.033
   37  0.000  0.125  0.000  0.125
   38  0.000  0.514  0.000  0.514
   39  0.000  0.007  0.000  0.007
tot    0.001  0.649  0.035  0.685
 
band     6 # energy   -6.52738922 # occ.  2.00000000
 
ion      s      p      d    tot
    1  0.006  0.001  0.000  0.007
    2  0.006  0.001  0.000  0.007
    3  0.006  0.001  0.000  0.007
    4  0.006  0.001  0.000  0.007
    5  0.006  0.001  0.000  0.007
    6  0.006  0.001  0.000  0.007
    7  0.006  0.001  0.000  0.007
    8  0.006  0.001  0.000  0.007
    9  0.006  0.001  0.000  0.007
   10  0.023  0.000  0.000  0.024
   11  0.024  0.000  0.000  0.024
   12  0.023  0.000  0.000  0.024
   13  0.024  0.000  0.000  0.024
   14  0.024  0.000  0.000  0.024
   15  0.023  0.000  0.000  0.024
   16  0.023  0.000  0.000  0.024
   17  0.023  0.000  0.000  0.024
   18  0.023  0.000  0.000  0.024
   19  0.022  0.000  0.000  0.022
   20  0.023  0.000  0.000  0.023
   21  0.023  0.000  0.000  0.023
   22  0.023  0.000  0.000  0.023
   23  0.023  0.000  0.000  0.023
   24  0.023  0.000  0.000  0.023
   25  0.022  0.000  0.000  0.022
   26  0.022  0.000  0.000  0.022
   27  0.023  0.000  0.000  0.023
   28  0.005  0.001  0.000  0.006
   29  0.005  0.001  0.000  0.006
   30  0.005  0.001  0.000  0.006
   31  0.005  0.001  0.000  0.006
   32  0.005  0.001  0.000  0.006
   33  0.005  0.001  0.000  0.006
   34  0.005  0.001  0.000  0.006
   35  0.006  0.001  0.000  0.006
   36  0.004  0.005  0.009  0.017
   37  0.003  0.002  0.000  0.006
   38  0.000  0.000  0.000  0.001
   39  0.000  0.000  0.000  0.000
tot    0.518  0.020  0.015  0.553
 
band     7 # energy   -5.66677522 # occ.  2.00000000
 
ion      s      p      d    tot
    1  0.009  0.000  0.001  0.010
    2  0.009  0.000  0.001  0.010
    3  0.009  0.000  0.001  0.010
    4  0.009  0.000  0.001  0.010
    5  0.008  0.000  0.001  0.009
    6  0.009  0.000  0.001  0.010
    7  0.009  0.000  0.001  0.010
    8  0.009  0.000  0.001  0.010
    9  0.009  0.000  0.001  0.010
   10  0.012  0.001  0.012  0.025
   11  0.010  0.001  0.014  0.025
   12  0.012  0.001  0.012  0.025
   13  0.010  0.001  0.014  0.025
   14  0.010  0.001  0.014  0.025
   15  0.011  0.001  0.013  0.025
   16  0.012  0.001  0.012  0.025
   17  0.011  0.001  0.013  0.025
   18  0.011  0.001  0.013  0.025
   19  0.010  0.001  0.012  0.023
   20  0.011  0.001  0.010  0.023
   21  0.011  0.001  0.010  0.023
   22  0.012  0.001  0.013  0.026
   23  0.011  0.001  0.010  0.023
   24  0.012  0.001  0.013  0.026
   25  0.010  0.001  0.012  0.023
   26  0.010  0.001  0.012  0.023
   27  0.012  0.001  0.013  0.026
   28  0.008  0.000  0.000  0.009
   29  0.009  0.001  0.001  0.011
   30  0.009  0.001  0.001  0.011
   31  0.009  0.001  0.001  0.011
   32  0.009  0.001  0.001  0.011
   33  0.009  0.001  0.001  0.011
   34  0.009  0.001  0.001  0.011
   35  0.008  0.000  0.000  0.009
   36  0.010  0.003  0.015  0.029
   37  0.002  0.002  0.000  0.004
   38  0.000  0.000  0.000  0.000
   39  0.000  0.000  0.000  0.000
tot    0.363  0.032  0.249  0.644
 
band     8 # energy   -5.44070027 # occ.  2.00000000
 
ion      s      p      d    tot
    1  0.005  0.000  0.014  0.019
    2  0.006  0.000  0.009  0.015
    3  0.006  0.000  0.009  0.015
    4  0.006  0.000  0.009  0.015
    5  0.005  0.000  0.007  0.012
    6  0.006  0.000  0.009  0.015
    7  0.006  0.000  0.009  0.015
    8  0.006  0.000  0.009  0.015
    9  0.007  0.000  0.008  0.015
   10  0.000  0.000  0.020  0.021
   11  0.001  0.000  0.014  0.015
   12  0.000  0.000  0.020  0.021
   13  0.001  0.000  0.014  0.015
   14  0.001  0.000  0.014  0.015
   15  0.000  0.000  0.013  0.013
   16  0.000  0.000  0.020  0.021
   17  0.000  0.000  0.013  0.013
   18  0.000  0.000  0.013  0.013
   19  0.003  0.000  0.017  0.020
   20  0.000  0.000  0.043  0.044
   21  0.000  0.000  0.043  0.044
   22  0.001  0.000  0.017  0.018
   23  0.000  0.000  0.043  0.044
   24  0.001  0.000  0.017  0.018
   25  0.003  0.000  0.017  0.020
   26  0.003  0.000  0.017  0.020
   27  0.001  0.000  0.017  0.018
   28  0.004  0.000  0.014  0.018
   29  0.010  0.000  0.019  0.029
   30  0.010  0.000  0.019  0.029
   31  0.010  0.000  0.019  0.029
   32  0.010  0.000  0.019  0.029
   33  0.010  0.000  0.019  0.029
   34  0.010  0.000  0.019  0.029
   35  0.006  0.000  0.012  0.018
   36  0.025  0.000  0.039  0.064
   37  0.001  0.001  0.000  0.001
   38  0.000  0.000  0.000  0.000
   39  0.000  0.000  0.000  0.000
tot    0.161  0.006  0.632  0.799
 
band     9 # energy   -5.28563362 # occ.  2.00000000
 
ion      s      p      d    tot
    1  0.018  0.000  0.006  0.025
    2  0.009  0.000  0.021  0.030
    3  0.009  0.000  0.021  0.030
    4  0.009  0.000  0.021  0.030
    5  0.010  0.000  0.027  0.038
    6  0.009  0.000  0.021  0.030
    7  0.009  0.000  0.021  0.030
    8  0.009  0.000  0.021  0.030
    9  0.002  0.000  0.028  0.031
   10  0.000  0.001  0.035  0.036
   11  0.000  0.000  0.027  0.028
   12  0.000  0.001  0.035  0.036
   13  0.000  0.000  0.027  0.028
   14  0.000  0.000  0.027  0.027
   15  0.009  0.001  0.013  0.023
   16  0.000  0.001  0.035  0.036
   17  0.009  0.001  0.013  0.023
   18  0.009  0.001  0.013  0.023
   19  0.005  0.000  0.007  0.013
   20  0.001  0.000  0.019  0.021
   21  0.001  0.000  0.019  0.020
   22  0.002  0.000  0.007  0.009
   23  0.001  0.000  0.019  0.020
   24  0.002  0.000  0.007  0.009
   25  0.005  0.000  0.007  0.013
   26  0.005  0.000  0.007  0.013
   27  0.002  0.000  0.007  0.009
   28  0.000  0.001  0.006  0.007
   29  0.001  0.000  0.013  0.015
   30  0.001  0.000  0.013  0.015
   31  0.001  0.000  0.013  0.015
   32  0.001  0.000  0.013  0.015
   33  0.001  0.000  0.013  0.015
   34  0.001  0.000  0.013  0.015
   35  0.000  0.000  0.001  0.001
   36  0.018  0.002  0.018  0.038
   37  0.001  0.001  0.000  0.002
   38  0.000  0.000  0.000  0.000
   39  0.000  0.000  0.000  0.000
tot    0.164  0.014  0.615  0.793
 
band    10 # energy   -5.26984838 # occ.  2.00000000
 
ion      s      p      d    tot
    1  0.000  0.000  0.010  0.010
    2  0.000  0.000  0.003  0.003
    3  0.001  0.000  0.003  0.004
    4  0.000  0.000  0.003  0.003
    5  0.000  0.000  0.006  0.006
    6  0.002  0.000  0.003  0.006
    7  0.001  0.000  0.003  0.004
    8  0.002  0.000  0.003  0.006
    9  0.000  0.000  0.000  0.000
   10  0.017  0.001  0.008  0.027
   11  0.003  0.001  0.025  0.029
   12  0.004  0.000  0.035  0.039
   13  0.003  0.001  0.025  0.029
   14  0.012  0.000  0.023  0.036
   15  0.000  0.000  0.020  0.020
   16  0.004  0.000  0.035  0.039
   17  0.000  0.000  0.020  0.020
   18  0.000  0.000  0.015  0.016
   19  0.003  0.001  0.014  0.018
   20  0.037  0.001  0.010  0.048
   21  0.009  0.001  0.073  0.083
   22  0.001  0.000  0.056  0.058
   23  0.009  0.001  0.074  0.083
   24  0.005  0.001  0.014  0.019
   25  0.011  0.000  0.036  0.048
   26  0.003  0.001  0.014  0.018
   27  0.001  0.000  0.056  0.058
   28  0.000  0.000  0.002  0.002
   29  0.002  0.001  0.006  0.008
   30  0.001  0.000  0.006  0.008
   31  0.002  0.001  0.006  0.008
   32  0.000  0.000  0.004  0.004
   33  0.001  0.000  0.006  0.008
   34  0.000  0.000  0.004  0.004
   35  0.000  0.000  0.003  0.003
   36  0.000  0.001  0.015  0.017
   37  0.000  0.000  0.000  0.000
   38  0.000  0.002  0.000  0.002
   39  0.000  0.000  0.000  0.000
tot    0.136  0.021  0.640  0.796
 
band    11 # energy   -5.26982543 # occ.  2.00000000
 
ion      s      p      d    tot
    1  0.000  0.000  0.010  0.010
    2  0.001  0.000  0.004  0.005
    3  0.001  0.000  0.003  0.005
    4  0.001  0.000  0.004  0.005
    5  0.000  0.000  0.006  0.006
    6  0.000  0.000  0.003  0.003
    7  0.001  0.000  0.003  0.005
    8  0.000  0.000  0.003  0.003
    9  0.000  0.000  0.000  0.000
   10  0.000  0.000  0.043  0.044
   11  0.009  0.001  0.024  0.034
   12  0.013  0.001  0.017  0.031
   13  0.009  0.001  0.024  0.034
   14  0.000  0.001  0.026  0.027
   15  0.000  0.000  0.017  0.017
   16  0.013  0.001  0.017  0.031
   17  0.000  0.000  0.017  0.017
   18  0.000  0.000  0.021  0.022
   19  0.009  0.001  0.029  0.038
   20  0.000  0.001  0.095  0.095
   21  0.028  0.001  0.031  0.060
   22  0.004  0.000  0.028  0.032
   23  0.028  0.001  0.031  0.060
   24  0.000  0.000  0.070  0.070
   25  0.000  0.002  0.006  0.008
   26  0.009  0.001  0.029  0.038
   27  0.004  0.000  0.028  0.032
   28  0.000  0.000  0.002  0.002
   29  0.000  0.000  0.005  0.005
   30  0.001  0.000  0.005  0.006
   31  0.000  0.000  0.005  0.005
   32  0.002  0.001  0.007  0.009
   33  0.001  0.000  0.005  0.006
   34  0.002  0.001  0.007  0.009
   35  0.000  0.000  0.003  0.003
   36  0.000  0.001  0.015  0.017
   37  0.000  0.000  0.000  0.000
   38  0.000  0.002  0.000  0.002
   39  0.000  0.000  0.000  0.000
tot    0.136  0.021  0.640  0.797
 
band    12 # energy   -5.25976299 # occ.  2.00000000
 
ion      s      p      d    tot
    1  0.000  0.000  0.015  0.015
    2  0.002  0.000  0.007  0.009
    3  0.002  0.000  0.007  0.009
    4  0.002  0.000  0.007  0.009
    5  0.003  0.000  0.003  0.006
    6  0.002  0.000  0.007  0.009
    7  0.002  0.000  0.007  0.009
    8  0.002  0.000  0.007  0.009
    9  0.007  0.000  0.000  0.007
   10  0.004  0.000  0.037  0.041
   11  0.004  0.001  0.020  0.025
   12  0.004  0.000  0.037  0.041
   13  0.004  0.001  0.020  0.025
   14  0.004  0.001  0.020  0.025
   15  0.006  0.000  0.022  0.029
   16  0.004  0.000  0.037  0.041
   17  0.006  0.000  0.022  0.029
   18  0.006  0.000  0.022  0.029
   19  0.001  0.001  0.035  0.036
   20  0.011  0.001  0.055  0.067
   21  0.011  0.001  0.055  0.066
   22  0.007  0.001  0.009  0.017
   23  0.011  0.001  0.055  0.066
   24  0.007  0.001  0.009  0.017
   25  0.001  0.001  0.035  0.036
   26  0.001  0.001  0.035  0.036
   27  0.007  0.001  0.009  0.017
   28  0.002  0.000  0.000  0.002
   29  0.001  0.000  0.007  0.008
   30  0.001  0.000  0.007  0.008
   31  0.001  0.000  0.007  0.008
   32  0.001  0.000  0.007  0.008
   33  0.001  0.000  0.007  0.008
   34  0.001  0.000  0.007  0.008
   35  0.005  0.000  0.000  0.005
   36  0.000  0.005  0.003  0.008
   37  0.001  0.001  0.000  0.002
   38  0.000  0.000  0.000  0.001
   39  0.000  0.000  0.000  0.000
tot    0.137  0.020  0.639  0.796
 
band    13 # energy   -5.25119061 # occ.  2.00000000
 
ion      s      p      d    tot
    1  0.000  0.000  0.001  0.001
    2  0.001  0.000  0.005  0.006
    3  0.000  0.000  0.002  0.002
    4  0.001  0.000  0.005  0.006
    5  0.000  0.000  0.006  0.006
    6  0.001  0.000  0.005  0.006
    7  0.000  0.000  0.002  0.002
    8  0.001  0.000  0.005  0.006
    9  0.000  0.000  0.006  0.006
   10  0.000  0.001  0.044  0.046
   11  0.013  0.001  0.028  0.042
   12  0.000  0.001  0.035  0.036
   13  0.013  0.000  0.032  0.045
   14  0.000  0.000  0.096  0.096
   15  0.016  0.001  0.027  0.044
   16  0.000  0.000  0.034  0.035
   17  0.015  0.001  0.027  0.043
   18  0.000  0.001  0.022  0.023
   19  0.010  0.001  0.020  0.030
   20  0.000  0.001  0.048  0.049
   21  0.000  0.000  0.037  0.037
   22  0.011  0.001  0.023  0.034
   23  0.000  0.000  0.036  0.036
   24  0.000  0.001  0.020  0.021
   25  0.000  0.000  0.056  0.056
   26  0.009  0.001  0.022  0.032
   27  0.011  0.001  0.023  0.035
   28  0.000  0.000  0.004  0.004
   29  0.000  0.000  0.003  0.004
   30  0.001  0.000  0.003  0.004
   31  0.000  0.000  0.003  0.004
   32  0.000  0.000  0.002  0.003
   33  0.001  0.000  0.003  0.004
   34  0.000  0.000  0.002  0.003
   35  0.000  0.000  0.006  0.006
   36  0.000  0.000  0.003  0.003
   37  0.000  0.000  0.000  0.000
   38  0.000  0.000  0.000  0.000
   39  0.000  0.000  0.000  0.000
tot    0.103  0.015  0.696  0.814
 
band    14 # energy   -5.25118454 # occ.  2.00000000
 
ion      s      p      d    tot
    1  0.000  0.000  0.001  0.001
    2  0.000  0.000  0.003  0.004
    3  0.001  0.000  0.006  0.007
    4  0.000  0.000  0.003  0.003
    5  0.000  0.000  0.006  0.006
    6  0.000  0.000  0.003  0.003
    7  0.001  0.000  0.006  0.007
    8  0.000  0.000  0.003  0.003
    9  0.000  0.000  0.006  0.006
   10  0.000  0.000  0.032  0.032
   11  0.004  0.000  0.076  0.080
   12  0.000  0.001  0.041  0.042
   13  0.005  0.000  0.072  0.077
   14  0.017  0.001  0.008  0.025
   15  0.005  0.001  0.023  0.029
   16  0.000  0.001  0.041  0.042
   17  0.006  0.001  0.024  0.030
   18  0.021  0.001  0.029  0.050
   19  0.003  0.000  0.045  0.048
   20  0.000  0.000  0.032  0.033
   21  0.000  0.001  0.044  0.044
   22  0.004  0.001  0.021  0.026
   23  0.000  0.001  0.044  0.045
   24  0.014  0.001  0.024  0.039
   25  0.012  0.001  0.010  0.023
   26  0.003  0.000  0.043  0.047
   27  0.003  0.001  0.021  0.025
   28  0.000  0.000  0.004  0.004
   29  0.001  0.000  0.003  0.003
   30  0.000  0.000  0.003  0.003
   31  0.001  0.000  0.003  0.003
   32  0.001  0.000  0.004  0.005
   33  0.000  0.000  0.003  0.003
   34  0.001  0.000  0.004  0.005
   35  0.000  0.000  0.006  0.006
   36  0.000  0.000  0.003  0.003
   37  0.000  0.000  0.000  0.000
   38  0.000  0.000  0.000  0.000
   39  0.000  0.000  0.000  0.000
tot    0.103  0.015  0.696  0.814
 
band    15 # energy   -5.24197329 # occ.  2.00000000
 
ion      s      p      d    tot
    1  0.002  0.001  0.001  0.004
    2  0.000  0.000  0.005  0.006
    3  0.000  0.000  0.005  0.006
    4  0.000  0.000  0.005  0.006
    5  0.004  0.001  0.006  0.011
    6  0.000  0.000  0.005  0.006
    7  0.000  0.000  0.005  0.006
    8  0.000  0.000  0.005  0.006
    9  0.001  0.000  0.002  0.003
   10  0.010  0.001  0.003  0.014
   11  0.012  0.000  0.051  0.063
   12  0.010  0.001  0.003  0.014
   13  0.012  0.000  0.051  0.063
   14  0.012  0.000  0.051  0.063
   15  0.000  0.000  0.044  0.044
   16  0.010  0.001  0.003  0.014
   17  0.000  0.000  0.044  0.044
   18  0.000  0.000  0.044  0.044
   19  0.012  0.001  0.020  0.032
   20  0.003  0.001  0.020  0.024
   21  0.003  0.001  0.020  0.024
   22  0.002  0.000  0.057  0.060
   23  0.003  0.001  0.020  0.024
   24  0.002  0.000  0.057  0.059
   25  0.012  0.001  0.020  0.032
   26  0.012  0.001  0.020  0.032
   27  0.002  0.000  0.057  0.060
   28  0.004  0.001  0.003  0.008
   29  0.000  0.000  0.003  0.003
   30  0.000  0.000  0.003  0.003
   31  0.000  0.000  0.003  0.003
   32  0.000  0.000  0.003  0.003
   33  0.000  0.000  0.003  0.003
   34  0.000  0.000  0.003  0.003
   35  0.002  0.001  0.008  0.011
   36  0.000  0.000  0.000  0.001
   37  0.000  0.000  0.000  0.000
   38  0.000  0.000  0.000  0.000
   39  0.000  0.000  0.000  0.000
tot    0.129  0.017  0.656  0.802
 
band    16 # energy   -5.22221290 # occ.  2.00000000
 
ion      s      p      d    tot
    1  0.000  0.000  0.015  0.016
    2  0.002  0.000  0.010  0.012
    3  0.002  0.000  0.010  0.012
    4  0.002  0.000  0.010  0.012
    5  0.000  0.000  0.000  0.000
    6  0.002  0.000  0.010  0.012
    7  0.002  0.000  0.010  0.012
    8  0.002  0.000  0.010  0.012
    9  0.008  0.000  0.008  0.016
   10  0.004  0.000  0.019  0.023
   11  0.000  0.000  0.036  0.036
   12  0.004  0.000  0.019  0.023
   13  0.000  0.000  0.036  0.036
   14  0.000  0.000  0.036  0.036
   15  0.000  0.000  0.022  0.023
   16  0.004  0.000  0.019  0.023
   17  0.000  0.000  0.022  0.023
   18  0.000  0.000  0.022  0.023
   19  0.001  0.001  0.003  0.005
   20  0.001  0.000  0.038  0.040
   21  0.001  0.000  0.038  0.039
   22  0.004  0.000  0.055  0.059
   23  0.001  0.000  0.038  0.039
   24  0.004  0.000  0.055  0.059
   25  0.001  0.001  0.003  0.005
   26  0.001  0.001  0.003  0.005
   27  0.004  0.000  0.055  0.059
   28  0.012  0.000  0.003  0.015
   29  0.004  0.000  0.015  0.019
   30  0.004  0.000  0.015  0.019
   31  0.004  0.000  0.015  0.019
   32  0.004  0.000  0.015  0.019
   33  0.004  0.000  0.015  0.019
   34  0.004  0.000  0.015  0.019
   35  0.004  0.000  0.030  0.034
   36  0.000  0.000  0.001  0.002
   37  0.000  0.000  0.000  0.000
   38  0.000  0.000  0.000  0.000
   39  0.000  0.000  0.000  0.000
tot    0.089  0.007  0.728  0.824
 
band    17 # energy   -5.21588895 # occ.  2.00000000
 
ion      s      p      d    tot
    1  0.000  0.001  0.015  0.016
    2  0.002  0.000  0.007  0.009
    3  0.000  0.000  0.011  0.012
    4  0.002  0.000  0.007  0.009
    5  0.000  0.000  0.009  0.009
    6  0.003  0.001  0.006  0.011
    7  0.000  0.000  0.011  0.012
    8  0.003  0.001  0.006  0.011
    9  0.000  0.000  0.007  0.007
   10  0.000  0.000  0.079  0.079
   11  0.001  0.000  0.037  0.038
   12  0.014  0.000  0.035  0.049
   13  0.001  0.000  0.037  0.038
   14  0.000  0.001  0.011  0.012
   15  0.009  0.000  0.033  0.042
   16  0.014  0.000  0.035  0.049
   17  0.009  0.000  0.032  0.042
   18  0.000  0.000  0.103  0.103
   19  0.000  0.000  0.025  0.025
   20  0.000  0.000  0.039  0.039
   21  0.002  0.000  0.017  0.019
   22  0.003  0.000  0.021  0.024
   23  0.002  0.000  0.017  0.019
   24  0.000  0.000  0.024  0.024
   25  0.000  0.000  0.025  0.025
   26  0.000  0.000  0.025  0.025
   27  0.003  0.000  0.021  0.024
   28  0.000  0.000  0.012  0.012
   29  0.002  0.000  0.004  0.006
   30  0.003  0.001  0.005  0.008
   31  0.002  0.000  0.004  0.006
   32  0.000  0.000  0.005  0.005
   33  0.003  0.001  0.005  0.008
   34  0.000  0.000  0.005  0.005
   35  0.000  0.000  0.003  0.004
   36  0.000  0.000  0.005  0.005
   37  0.000  0.000  0.000  0.000
   38  0.000  0.000  0.000  0.000
   39  0.000  0.000  0.000  0.000
tot    0.078  0.010  0.742  0.831
 
band    18 # energy   -5.21584588 # occ.  2.00000000
 
ion      s      p      d    tot
    1  0.000  0.001  0.015  0.016
    2  0.002  0.001  0.009  0.012
    3  0.003  0.001  0.005  0.009
    4  0.002  0.001  0.009  0.012
    5  0.000  0.000  0.009  0.009
    6  0.000  0.000  0.010  0.010
    7  0.003  0.001  0.005  0.009
    8  0.000  0.000  0.010  0.010
    9  0.000  0.000  0.007  0.007
   10  0.018  0.000  0.020  0.039
   11  0.000  0.000  0.020  0.020
   12  0.005  0.000  0.064  0.069
   13  0.000  0.000  0.020  0.020
   14  0.001  0.000  0.046  0.047
   15  0.003  0.000  0.079  0.082
   16  0.005  0.000  0.064  0.069
   17  0.003  0.000  0.080  0.083
   18  0.012  0.000  0.009  0.022
   19  0.000  0.000  0.025  0.025
   20  0.003  0.000  0.010  0.013
   21  0.001  0.000  0.032  0.033
   22  0.001  0.000  0.023  0.024
   23  0.001  0.000  0.032  0.033
   24  0.004  0.000  0.020  0.024
   25  0.000  0.000  0.025  0.025
   26  0.000  0.000  0.025  0.025
   27  0.001  0.000  0.023  0.024
   28  0.000  0.000  0.012  0.012
   29  0.001  0.000  0.005  0.007
   30  0.000  0.000  0.005  0.005
   31  0.001  0.000  0.005  0.007
   32  0.003  0.000  0.005  0.008
   33  0.000  0.000  0.005  0.005
   34  0.003  0.000  0.005  0.008
   35  0.000  0.000  0.003  0.004
   36  0.000  0.000  0.005  0.005
   37  0.000  0.000  0.000  0.000
   38  0.000  0.000  0.000  0.000
   39  0.000  0.000  0.000  0.000
tot    0.078  0.010  0.742  0.831
 
band    19 # energy   -5.20407110 # occ.  2.00000000
 
ion      s      p      d    tot
    1  0.000  0.000  0.008  0.008
    2  0.002  0.000  0.007  0.009
    3  0.000  0.000  0.009  0.009
    4  0.002  0.000  0.007  0.009
    5  0.000  0.000  0.005  0.006
    6  0.002  0.000  0.006  0.008
    7  0.000  0.000  0.009  0.009
    8  0.002  0.000  0.006  0.008
    9  0.000  0.000  0.019  0.019
   10  0.001  0.000  0.032  0.032
   11  0.001  0.000  0.045  0.046
   12  0.000  0.000  0.019  0.019
   13  0.001  0.000  0.044  0.045
   14  0.005  0.000  0.007  0.012
   15  0.000  0.000  0.037  0.038
   16  0.000  0.000  0.018  0.018
   17  0.000  0.000  0.037  0.038
   18  0.002  0.000  0.035  0.036
   19  0.002  0.000  0.072  0.074
   20  0.000  0.000  0.049  0.049
   21  0.000  0.000  0.022  0.023
   22  0.003  0.000  0.053  0.056
   23  0.000  0.000  0.022  0.022
   24  0.011  0.000  0.030  0.041
   25  0.009  0.000  0.005  0.014
   26  0.002  0.000  0.070  0.072
   27  0.003  0.000  0.054  0.057
   28  0.000  0.000  0.005  0.006
   29  0.001  0.000  0.008  0.009
   30  0.002  0.000  0.003  0.005
   31  0.000  0.000  0.008  0.009
   32  0.000  0.000  0.009  0.010
   33  0.002  0.000  0.003  0.005
   34  0.000  0.000  0.009  0.009
   35  0.000  0.000  0.012  0.012
   36  0.000  0.000  0.003  0.003
   37  0.000  0.000  0.000  0.000
   38  0.000  0.000  0.000  0.000
   39  0.000  0.000  0.000  0.000
tot    0.054  0.007  0.784  0.846
 
band    20 # energy   -5.20402590 # occ.  2.00000000
 
ion      s      p      d    tot
    1  0.000  0.000  0.007  0.008
    2  0.001  0.000  0.007  0.008
    3  0.003  0.000  0.006  0.009
    4  0.001  0.000  0.007  0.008
    5  0.000  0.000  0.005  0.006
    6  0.001  0.000  0.009  0.009
    7  0.003  0.000  0.006  0.009
    8  0.001  0.000  0.009  0.009
    9  0.000  0.000  0.019  0.019
   10  0.000  0.000  0.014  0.014
   11  0.004  0.000  0.019  0.023
   12  0.001  0.000  0.027  0.028
   13  0.004  0.000  0.020  0.024
   14  0.000  0.000  0.057  0.057
   15  0.001  0.000  0.036  0.037
   16  0.001  0.000  0.028  0.028
   17  0.001  0.000  0.036  0.037
   18  0.000  0.000  0.038  0.038
   19  0.007  0.000  0.026  0.033
   20  0.000  0.000  0.013  0.013
   21  0.000  0.000  0.040  0.040
   22  0.008  0.000  0.038  0.046
   23  0.000  0.000  0.040  0.041
   24  0.000  0.000  0.062  0.062
   25  0.000  0.000  0.093  0.093
   26  0.007  0.000  0.028  0.035
   27  0.008  0.000  0.038  0.046
   28  0.000  0.000  0.005  0.006
   29  0.001  0.001  0.005  0.007
   30  0.000  0.000  0.010  0.010
   31  0.001  0.001  0.005  0.007
   32  0.002  0.000  0.004  0.006
   33  0.000  0.000  0.010  0.010
   34  0.001  0.000  0.005  0.006
   35  0.000  0.000  0.012  0.012
   36  0.000  0.000  0.003  0.003
   37  0.000  0.000  0.000  0.000
   38  0.000  0.000  0.000  0.000
   39  0.000  0.000  0.000  0.000