PROCAR new format
# of k-points:   10         # of bands:  240         # of ions:   38

 k-point     1 :    0.00000000 0.00000000 0.00000000     weight = 0.01562500

band     1 # energy  -20.45160829 # occ.  2.00000000
 
ion      s      p      d    tot
    1  0.000  0.000  0.000  0.000
    2  0.000  0.000  0.000  0.000
    3  0.000  0.000  0.000  0.000
    4  0.000  0.000  0.000  0.000
    5  0.000  0.000  0.000  0.000
    6  0.000  0.000  0.000  0.000
    7  0.000  0.000  0.000  0.000
    8  0.000  0.000  0.000  0.000
    9  0.000  0.000  0.000  0.000
   10  0.000  0.000  0.000  0.000
   11  0.000  0.000  0.000  0.000
   12  0.000  0.000  0.000  0.000
   13  0.000  0.000  0.000  0.000
   14  0.000  0.000  0.000  0.000
   15  0.000  0.000  0.000  0.000
   16  0.000  0.000  0.000  0.000
   17  0.000  0.000  0.000  0.000
   18  0.000  0.000  0.000  0.000
   19  0.000  0.000  0.000  0.000
   20  0.000  0.000  0.000  0.000
   21  0.000  0.000  0.000  0.000
   22  0.000  0.000  0.000  0.000
   23  0.000  0.000  0.000  0.000
   24  0.000  0.000  0.000  0.000
   25  0.000  0.000  0.000  0.000
   26  0.000  0.000  0.000  0.000
   27  0.000  0.000  0.000  0.000
   28  0.000  0.000  0.000  0.000
   29  0.000  0.000  0.000  0.000
   30  0.000  0.000  0.000  0.000
   31  0.000  0.000  0.000  0.000
   32  0.000  0.000  0.000  0.000
   33  0.000  0.000  0.000  0.000
   34  0.000  0.000  0.000  0.000
   35  0.000  0.000  0.000  0.000
   36  0.010  0.015  0.029  0.055
   37  0.745  0.016  0.000  0.760
   38  0.116  0.024  0.000  0.139
tot    0.871  0.055  0.029  0.955
 
band     2 # energy   -8.93174615 # occ.  2.00000000
 
ion      s      p      d    tot
    1  0.000  0.000  0.000  0.000
    2  0.000  0.000  0.000  0.000
    3  0.000  0.000  0.000  0.000
    4  0.000  0.000  0.000  0.000
    5  0.000  0.000  0.000  0.000
    6  0.000  0.000  0.000  0.000
    7  0.000  0.000  0.000  0.000
    8  0.000  0.000  0.000  0.000
    9  0.000  0.000  0.000  0.000
   10  0.000  0.000  0.000  0.000
   11  0.000  0.000  0.000  0.000
   12  0.000  0.000  0.000  0.000
   13  0.000  0.000  0.000  0.000
   14  0.000  0.000  0.000  0.000
   15  0.000  0.000  0.000  0.000
   16  0.000  0.000  0.000  0.000
   17  0.000  0.000  0.000  0.000
   18  0.000  0.000  0.000  0.000
   19  0.000  0.000  0.000  0.000
   20  0.001  0.000  0.001  0.002
   21  0.001  0.000  0.001  0.002
   22  0.000  0.000  0.000  0.000
   23  0.001  0.000  0.001  0.002
   24  0.000  0.000  0.000  0.000
   25  0.000  0.000  0.000  0.000
   26  0.000  0.000  0.000  0.000
   27  0.000  0.000  0.000  0.000
   28  0.000  0.000  0.000  0.000
   29  0.000  0.000  0.000  0.000
   30  0.000  0.000  0.000  0.000
   31  0.000  0.000  0.000  0.000
   32  0.000  0.000  0.000  0.000
   33  0.000  0.000  0.000  0.000
   34  0.000  0.000  0.000  0.000
   35  0.000  0.000  0.000  0.000
   36  0.049  0.038  0.162  0.248
   37  0.027  0.536  0.000  0.563
   38  0.177  0.018  0.000  0.195
tot    0.255  0.594  0.167  1.015
 
band     3 # energy   -6.67056654 # occ.  2.00000000
 
ion      s      p      d    tot
    1  0.006  0.001  0.000  0.007
    2  0.006  0.001  0.000  0.007
    3  0.006  0.001  0.000  0.007
    4  0.006  0.001  0.000  0.007
    5  0.006  0.001  0.000  0.007
    6  0.006  0.001  0.000  0.007
    7  0.006  0.001  0.000  0.007
    8  0.006  0.001  0.000  0.007
    9  0.006  0.001  0.000  0.007
   10  0.024  0.000  0.000  0.025
   11  0.024  0.000  0.000  0.025
   12  0.024  0.000  0.000  0.025
   13  0.024  0.000  0.000  0.025
   14  0.024  0.000  0.000  0.025
   15  0.024  0.000  0.000  0.024
   16  0.024  0.000  0.000  0.025
   17  0.024  0.000  0.000  0.024
   18  0.024  0.000  0.000  0.024
   19  0.022  0.000  0.000  0.023
   20  0.023  0.000  0.000  0.024
   21  0.023  0.000  0.000  0.024
   22  0.022  0.000  0.000  0.023
   23  0.023  0.000  0.000  0.024
   24  0.022  0.000  0.000  0.023
   25  0.022  0.000  0.000  0.023
   26  0.022  0.000  0.000  0.023
   27  0.022  0.000  0.000  0.023
   28  0.005  0.001  0.000  0.006
   29  0.005  0.001  0.000  0.006
   30  0.005  0.001  0.000  0.006
   31  0.005  0.001  0.000  0.006
   32  0.005  0.001  0.000  0.006
   33  0.005  0.001  0.000  0.006
   34  0.005  0.001  0.000  0.006
   35  0.005  0.001  0.000  0.006
   36  0.004  0.002  0.001  0.007
   37  0.000  0.002  0.000  0.002
   38  0.000  0.000  0.000  0.000
tot    0.522  0.016  0.007  0.545
 
band     4 # energy   -5.80340474 # occ.  2.00000000
 
ion      s      p      d    tot
    1  0.008  0.000  0.000  0.009
    2  0.008  0.000  0.000  0.008
    3  0.008  0.000  0.000  0.008
    4  0.008  0.000  0.000  0.008
    5  0.007  0.000  0.000  0.008
    6  0.008  0.000  0.000  0.008
    7  0.008  0.000  0.000  0.008
    8  0.008  0.000  0.000  0.008
    9  0.007  0.000  0.000  0.008
   10  0.011  0.001  0.016  0.028
   11  0.010  0.001  0.015  0.026
   12  0.011  0.001  0.016  0.028
   13  0.010  0.001  0.015  0.026
   14  0.010  0.001  0.015  0.026
   15  0.010  0.001  0.014  0.025
   16  0.011  0.001  0.016  0.028
   17  0.010  0.001  0.014  0.025
   18  0.010  0.001  0.014  0.025
   19  0.013  0.001  0.017  0.030
   20  0.013  0.001  0.021  0.035
   21  0.013  0.001  0.021  0.035
   22  0.013  0.001  0.016  0.029
   23  0.013  0.001  0.021  0.035
   24  0.013  0.001  0.016  0.029
   25  0.013  0.001  0.017  0.030
   26  0.013  0.001  0.017  0.030
   27  0.013  0.001  0.016  0.029
   28  0.007  0.000  0.000  0.008
   29  0.006  0.000  0.000  0.007
   30  0.006  0.000  0.000  0.007
   31  0.006  0.000  0.000  0.007
   32  0.006  0.000  0.000  0.007
   33  0.006  0.000  0.000  0.007
   34  0.006  0.000  0.000  0.007
   35  0.007  0.000  0.000  0.007
   36  0.005  0.001  0.001  0.007
   37  0.000  0.001  0.000  0.001
   38  0.000  0.000  0.000  0.000
tot    0.333  0.026  0.301  0.660
 
band     5 # energy   -5.53569850 # occ.  2.00000000
 
ion      s      p      d    tot
    1  0.015  0.000  0.025  0.040
    2  0.014  0.000  0.022  0.036
    3  0.014  0.000  0.022  0.036
    4  0.014  0.000  0.022  0.036
    5  0.013  0.000  0.020  0.033
    6  0.014  0.000  0.022  0.036
    7  0.014  0.000  0.022  0.036
    8  0.014  0.000  0.022  0.036
    9  0.015  0.000  0.021  0.036
   10  0.000  0.000  0.024  0.025
   11  0.001  0.000  0.018  0.019
   12  0.000  0.000  0.024  0.025
   13  0.001  0.000  0.018  0.019
   14  0.001  0.000  0.018  0.019
   15  0.000  0.001  0.016  0.017
   16  0.000  0.000  0.024  0.025
   17  0.000  0.001  0.016  0.017
   18  0.000  0.001  0.016  0.017
   19  0.000  0.000  0.009  0.010
   20  0.000  0.000  0.019  0.019
   21  0.000  0.000  0.019  0.019
   22  0.000  0.000  0.009  0.009
   23  0.000  0.000  0.019  0.019
   24  0.000  0.000  0.009  0.009
   25  0.000  0.000  0.009  0.010
   26  0.000  0.000  0.009  0.010
   27  0.000  0.000  0.009  0.009
   28  0.007  0.000  0.008  0.014
   29  0.008  0.000  0.009  0.016
   30  0.008  0.000  0.009  0.016
   31  0.008  0.000  0.009  0.016
   32  0.008  0.000  0.009  0.016
   33  0.008  0.000  0.009  0.016
   34  0.008  0.000  0.009  0.016
   35  0.008  0.000  0.008  0.016
   36  0.007  0.000  0.006  0.013
   37  0.000  0.000  0.000  0.000
   38  0.000  0.000  0.000  0.000
tot    0.199  0.006  0.557  0.762
 
band     6 # energy   -5.42430589 # occ.  2.00000000
 
ion      s      p      d    tot
    1  0.003  0.001  0.006  0.010
    2  0.000  0.000  0.005  0.006
    3  0.000  0.000  0.005  0.006
    4  0.000  0.000  0.005  0.006
    5  0.003  0.000  0.000  0.003
    6  0.000  0.000  0.005  0.006
    7  0.000  0.000  0.005  0.006
    8  0.000  0.000  0.005  0.006
    9  0.002  0.000  0.000  0.003
   10  0.007  0.000  0.033  0.040
   11  0.000  0.001  0.025  0.026
   12  0.007  0.000  0.033  0.040
   13  0.000  0.001  0.025  0.026
   14  0.000  0.001  0.025  0.026
   15  0.006  0.001  0.007  0.014
   16  0.007  0.000  0.033  0.040
   17  0.006  0.001  0.007  0.014
   18  0.006  0.001  0.007  0.014
   19  0.002  0.001  0.029  0.032
   20  0.007  0.000  0.093  0.100
   21  0.007  0.000  0.093  0.100
   22  0.013  0.001  0.014  0.027
   23  0.007  0.000  0.093  0.100
   24  0.013  0.001  0.014  0.027
   25  0.002  0.001  0.029  0.032
   26  0.002  0.001  0.029  0.032
   27  0.013  0.001  0.014  0.027
   28  0.000  0.000  0.000  0.000
   29  0.000  0.000  0.004  0.004
   30  0.000  0.000  0.004  0.004
   31  0.000  0.000  0.004  0.004
   32  0.000  0.000  0.004  0.004
   33  0.000  0.000  0.004  0.004
   34  0.000  0.000  0.004  0.004
   35  0.005  0.001  0.002  0.008
   36  0.001  0.004  0.002  0.007
   37  0.000  0.002  0.000  0.002
   38  0.001  0.000  0.000  0.001
tot    0.123  0.020  0.668  0.812
 
band     7 # energy   -5.41862803 # occ.  2.00000000
 
ion      s      p      d    tot
    1  0.000  0.000  0.010  0.010
    2  0.001  0.000  0.003  0.004
    3  0.000  0.000  0.002  0.003
    4  0.001  0.000  0.003  0.004
    5  0.000  0.000  0.002  0.002
    6  0.001  0.000  0.003  0.004
    7  0.000  0.000  0.002  0.003
    8  0.001  0.000  0.003  0.004
    9  0.000  0.000  0.003  0.003
   10  0.016  0.001  0.018  0.035
   11  0.000  0.001  0.023  0.025
   12  0.004  0.001  0.023  0.027
   13  0.000  0.001  0.023  0.025
   14  0.002  0.000  0.023  0.025
   15  0.002  0.000  0.027  0.029
   16  0.005  0.001  0.022  0.028
   17  0.002  0.000  0.029  0.031
   18  0.007  0.001  0.008  0.015
   19  0.006  0.001  0.028  0.035
   20  0.025  0.001  0.008  0.033
   21  0.005  0.000  0.102  0.108
   22  0.000  0.001  0.036  0.037
   23  0.007  0.000  0.094  0.101
   24  0.000  0.000  0.028  0.028
   25  0.022  0.001  0.031  0.053
   26  0.005  0.001  0.028  0.034
   27  0.000  0.001  0.036  0.037
   28  0.000  0.000  0.005  0.005
   29  0.000  0.000  0.004  0.005
   30  0.001  0.000  0.006  0.007
   31  0.000  0.000  0.004  0.005
   32  0.000  0.000  0.006  0.006
   33  0.001  0.000  0.006  0.007
   34  0.000  0.000  0.005  0.006
   35  0.000  0.000  0.001  0.001
   36  0.000  0.000  0.013  0.013
   37  0.000  0.008  0.000  0.008
   38  0.000  0.000  0.000  0.000
tot    0.114  0.024  0.667  0.805
 
band     8 # energy   -5.41862653 # occ.  2.00000000
 
ion      s      p      d    tot
    1  0.000  0.000  0.010  0.010
    2  0.000  0.000  0.002  0.003
    3  0.001  0.000  0.003  0.005
    4  0.000  0.000  0.002  0.003
    5  0.000  0.000  0.002  0.002
    6  0.000  0.000  0.003  0.003
    7  0.001  0.000  0.003  0.005
    8  0.000  0.000  0.003  0.003
    9  0.000  0.000  0.003  0.003
   10  0.000  0.001  0.024  0.025
   11  0.001  0.000  0.023  0.025
   12  0.013  0.001  0.019  0.033
   13  0.001  0.000  0.023  0.025
   14  0.000  0.001  0.024  0.025
   15  0.005  0.000  0.015  0.021
   16  0.012  0.001  0.020  0.032
   17  0.006  0.001  0.013  0.019
   18  0.000  0.000  0.035  0.035
   19  0.016  0.001  0.030  0.046
   20  0.000  0.000  0.128  0.128
   21  0.020  0.000  0.033  0.053
   22  0.000  0.000  0.030  0.031
   23  0.018  0.000  0.042  0.060
   24  0.000  0.001  0.039  0.040
   25  0.000  0.001  0.027  0.028
   26  0.017  0.001  0.030  0.048
   27  0.000  0.001  0.031  0.032
   28  0.000  0.000  0.005  0.005
   29  0.001  0.000  0.006  0.007
   30  0.000  0.000  0.004  0.005
   31  0.000  0.000  0.006  0.007
   32  0.001  0.000  0.005  0.006
   33  0.000  0.000  0.004  0.005
   34  0.001  0.000  0.005  0.006
   35  0.000  0.000  0.001  0.001
   36  0.000  0.000  0.013  0.013
   37  0.000  0.008  0.000  0.008
   38  0.000  0.000  0.000  0.000
tot    0.114  0.024  0.667  0.805
 
band     9 # energy   -5.40296677 # occ.  2.00000000
 
ion      s      p      d    tot
    1  0.000  0.000  0.004  0.004
    2  0.000  0.000  0.002  0.002
    3  0.001  0.000  0.007  0.008
    4  0.000  0.000  0.002  0.003
    5  0.000  0.000  0.009  0.009
    6  0.001  0.001  0.005  0.007
    7  0.001  0.000  0.006  0.007
    8  0.001  0.001  0.005  0.006
    9  0.000  0.000  0.002  0.002
   10  0.006  0.001  0.018  0.024
   11  0.009  0.001  0.069  0.079
   12  0.001  0.000  0.081  0.083
   13  0.006  0.001  0.077  0.084
   14  0.031  0.001  0.014  0.046
   15  0.003  0.001  0.016  0.020
   16  0.002  0.000  0.073  0.075
   17  0.002  0.001  0.013  0.016
   18  0.009  0.000  0.040  0.050
   19  0.000  0.000  0.027  0.028
   20  0.007  0.001  0.036  0.043
   21  0.001  0.001  0.029  0.031
   22  0.003  0.000  0.023  0.026
   23  0.002  0.001  0.029  0.033
   24  0.013  0.001  0.010  0.024
   25  0.002  0.000  0.014  0.016
   26  0.000  0.000  0.029  0.030
   27  0.004  0.000  0.021  0.025
   28  0.000  0.000  0.001  0.001
   29  0.001  0.000  0.003  0.004
   30  0.000  0.000  0.002  0.003
   31  0.001  0.000  0.003  0.004
   32  0.000  0.000  0.002  0.003
   33  0.000  0.000  0.002  0.003
   34  0.000  0.000  0.003  0.003
   35  0.000  0.000  0.006  0.006
   36  0.000  0.000  0.003  0.003
   37  0.000  0.000  0.000  0.000
   38  0.000  0.000  0.000  0.000
tot    0.108  0.015  0.688  0.812
 
band    10 # energy   -5.40296312 # occ.  2.00000000
 
ion      s      p      d    tot
    1  0.000  0.000  0.004  0.004
    2  0.001  0.001  0.007  0.009
    3  0.000  0.000  0.003  0.003
    4  0.001  0.001  0.007  0.009
    5  0.000  0.000  0.009  0.009
    6  0.000  0.000  0.004  0.004
    7  0.001  0.000  0.003  0.004
    8  0.000  0.000  0.005  0.005
    9  0.000  0.000  0.002  0.002
   10  0.000  0.000  0.097  0.098
   11  0.021  0.001  0.038  0.060
   12  0.005  0.001  0.034  0.039
   13  0.025  0.001  0.030  0.055
   14  0.000  0.001  0.092  0.093
   15  0.006  0.001  0.030  0.037
   16  0.004  0.000  0.042  0.047
   17  0.007  0.000  0.033  0.041
   18  0.000  0.002  0.006  0.008
   19  0.001  0.000  0.020  0.021
   20  0.000  0.001  0.027  0.028
   21  0.006  0.001  0.034  0.040
   22  0.010  0.001  0.013  0.024
   23  0.005  0.001  0.033  0.039
   24  0.000  0.000  0.026  0.026
   25  0.000  0.000  0.033  0.033
   26  0.001  0.000  0.018  0.019
   27  0.009  0.001  0.015  0.025
   28  0.000  0.000  0.001  0.001
   29  0.000  0.000  0.002  0.002
   30  0.001  0.000  0.003  0.004
   31  0.000  0.000  0.002  0.002
   32  0.001  0.000  0.003  0.004
   33  0.001  0.000  0.003  0.004
   34  0.001  0.000  0.003  0.004
   35  0.000  0.000  0.006  0.006
   36  0.000  0.000  0.003  0.003
   37  0.000  0.000  0.000  0.000
   38  0.000  0.000  0.000  0.000
tot    0.108  0.015  0.688  0.812
 
band    11 # energy   -5.39593332 # occ.  2.00000000
 
ion      s      p      d    tot
    1  0.001  0.000  0.000  0.002
    2  0.000  0.000  0.005  0.006
    3  0.000  0.000  0.005  0.006
    4  0.000  0.000  0.005  0.006
    5  0.002  0.001  0.008  0.011
    6  0.000  0.000  0.005  0.006
    7  0.000  0.000  0.005  0.006
    8  0.000  0.000  0.005  0.006
    9  0.001  0.000  0.003  0.004
   10  0.008  0.001  0.003  0.012
   11  0.014  0.001  0.057  0.072
   12  0.008  0.001  0.003  0.012
   13  0.014  0.001  0.057  0.072
   14  0.015  0.001  0.056  0.072
   15  0.000  0.000  0.059  0.060
   16  0.008  0.001  0.003  0.012
   17  0.000  0.000  0.059  0.060
   18  0.000  0.000  0.059  0.060
   19  0.007  0.000  0.030  0.038
   20  0.005  0.001  0.021  0.028
   21  0.005  0.001  0.021  0.028
   22  0.000  0.000  0.032  0.033
   23  0.005  0.001  0.021  0.028
   24  0.000  0.000  0.032  0.033
   25  0.007  0.000  0.030  0.038
   26  0.007  0.000  0.030  0.038
   27  0.000  0.000  0.032  0.033
   28  0.003  0.001  0.002  0.005
   29  0.000  0.000  0.003  0.004
   30  0.000  0.000  0.003  0.004
   31  0.000  0.000  0.003  0.004
   32  0.000  0.000  0.003  0.004
   33  0.000  0.000  0.003  0.004
   34  0.000  0.000  0.003  0.004
   35  0.001  0.000  0.002  0.003
   36  0.000  0.000  0.000  0.000
   37  0.000  0.000  0.000  0.000
   38  0.000  0.000  0.000  0.000
tot    0.116  0.016  0.674  0.806
 
band    12 # energy   -5.38560493 # occ.  2.00000000
 
ion      s      p      d    tot
    1  0.001  0.000  0.005  0.007
    2  0.001  0.000  0.009  0.010
    3  0.001  0.000  0.009  0.010
    4  0.001  0.000  0.009  0.010
    5  0.007  0.000  0.007  0.014
    6  0.001  0.000  0.009  0.010
    7  0.001  0.000  0.009  0.010
    8  0.001  0.000  0.009  0.010
    9  0.002  0.001  0.012  0.015
   10  0.000  0.000  0.075  0.075
   11  0.002  0.000  0.035  0.037
   12  0.000  0.000  0.075  0.075
   13  0.002  0.000  0.035  0.037
   14  0.002  0.000  0.035  0.037
   15  0.012  0.000  0.021  0.034
   16  0.000  0.000  0.075  0.075
   17  0.012  0.000  0.021  0.034
   18  0.012  0.000  0.021  0.034
   19  0.003  0.000  0.010  0.013
   20  0.001  0.000  0.046  0.046
   21  0.001  0.000  0.046  0.047
   22  0.001  0.000  0.015  0.016
   23  0.001  0.000  0.046  0.047
   24  0.001  0.000  0.015  0.016
   25  0.003  0.000  0.010  0.013
   26  0.003  0.000  0.010  0.013
   27  0.001  0.000  0.015  0.016
   28  0.002  0.001  0.001  0.003
   29  0.001  0.000  0.009  0.010
   30  0.001  0.000  0.009  0.010
   31  0.001  0.000  0.009  0.010
   32  0.001  0.000  0.009  0.010
   33  0.001  0.000  0.009  0.010
   34  0.001  0.000  0.009  0.010
   35  0.002  0.000  0.001  0.003
   36  0.005  0.000  0.004  0.010
   37  0.000  0.000  0.000  0.000
   38  0.000  0.000  0.000  0.000
tot    0.083  0.009  0.744  0.836
 
band    13 # energy   -5.36249674 # occ.  2.00000000
 
ion      s      p      d    tot
    1  0.000  0.000  0.014  0.014
    2  0.003  0.001  0.005  0.009
    3  0.001  0.001  0.011  0.012
    4  0.002  0.000  0.007  0.009
    5  0.000  0.000  0.010  0.010
    6  0.003  0.001  0.009  0.013
    7  0.000  0.000  0.010  0.010
    8  0.004  0.001  0.006  0.011
    9  0.000  0.001  0.008  0.009
   10  0.001  0.001  0.047  0.048
   11  0.000  0.000  0.034  0.034
   12  0.013  0.000  0.032  0.044
   13  0.000  0.000  0.038  0.039
   14  0.000  0.000  0.030  0.030
   15  0.009  0.000  0.056  0.065
   16  0.007  0.000  0.039  0.046
   17  0.016  0.000  0.012  0.028
   18  0.001  0.000  0.103  0.104
   19  0.000  0.000  0.023  0.023
   20  0.000  0.000  0.037  0.038
   21  0.005  0.000  0.012  0.017
   22  0.005  0.000  0.020  0.025
   23  0.003  0.000  0.024  0.027
   24  0.000  0.000  0.029  0.029
   25  0.000  0.000  0.023  0.023
   26  0.000  0.000  0.024  0.024
   27  0.003  0.000  0.024  0.027
   28  0.000  0.000  0.011  0.011
   29  0.000  0.000  0.005  0.005
   30  0.003  0.001  0.005  0.008
   31  0.002  0.000  0.004  0.006
   32  0.001  0.000  0.005  0.007
   33  0.003  0.000  0.004  0.008
   34  0.000  0.000  0.005  0.005
   35  0.000  0.000  0.006  0.006
   36  0.000  0.000  0.002  0.003
   37  0.000  0.000  0.000  0.000
   38  0.000  0.000  0.000  0.000
tot    0.085  0.011  0.732  0.828
 
band    14 # energy   -5.36249579 # occ.  2.00000000
 
ion      s      p      d    tot
    1  0.000  0.000  0.014  0.014
    2  0.001  0.001  0.011  0.012
    3  0.004  0.001  0.005  0.009
    4  0.002  0.001  0.009  0.013
    5  0.000  0.000  0.010  0.010
    6  0.002  0.000  0.007  0.009
    7  0.004  0.001  0.006  0.011
    8  0.000  0.000  0.010  0.010
    9  0.000  0.001  0.008  0.009
   10  0.013  0.000  0.032  0.045
   11  0.000  0.000  0.034  0.034
   12  0.001  0.001  0.047  0.048
   13  0.000  0.000  0.030  0.030
   14  0.000  0.000  0.038  0.039
   15  0.009  0.000  0.057  0.066
   16  0.007  0.000  0.039  0.046
   17  0.001  0.000  0.102  0.103
   18  0.016  0.000  0.011  0.028
   19  0.000  0.000  0.023  0.023
   20  0.005  0.000  0.012  0.017
   21  0.000  0.000  0.037  0.038
   22  0.000  0.000  0.029  0.029
   23  0.003  0.000  0.025  0.028
   24  0.005  0.000  0.020  0.025
   25  0.000  0.000  0.024  0.024
   26  0.000  0.000  0.023  0.023
   27  0.003  0.000  0.024  0.027
   28  0.000  0.000  0.011  0.011
   29  0.003  0.001  0.005  0.008
   30  0.000  0.000  0.005  0.005
   31  0.001  0.000  0.005  0.007
   32  0.002  0.000  0.004  0.006
   33  0.000  0.000  0.005  0.005
   34  0.003  0.000  0.004  0.008
   35  0.000  0.000  0.006  0.006
   36  0.000  0.000  0.002  0.003
   37  0.000  0.000  0.000  0.000
   38  0.000  0.000  0.000  0.000
tot    0.085  0.011  0.732  0.828
 
band    15 # energy   -5.35875894 # occ.  2.00000000
 
ion      s      p      d    tot
    1  0.000  0.000  0.010  0.011
    2  0.003  0.000  0.012  0.015
    3  0.003  0.000  0.012  0.015
    4  0.003  0.000  0.012  0.015
    5  0.002  0.000  0.002  0.004
    6  0.003  0.000  0.012  0.015
    7  0.003  0.000  0.012  0.015
    8  0.003  0.000  0.012  0.015
    9  0.009  0.000  0.017  0.026
   10  0.003  0.000  0.011  0.014
   11  0.000  0.000  0.008  0.008
   12  0.003  0.000  0.011  0.014
   13  0.000  0.000  0.008  0.008
   14  0.000  0.000  0.008  0.009
   15  0.001  0.000  0.029  0.029
   16  0.003  0.000  0.011  0.014
   17  0.001  0.000  0.029  0.029
   18  0.001  0.000  0.029  0.029
   19  0.001  0.001  0.011  0.012
   20  0.004  0.000  0.022  0.026
   21  0.004  0.000  0.022  0.026
   22  0.002  0.000  0.049  0.051
   23  0.004  0.000  0.022  0.026
   24  0.002  0.000  0.049  0.051
   25  0.001  0.001  0.011  0.012
   26  0.001  0.001  0.011  0.012
   27  0.002  0.000  0.049  0.051
   28  0.014  0.000  0.005  0.019
   29  0.008  0.000  0.020  0.029
   30  0.008  0.000  0.020  0.029
   31  0.008  0.000  0.020  0.029
   32  0.008  0.000  0.020  0.029
   33  0.008  0.000  0.020  0.029
   34  0.008  0.000  0.020  0.029
   35  0.010  0.000  0.039  0.049
   36  0.002  0.001  0.005  0.007
   37  0.000  0.000  0.000  0.000
   38  0.000  0.000  0.000  0.000
tot    0.133  0.008  0.660  0.801
 
band    16 # energy   -5.34784595 # occ.  2.00000000
 
ion      s      p      d    tot
    1  0.009  0.000  0.008  0.017
    2  0.001  0.000  0.012  0.013
    3  0.001  0.000  0.011  0.013
    4  0.001  0.000  0.012  0.013
    5  0.000  0.000  0.010  0.010
    6  0.001  0.000  0.011  0.013
    7  0.001  0.000  0.011  0.013
    8  0.001  0.000  0.011  0.013
    9  0.000  0.000  0.000  0.000
   10  0.000  0.000  0.028  0.028
   11  0.003  0.000  0.014  0.017
   12  0.000  0.000  0.028  0.028
   13  0.003  0.000  0.014  0.017
   14  0.003  0.000  0.013  0.017
   15  0.000  0.000  0.028  0.028
   16  0.000  0.000  0.028  0.028
   17  0.000  0.000  0.028  0.028
   18  0.000  0.000  0.028  0.028
   19  0.005  0.000  0.057  0.062
   20  0.002  0.001  0.006  0.008
   21  0.002  0.001  0.006  0.008
   22  0.001  0.000  0.037  0.038
   23  0.002  0.001  0.006  0.008
   24  0.001  0.000  0.037  0.039
   25  0.005  0.000  0.057  0.062
   26  0.005  0.000  0.057  0.062
   27  0.001  0.000  0.037  0.038
   28  0.004  0.000  0.034  0.038
   29  0.005  0.000  0.015  0.020
   30  0.005  0.000  0.015  0.020
   31  0.005  0.000  0.015  0.020
   32  0.005  0.000  0.015  0.020
   33  0.005  0.000  0.015  0.020
   34  0.005  0.000  0.015  0.020
   35  0.001  0.000  0.003  0.004
   36  0.012  0.002  0.003  0.016
   37  0.000  0.000  0.000  0.001
   38  0.000  0.000  0.000  0.000
tot    0.095  0.009  0.724  0.828
 
band    17 # energy   -5.34628782 # occ.  2.00000000
 
ion      s      p      d    tot
    1  0.000  0.000  0.006  0.006
    2  0.003  0.000  0.007  0.010
    3  0.000  0.000  0.008  0.009
    4  0.003  0.000  0.007  0.010
    5  0.000  0.000  0.007  0.008
    6  0.002  0.000  0.006  0.008
    7  0.000  0.000  0.008  0.009
    8  0.002  0.000  0.006  0.008
    9  0.000  0.000  0.021  0.021
   10  0.001  0.000  0.029  0.031
   11  0.001  0.000  0.039  0.040
   12  0.000  0.000  0.018  0.018
   13  0.001  0.000  0.036  0.037
   14  0.003  0.000  0.008  0.012
   15  0.000  0.000  0.033  0.034
   16  0.000  0.000  0.017  0.017
   17  0.000  0.000  0.034  0.034
   18  0.000  0.000  0.035  0.036
   19  0.002  0.000  0.079  0.081
   20  0.000  0.000  0.053  0.054
   21  0.000  0.000  0.021  0.022
   22  0.004  0.000  0.061  0.065
   23  0.000  0.000  0.018  0.019
   24  0.014  0.000  0.024  0.039
   25  0.009  0.000  0.007  0.016
   26  0.002  0.000  0.073  0.075
   27  0.003  0.000  0.064  0.067
   28  0.000  0.000  0.004  0.005
   29  0.000  0.000  0.008  0.008
   30  0.002  0.000  0.003  0.005
   31  0.000  0.000  0.008  0.008
   32  0.001  0.001  0.008  0.009
   33  0.002  0.000  0.003  0.005
   34  0.001  0.001  0.008  0.009
   35  0.000  0.000  0.011  0.011
   36  0.000  0.000  0.002  0.002
   37  0.000  0.000  0.000  0.000
   38  0.000  0.000  0.000  0.000
tot    0.057  0.007  0.780  0.844
 
band    18 # energy   -5.34627230 # occ.  2.00000000
 
ion      s      p      d    tot
    1  0.000  0.000  0.006  0.006
    2  0.000  0.000  0.007  0.008
    3  0.003  0.000  0.006  0.009
    4  0.000  0.000  0.007  0.008
    5  0.000  0.000  0.007  0.008
    6  0.001  0.000  0.008  0.010
    7  0.003  0.000  0.006  0.009
    8  0.002  0.000  0.008  0.010
    9  0.000  0.000  0.021  0.021
   10  0.000  0.000  0.013  0.013
   11  0.002  0.000  0.017  0.019
   12  0.001  0.000  0.025  0.026
   13  0.002  0.000  0.019  0.022
   14  0.000  0.000  0.048  0.048
   15  0.000  0.000  0.035  0.035
   16  0.001  0.000  0.026  0.027
   17  0.000  0.000  0.034  0.035
   18  0.000  0.000  0.033  0.033
   19  0.007  0.000  0.027  0.034
   20  0.000  0.001  0.009  0.009
   21  0.000  0.000  0.040  0.041
   22  0.010  0.000  0.039  0.049
   23  0.000  0.000  0.043  0.044
   24  0.000  0.000  0.075  0.075
   25  0.000  0.000  0.099  0.099
   26  0.006  0.000  0.033  0.039
   27  0.011  0.000  0.035  0.047
   28  0.000  0.000  0.004  0.005
   29  0.002  0.001  0.005  0.007
   30  0.000  0.000  0.010  0.010
   31  0.002  0.001  0.004  0.006
   32  0.001  0.000  0.004  0.005
   33  0.000  0.000  0.010  0.010
   34  0.001  0.000  0.005  0.006
   35  0.000  0.000  0.011  0.011
   36  0.000  0.000  0.002  0.002
   37  0.000  0.000  0.000  0.000
   38  0.000  0.000  0.000  0.000
tot    0.057  0.007  0.780  0.844
 
band    19 # energy   -5.21926738 # occ.  2.00000000
 
ion      s      p      d    tot
    1  0.000  0.000  0.002  0.002
    2  0.001  0.001  0.008  0.010
    3  0.000  0.000  0.007  0.007
    4  0.001  0.001  0.008  0.010
    5  0.000  0.001  0.013  0.014
    6  0.002  0.001  0.005  0.007
    7  0.000  0.000  0.007  0.007
    8  0.002  0.001  0.005  0.007
    9  0.000  0.001  0.011  0.011
   10  0.000  0.001  0.029  0.030
   11  0.001  0.000  0.063  0.064
   12  0.000  0.000  0.009  0.010
   13  0.001  0.000  0.063  0.064
   14  0.002  0.000  0.040  0.042
   15  0.000  0.000  0.029  0.029
   16  0.000  0.000  0.009  0.010
   17  0.000  0.000  0.029  0.029
   18  0.002  0.000  0.031  0.033
   19  0.000  0.000  0.006  0.006
   20  0.002  0.000  0.070  0.072
   21  0.000  0.000  0.085  0.085
   22  0.000  0.000  0.043  0.044
   23  0.000  0.000  0.085  0.085
   24  0.000  0.001  0.022  0.022
   25  0.000  0.001  0.024  0.025
   26  0.000  0.000  0.006  0.006
   27  0.000  0.000  0.043  0.044
   28  0.000  0.000  0.001  0.001
   29  0.000  0.000  0.007  0.007
   30  0.001  0.000  0.008  0.009
   31  0.000  0.000  0.007  0.007
   32  0.001  0.001  0.008  0.010
   33  0.001  0.000  0.008  0.009
   34  0.001  0.001  0.008  0.010
   35  0.000  0.000  0.001  0.002
   36  0.000  0.000  0.020  0.020
   37  0.000  0.016  0.000  0.016
   38  0.000  0.000  0.000  0.000
tot    0.018  0.028  0.822  0.869
 
band    20 # energy   -5.21925302 # occ.  2.00000000
 
ion      s      p      d    tot
    1  0.000  0.000  0.002  0.002
    2  0.001  0.000  0.005  0.006
    3  0.002  0.001  0.006  0.009
    4  0.001  0.000  0.005  0.006
    5  0.000  0.001  0.013  0.014
    6  0.000  0.000  0.009  0.009
    7  0.002  0.001  0.006  0.009
    8  0.000  0.000  0.009  0.009
    9  0.000  0.001  0.011  0.011
   10  0.000  0.000  0.003  0.003
   11  0.002  0.000  0.048  0.050
   12  0.000  0.001  0.022  0.023
   13  0.002  0.000  0.048  0.050
   14  0.000  0.000  0.071  0.071
   15  0.001  0.000  0.030  0.032
   16  0.000  0.001  0.022  0.023
   17  0.001  0.000  0.030  0.032
   18  0.000  0.000  0.028  0.028
   19  0.000  0.001  0.018  0.019
   20  0.000  0.000  0.090  0.090
   21  0.001  0.000  0.075  0.076
   22  0.000  0.000  0.029  0.029
   23  0.001  0.000  0.075  0.076
   24  0.000  0.000  0.051  0.051
   25  0.000  0.000  0.000  0.000
   26  0.000  0.001  0.018  0.019
   27  0.000  0.000  0.029  0.029
   28  0.000  0.000  0.001  0.001
   29  0.001  0.001  0.008  0.010
   30  0.000  0.000  0.008  0.008
   31  0.001  0.001  0.008  0.010
   32  0.000  0.000  0.007  0.008
   33  0.000  0.000  0.008  0.008
   34  0.000  0.000  0.007  0.008
   35  0.000  0.000  0.001  0.002
   36  0.000  0.000  0.020  0.020
   37  0.000  0.016  0.000  0.016
   38  0.000  0.000  0.000  0.000
tot    0.018  0.028  0.822  0.869
 
band    21 # energy   -5.20486387 # occ.  2.00000000
 
ion      s      p      d    tot
    1  0.001  0.000  0.000  0.001
    2  0.000  0.000  0.006  0.007
    3  0.000  0.000  0.006  0.007
    4  0.000  0.000  0.006  0.007
    5  0.000  0.000  0.013  0.014
    6  0.000  0.000  0.006  0.007
    7  0.000  0.000  0.006  0.007
    8  0.000  0.000  0.006  0.007
    9  0.002  0.001  0.006  0.009
   10  0.000  0.000  0.014  0.014
   11  0.000  0.001  0.073  0.074
   12  0.000  0.000  0.014  0.014
   13  0.000  0.001  0.073  0.074
   14  0.000  0.001  0.073  0.074
   15  0.000  0.001  0.039  0.040
   16  0.000  0.000  0.014  0.014