PROCAR new format
# of k-points:   10         # of bands:  240         # of ions:   38

 k-point     1 :    0.00000000 0.00000000 0.00000000     weight = 0.01562500

band     1 # energy  -19.82211449 # occ.  2.00000000
 
ion      s      p      d    tot
    1  0.000  0.000  0.000  0.000
    2  0.000  0.000  0.000  0.000
    3  0.000  0.000  0.000  0.000
    4  0.000  0.000  0.000  0.000
    5  0.000  0.000  0.000  0.000
    6  0.000  0.000  0.000  0.000
    7  0.000  0.000  0.000  0.000
    8  0.000  0.000  0.000  0.000
    9  0.000  0.000  0.000  0.000
   10  0.000  0.000  0.000  0.000
   11  0.000  0.000  0.000  0.000
   12  0.000  0.000  0.000  0.000
   13  0.000  0.000  0.000  0.000
   14  0.000  0.000  0.000  0.000
   15  0.000  0.000  0.000  0.000
   16  0.000  0.000  0.000  0.000
   17  0.000  0.000  0.000  0.000
   18  0.000  0.000  0.000  0.000
   19  0.000  0.000  0.000  0.000
   20  0.000  0.000  0.000  0.000
   21  0.000  0.000  0.000  0.000
   22  0.000  0.000  0.000  0.000
   23  0.000  0.000  0.000  0.000
   24  0.000  0.000  0.000  0.000
   25  0.000  0.000  0.000  0.000
   26  0.000  0.000  0.000  0.000
   27  0.000  0.000  0.000  0.000
   28  0.000  0.000  0.000  0.000
   29  0.000  0.000  0.000  0.000
   30  0.000  0.000  0.000  0.000
   31  0.000  0.000  0.000  0.000
   32  0.000  0.000  0.000  0.000
   33  0.000  0.000  0.000  0.000
   34  0.000  0.000  0.000  0.000
   35  0.000  0.000  0.000  0.000
   36  0.016  0.019  0.030  0.065
   37  0.743  0.018  0.000  0.761
   38  0.118  0.024  0.000  0.143
tot    0.878  0.061  0.030  0.969
 
band     2 # energy   -8.52757512 # occ.  2.00000000
 
ion      s      p      d    tot
    1  0.006  0.000  0.000  0.006
    2  0.006  0.000  0.000  0.006
    3  0.006  0.000  0.000  0.006
    4  0.006  0.000  0.000  0.006
    5  0.006  0.000  0.000  0.006
    6  0.006  0.000  0.000  0.006
    7  0.006  0.000  0.000  0.006
    8  0.006  0.000  0.000  0.006
    9  0.006  0.000  0.000  0.006
   10  0.024  0.000  0.000  0.024
   11  0.025  0.000  0.000  0.025
   12  0.024  0.000  0.000  0.024
   13  0.025  0.000  0.000  0.025
   14  0.025  0.000  0.000  0.025
   15  0.023  0.000  0.000  0.024
   16  0.024  0.000  0.000  0.024
   17  0.023  0.000  0.000  0.024
   18  0.023  0.000  0.000  0.024
   19  0.022  0.000  0.000  0.023
   20  0.028  0.000  0.000  0.028
   21  0.028  0.000  0.000  0.028
   22  0.023  0.000  0.000  0.023
   23  0.028  0.000  0.000  0.028
   24  0.023  0.000  0.000  0.023
   25  0.022  0.000  0.000  0.023
   26  0.022  0.000  0.000  0.023
   27  0.023  0.000  0.000  0.023
   28  0.005  0.000  0.000  0.005
   29  0.005  0.000  0.000  0.006
   30  0.005  0.000  0.000  0.006
   31  0.005  0.000  0.000  0.006
   32  0.005  0.000  0.000  0.006
   33  0.005  0.000  0.000  0.006
   34  0.005  0.000  0.000  0.006
   35  0.005  0.000  0.000  0.005
   36  0.019  0.000  0.008  0.027
   37  0.001  0.030  0.000  0.031
   38  0.010  0.001  0.000  0.011
tot    0.557  0.042  0.012  0.610
 
band     3 # energy   -8.06958450 # occ.  2.00000000
 
ion      s      p      d    tot
    1  0.001  0.000  0.000  0.001
    2  0.002  0.000  0.000  0.002
    3  0.002  0.000  0.000  0.002
    4  0.002  0.000  0.000  0.002
    5  0.002  0.000  0.000  0.002
    6  0.002  0.000  0.000  0.002
    7  0.002  0.000  0.000  0.002
    8  0.002  0.000  0.000  0.002
    9  0.002  0.000  0.000  0.002
   10  0.003  0.000  0.000  0.004
   11  0.003  0.000  0.000  0.004
   12  0.003  0.000  0.000  0.004
   13  0.003  0.000  0.000  0.004
   14  0.003  0.000  0.000  0.004
   15  0.004  0.000  0.000  0.004
   16  0.003  0.000  0.000  0.004
   17  0.004  0.000  0.000  0.004
   18  0.004  0.000  0.000  0.004
   19  0.001  0.000  0.000  0.001
   20  0.000  0.001  0.002  0.003
   21  0.000  0.001  0.002  0.003
   22  0.001  0.000  0.000  0.001
   23  0.000  0.001  0.002  0.003
   24  0.001  0.000  0.000  0.001
   25  0.001  0.000  0.000  0.001
   26  0.001  0.000  0.000  0.001
   27  0.001  0.000  0.000  0.001
   28  0.000  0.000  0.000  0.000
   29  0.000  0.000  0.001  0.001
   30  0.000  0.000  0.001  0.001
   31  0.000  0.000  0.001  0.001
   32  0.000  0.000  0.001  0.001
   33  0.000  0.000  0.001  0.001
   34  0.000  0.000  0.001  0.001
   35  0.000  0.000  0.000  0.000
   36  0.071  0.057  0.137  0.264
   37  0.028  0.481  0.000  0.509
   38  0.160  0.016  0.000  0.177
tot    0.313  0.558  0.147  1.019
 
band     4 # energy   -7.29524574 # occ.  2.00000000
 
ion      s      p      d    tot
    1  0.017  0.000  0.001  0.018
    2  0.016  0.000  0.001  0.018
    3  0.016  0.000  0.001  0.018
    4  0.016  0.000  0.001  0.018
    5  0.016  0.000  0.001  0.018
    6  0.016  0.000  0.001  0.018
    7  0.016  0.000  0.001  0.018
    8  0.016  0.000  0.001  0.018
    9  0.016  0.000  0.001  0.018
   10  0.010  0.001  0.002  0.014
   11  0.009  0.002  0.003  0.013
   12  0.010  0.001  0.002  0.014
   13  0.009  0.002  0.003  0.013
   14  0.009  0.002  0.003  0.013
   15  0.009  0.002  0.002  0.013
   16  0.010  0.001  0.002  0.014
   17  0.009  0.002  0.002  0.013
   18  0.009  0.002  0.002  0.013
   19  0.014  0.001  0.004  0.019
   20  0.014  0.001  0.005  0.020
   21  0.014  0.001  0.005  0.020
   22  0.016  0.001  0.004  0.020
   23  0.014  0.001  0.005  0.020
   24  0.016  0.001  0.004  0.020
   25  0.014  0.001  0.004  0.019
   26  0.014  0.001  0.004  0.019
   27  0.016  0.001  0.004  0.020
   28  0.014  0.000  0.000  0.015
   29  0.013  0.001  0.001  0.014
   30  0.013  0.001  0.001  0.014
   31  0.013  0.001  0.001  0.014
   32  0.013  0.001  0.001  0.014
   33  0.013  0.001  0.001  0.014
   34  0.013  0.001  0.001  0.014
   35  0.014  0.001  0.000  0.015
   36  0.002  0.007  0.010  0.019
   37  0.002  0.018  0.000  0.020
   38  0.006  0.000  0.000  0.006
tot    0.478  0.056  0.082  0.616
 
band     5 # energy   -6.38465427 # occ.  2.00000000
 
ion      s      p      d    tot
    1  0.003  0.000  0.014  0.018
    2  0.010  0.000  0.011  0.021
    3  0.010  0.000  0.011  0.021
    4  0.010  0.000  0.011  0.021
    5  0.005  0.000  0.008  0.014
    6  0.010  0.000  0.011  0.021
    7  0.010  0.000  0.011  0.021
    8  0.010  0.000  0.011  0.021
    9  0.031  0.001  0.005  0.037
   10  0.012  0.001  0.015  0.028
   11  0.013  0.002  0.010  0.025
   12  0.012  0.001  0.015  0.028
   13  0.013  0.002  0.010  0.024
   14  0.013  0.002  0.010  0.024
   15  0.004  0.001  0.015  0.019
   16  0.012  0.001  0.015  0.028
   17  0.004  0.001  0.015  0.019
   18  0.004  0.001  0.015  0.019
   19  0.000  0.001  0.012  0.013
   20  0.017  0.002  0.011  0.030
   21  0.017  0.002  0.011  0.030
   22  0.006  0.001  0.003  0.010
   23  0.017  0.002  0.011  0.030
   24  0.006  0.001  0.003  0.010
   25  0.000  0.001  0.013  0.013
   26  0.000  0.001  0.012  0.013
   27  0.006  0.001  0.003  0.010
   28  0.010  0.000  0.002  0.012
   29  0.007  0.000  0.007  0.014
   30  0.007  0.000  0.007  0.014
   31  0.007  0.000  0.007  0.014
   32  0.007  0.000  0.007  0.014
   33  0.007  0.000  0.007  0.014
   34  0.007  0.000  0.007  0.014
   35  0.018  0.000  0.003  0.021
   36  0.000  0.004  0.003  0.006
   37  0.000  0.001  0.000  0.001
   38  0.000  0.000  0.000  0.000
tot    0.323  0.032  0.336  0.691
 
band     6 # energy   -6.36833253 # occ.  2.00000000
 
ion      s      p      d    tot
    1  0.000  0.000  0.008  0.008
    2  0.004  0.001  0.003  0.008
    3  0.006  0.001  0.003  0.010
    4  0.004  0.001  0.003  0.008
    5  0.000  0.001  0.007  0.008
    6  0.000  0.000  0.003  0.003
    7  0.006  0.001  0.003  0.010
    8  0.000  0.000  0.003  0.003
    9  0.000  0.000  0.001  0.001
   10  0.000  0.000  0.034  0.034
   11  0.038  0.001  0.014  0.054
   12  0.025  0.002  0.012  0.038
   13  0.039  0.001  0.014  0.054
   14  0.000  0.003  0.025  0.028
   15  0.001  0.001  0.010  0.013
   16  0.025  0.002  0.012  0.038
   17  0.001  0.001  0.010  0.013
   18  0.000  0.003  0.004  0.007
   19  0.007  0.001  0.011  0.019
   20  0.000  0.002  0.038  0.040
   21  0.047  0.002  0.017  0.065
   22  0.014  0.001  0.011  0.026
   23  0.047  0.002  0.017  0.065
   24  0.000  0.000  0.029  0.029
   25  0.000  0.004  0.003  0.007
   26  0.007  0.001  0.011  0.019
   27  0.014  0.001  0.011  0.026
   28  0.000  0.000  0.001  0.002
   29  0.000  0.000  0.002  0.003
   30  0.005  0.001  0.003  0.009
   31  0.000  0.000  0.002  0.003
   32  0.005  0.001  0.004  0.010
   33  0.005  0.001  0.003  0.009
   34  0.005  0.001  0.004  0.010
   35  0.000  0.000  0.005  0.005
   36  0.000  0.003  0.004  0.008
   37  0.000  0.000  0.000  0.000
   38  0.000  0.000  0.000  0.000
tot    0.306  0.044  0.344  0.694
 
band     7 # energy   -6.36830694 # occ.  2.00000000
 
ion      s      p      d    tot
    1  0.000  0.000  0.008  0.008
    2  0.003  0.001  0.003  0.006
    3  0.001  0.000  0.003  0.004
    4  0.003  0.001  0.002  0.006
    5  0.000  0.001  0.007  0.008
    6  0.007  0.001  0.003  0.011
    7  0.001  0.000  0.003  0.004
    8  0.007  0.001  0.003  0.011
    9  0.000  0.000  0.001  0.001
   10  0.033  0.002  0.004  0.040
   11  0.013  0.003  0.021  0.037
   12  0.008  0.001  0.027  0.036
   13  0.013  0.003  0.021  0.037
   14  0.051  0.001  0.011  0.063
   15  0.000  0.003  0.006  0.009
   16  0.009  0.001  0.027  0.036
   17  0.000  0.003  0.006  0.009
   18  0.002  0.000  0.012  0.014
   19  0.002  0.003  0.005  0.011
   20  0.063  0.001  0.010  0.074
   21  0.015  0.002  0.031  0.048
   22  0.005  0.001  0.023  0.028
   23  0.016  0.002  0.031  0.049
   24  0.019  0.002  0.005  0.025
   25  0.009  0.000  0.014  0.023
   26  0.002  0.003  0.005  0.011
   27  0.005  0.001  0.023  0.028
   28  0.000  0.000  0.001  0.002
   29  0.007  0.001  0.004  0.012
   30  0.001  0.001  0.003  0.005
   31  0.007  0.001  0.004  0.012
   32  0.002  0.000  0.002  0.005
   33  0.001  0.001  0.003  0.005
   34  0.002  0.000  0.002  0.005
   35  0.000  0.000  0.005  0.005
   36  0.000  0.003  0.004  0.008
   37  0.000  0.000  0.000  0.000
   38  0.000  0.000  0.000  0.000
tot    0.306  0.044  0.344  0.694
 
band     8 # energy   -6.35738523 # occ.  2.00000000
 
ion      s      p      d    tot
    1  0.022  0.000  0.008  0.030
    2  0.011  0.000  0.014  0.025
    3  0.011  0.000  0.014  0.025
    4  0.011  0.000  0.014  0.025
    5  0.016  0.000  0.013  0.029
    6  0.011  0.000  0.014  0.025
    7  0.011  0.000  0.014  0.025
    8  0.011  0.000  0.014  0.025
    9  0.002  0.001  0.016  0.019
   10  0.001  0.000  0.032  0.033
   11  0.001  0.001  0.023  0.025
   12  0.001  0.000  0.032  0.033
   13  0.001  0.001  0.023  0.025
   14  0.001  0.001  0.023  0.025
   15  0.028  0.001  0.014  0.043
   16  0.001  0.000  0.032  0.033
   17  0.028  0.001  0.014  0.043
   18  0.028  0.001  0.014  0.043
   19  0.001  0.000  0.016  0.017
   20  0.015  0.000  0.014  0.029
   21  0.015  0.000  0.014  0.029
   22  0.002  0.001  0.010  0.013
   23  0.015  0.000  0.014  0.029
   24  0.002  0.001  0.010  0.013
   25  0.001  0.000  0.016  0.017
   26  0.001  0.000  0.016  0.017
   27  0.002  0.001  0.010  0.013
   28  0.001  0.000  0.000  0.001
   29  0.000  0.000  0.002  0.003
   30  0.000  0.000  0.002  0.003
   31  0.000  0.000  0.002  0.003
   32  0.000  0.000  0.002  0.003
   33  0.000  0.000  0.002  0.003
   34  0.000  0.000  0.002  0.003
   35  0.004  0.000  0.000  0.004
   36  0.001  0.004  0.000  0.005
   37  0.000  0.002  0.000  0.002
   38  0.001  0.000  0.000  0.001
tot    0.257  0.021  0.457  0.735
 
band     9 # energy   -6.33699267 # occ.  2.00000000
 
ion      s      p      d    tot
    1  0.009  0.001  0.000  0.011
    2  0.000  0.001  0.006  0.006
    3  0.000  0.001  0.006  0.006
    4  0.000  0.001  0.006  0.006
    5  0.014  0.002  0.001  0.017
    6  0.000  0.001  0.006  0.006
    7  0.000  0.001  0.006  0.006
    8  0.000  0.001  0.006  0.006
    9  0.000  0.000  0.001  0.001
   10  0.023  0.003  0.002  0.029
   11  0.023  0.001  0.021  0.044
   12  0.023  0.003  0.002  0.029
   13  0.023  0.001  0.021  0.044
   14  0.023  0.001  0.021  0.044
   15  0.000  0.001  0.023  0.024
   16  0.023  0.003  0.002  0.029
   17  0.000  0.001  0.023  0.024
   18  0.000  0.001  0.023  0.024
   19  0.027  0.002  0.004  0.034
   20  0.005  0.002  0.020  0.027
   21  0.005  0.002  0.020  0.027
   22  0.009  0.000  0.026  0.035
   23  0.005  0.002  0.020  0.027
   24  0.009  0.000  0.026  0.035
   25  0.027  0.002  0.004  0.034
   26  0.027  0.002  0.004  0.034
   27  0.009  0.000  0.026  0.035
   28  0.012  0.001  0.001  0.014
   29  0.000  0.000  0.004  0.005
   30  0.000  0.000  0.004  0.005
   31  0.000  0.000  0.004  0.005
   32  0.000  0.000  0.004  0.005
   33  0.000  0.000  0.004  0.005
   34  0.000  0.000  0.004  0.005
   35  0.004  0.001  0.002  0.007
   36  0.000  0.000  0.000  0.000
   37  0.000  0.000  0.000  0.000
   38  0.000  0.000  0.000  0.000
tot    0.299  0.040  0.355  0.695
 
band    10 # energy   -6.30745396 # occ.  2.00000000
 
ion      s      p      d    tot
    1  0.000  0.001  0.004  0.004
    2  0.005  0.001  0.004  0.010
    3  0.008  0.001  0.004  0.012
    4  0.005  0.001  0.004  0.010
    5  0.000  0.000  0.004  0.004
    6  0.000  0.000  0.003  0.004
    7  0.008  0.001  0.004  0.013
    8  0.000  0.000  0.003  0.004
    9  0.000  0.001  0.011  0.012
   10  0.028  0.000  0.017  0.044
   11  0.002  0.001  0.019  0.022
   12  0.007  0.004  0.008  0.018
   13  0.002  0.001  0.019  0.023
   14  0.007  0.001  0.008  0.016
   15  0.016  0.001  0.033  0.050
   16  0.007  0.003  0.008  0.019
   17  0.015  0.001  0.034  0.050
   18  0.062  0.002  0.005  0.068
   19  0.011  0.001  0.028  0.040
   20  0.001  0.001  0.013  0.015
   21  0.000  0.002  0.013  0.015
   22  0.008  0.003  0.014  0.025
   23  0.000  0.002  0.013  0.015
   24  0.034  0.001  0.012  0.047
   25  0.042  0.002  0.003  0.047
   26  0.010  0.001  0.029  0.040
   27  0.009  0.003  0.014  0.026
   28  0.000  0.000  0.007  0.007
   29  0.000  0.000  0.002  0.002
   30  0.003  0.001  0.002  0.005
   31  0.000  0.000  0.002  0.002
   32  0.004  0.001  0.003  0.008
   33  0.002  0.001  0.002  0.005
   34  0.004  0.001  0.003  0.007
   35  0.000  0.001  0.004  0.004
   36  0.000  0.000  0.001  0.001
   37  0.000  0.000  0.000  0.000
   38  0.000  0.000  0.000  0.000
tot    0.298  0.041  0.354  0.693
 
band    11 # energy   -6.30742800 # occ.  2.00000000
 
ion      s      p      d    tot
    1  0.000  0.001  0.004  0.004
    2  0.004  0.001  0.003  0.008
    3  0.001  0.000  0.004  0.005
    4  0.004  0.001  0.003  0.008
    5  0.000  0.000  0.004  0.004
    6  0.008  0.001  0.004  0.013
    7  0.001  0.000  0.004  0.005
    8  0.008  0.001  0.004  0.014
    9  0.000  0.001  0.011  0.012
   10  0.000  0.005  0.005  0.009
   11  0.005  0.001  0.012  0.018
   12  0.021  0.001  0.014  0.036
   13  0.005  0.001  0.012  0.018
   14  0.000  0.002  0.023  0.025
   15  0.046  0.001  0.015  0.062
   16  0.020  0.001  0.014  0.035
   17  0.047  0.001  0.014  0.062
   18  0.000  0.001  0.043  0.044
   19  0.031  0.002  0.012  0.045
   20  0.000  0.002  0.013  0.015
   21  0.001  0.001  0.013  0.015
   22  0.026  0.001  0.013  0.040
   23  0.001  0.001  0.013  0.015
   24  0.000  0.004  0.015  0.019
   25  0.000  0.000  0.037  0.037
   26  0.032  0.002  0.011  0.045
   27  0.025  0.001  0.013  0.039
   28  0.000  0.000  0.007  0.007
   29  0.004  0.001  0.002  0.007
   30  0.002  0.000  0.002  0.005
   31  0.004  0.001  0.002  0.008
   32  0.000  0.000  0.002  0.002
   33  0.002  0.000  0.002  0.005
   34  0.000  0.000  0.002  0.002
   35  0.000  0.001  0.004  0.004
   36  0.000  0.000  0.001  0.001
   37  0.000  0.000  0.000  0.000
   38  0.000  0.000  0.000  0.000
tot    0.298  0.041  0.354  0.693
 
band    12 # energy   -6.27156077 # occ.  2.00000000
 
ion      s      p      d    tot
    1  0.003  0.000  0.000  0.003
    2  0.000  0.000  0.002  0.002
    3  0.000  0.000  0.002  0.002
    4  0.000  0.000  0.002  0.002
    5  0.002  0.000  0.000  0.003
    6  0.000  0.000  0.002  0.002
    7  0.000  0.000  0.002  0.002
    8  0.000  0.000  0.002  0.002
    9  0.003  0.001  0.001  0.004
   10  0.002  0.000  0.010  0.012
   11  0.004  0.001  0.004  0.008
   12  0.002  0.000  0.010  0.012
   13  0.004  0.001  0.004  0.008
   14  0.004  0.001  0.004  0.008
   15  0.008  0.001  0.006  0.015
   16  0.002  0.000  0.010  0.012
   17  0.008  0.001  0.006  0.015
   18  0.008  0.001  0.006  0.015
   19  0.004  0.001  0.017  0.022
   20  0.000  0.000  0.033  0.033
   21  0.000  0.000  0.033  0.033
   22  0.016  0.002  0.017  0.034
   23  0.000  0.000  0.033  0.033
   24  0.016  0.002  0.017  0.034
   25  0.004  0.001  0.017  0.022
   26  0.004  0.001  0.017  0.022
   27  0.016  0.002  0.017  0.034
   28  0.019  0.000  0.020  0.039
   29  0.021  0.000  0.017  0.038
   30  0.021  0.000  0.017  0.038
   31  0.021  0.000  0.017  0.038
   32  0.021  0.000  0.017  0.038
   33  0.021  0.000  0.017  0.038
   34  0.021  0.000  0.017  0.038
   35  0.016  0.000  0.019  0.035
   36  0.011  0.001  0.013  0.024
   37  0.001  0.002  0.000  0.003
   38  0.001  0.000  0.000  0.001
tot    0.281  0.020  0.424  0.726
 
band    13 # energy   -5.89183770 # occ.  2.00000000
 
ion      s      p      d    tot
    1  0.000  0.001  0.004  0.005
    2  0.001  0.001  0.005  0.006
    3  0.009  0.001  0.004  0.015
    4  0.001  0.001  0.005  0.006
    5  0.000  0.001  0.010  0.012
    6  0.005  0.001  0.004  0.009
    7  0.009  0.001  0.004  0.015
    8  0.005  0.001  0.004  0.009
    9  0.000  0.000  0.008  0.008
   10  0.000  0.001  0.052  0.053
   11  0.017  0.001  0.020  0.038
   12  0.008  0.001  0.018  0.028
   13  0.017  0.001  0.020  0.038
   14  0.000  0.000  0.046  0.046
   15  0.001  0.000  0.019  0.021
   16  0.008  0.001  0.019  0.028
   17  0.001  0.000  0.019  0.021
   18  0.000  0.002  0.011  0.012
   19  0.005  0.000  0.019  0.024
   20  0.000  0.000  0.081  0.081
   21  0.016  0.001  0.025  0.041
   22  0.002  0.001  0.019  0.022
   23  0.015  0.001  0.025  0.042
   24  0.000  0.001  0.029  0.030
   25  0.000  0.001  0.013  0.014
   26  0.005  0.000  0.019  0.024
   27  0.002  0.001  0.019  0.022
   28  0.000  0.000  0.009  0.009
   29  0.002  0.001  0.005  0.008
   30  0.010  0.001  0.004  0.015
   31  0.003  0.001  0.005  0.008
   32  0.002  0.001  0.004  0.007
   33  0.010  0.001  0.004  0.015
   34  0.002  0.001  0.004  0.007
   35  0.000  0.000  0.003  0.004
   36  0.000  0.004  0.003  0.007
   37  0.000  0.000  0.000  0.000
   38  0.000  0.000  0.000  0.000
tot    0.157  0.032  0.560  0.750
 
band    14 # energy   -5.89183371 # occ.  2.00000000
 
ion      s      p      d    tot
    1  0.000  0.001  0.004  0.005
    2  0.009  0.001  0.004  0.014
    3  0.001  0.000  0.004  0.005
    4  0.009  0.001  0.004  0.014
    5  0.000  0.001  0.010  0.012
    6  0.004  0.001  0.005  0.010
    7  0.001  0.000  0.004  0.005
    8  0.005  0.001  0.005  0.010
    9  0.000  0.000  0.008  0.008
   10  0.011  0.002  0.007  0.020
   11  0.006  0.000  0.037  0.043
   12  0.003  0.001  0.041  0.045
   13  0.006  0.000  0.037  0.043
   14  0.022  0.001  0.012  0.035
   15  0.000  0.001  0.013  0.015
   16  0.003  0.001  0.041  0.045
   17  0.000  0.001  0.013  0.015
   18  0.002  0.000  0.022  0.024
   19  0.002  0.001  0.015  0.017
   20  0.021  0.002  0.006  0.028
   21  0.005  0.000  0.063  0.068
   22  0.001  0.001  0.026  0.027
   23  0.005  0.000  0.062  0.068
   24  0.003  0.001  0.015  0.019
   25  0.007  0.000  0.021  0.028
   26  0.002  0.001  0.015  0.017
   27  0.001  0.001  0.025  0.027
   28  0.000  0.000  0.009  0.009
   29  0.007  0.001  0.004  0.012
   30  0.000  0.000  0.004  0.005
   31  0.007  0.001  0.004  0.012
   32  0.007  0.001  0.005  0.013
   33  0.000  0.000  0.004  0.005
   34  0.007  0.001  0.005  0.013
   35  0.000  0.000  0.003  0.004
   36  0.000  0.004  0.003  0.007
   37  0.000  0.000  0.000  0.000
   38  0.000  0.000  0.000  0.000
tot    0.157  0.032  0.560  0.750
 
band    15 # energy   -5.89034511 # occ.  2.00000000
 
ion      s      p      d    tot
    1  0.013  0.002  0.002  0.018
    2  0.000  0.001  0.008  0.009
    3  0.000  0.001  0.008  0.008
    4  0.000  0.001  0.008  0.008
    5  0.000  0.000  0.002  0.002
    6  0.000  0.001  0.008  0.009
    7  0.000  0.001  0.008  0.008
    8  0.000  0.001  0.008  0.009
    9  0.017  0.001  0.000  0.018
   10  0.011  0.001  0.015  0.027
   11  0.002  0.000  0.045  0.047
   12  0.011  0.001  0.015  0.026
   13  0.002  0.000  0.045  0.047
   14  0.002  0.000  0.044  0.047
   15  0.004  0.001  0.020  0.025
   16  0.011  0.001  0.015  0.027
   17  0.004  0.001  0.020  0.025
   18  0.004  0.001  0.019  0.024
   19  0.003  0.001  0.014  0.018
   20  0.001  0.000  0.055  0.057
   21  0.001  0.000  0.056  0.057
   22  0.011  0.001  0.017  0.028
   23  0.001  0.000  0.056  0.057
   24  0.011  0.001  0.017  0.029
   25  0.003  0.001  0.014  0.018
   26  0.003  0.001  0.014  0.018
   27  0.011  0.001  0.017  0.028
   28  0.012  0.001  0.000  0.013
   29  0.000  0.000  0.006  0.006
   30  0.000  0.000  0.006  0.006
   31  0.000  0.000  0.006  0.006
   32  0.000  0.000  0.006  0.006
   33  0.000  0.000  0.006  0.006
   34  0.000  0.000  0.006  0.006
   35  0.007  0.001  0.002  0.011
   36  0.000  0.000  0.001  0.001
   37  0.000  0.000  0.000  0.000
   38  0.000  0.000  0.000  0.000
tot    0.146  0.027  0.583  0.756
 
band    16 # energy   -5.82390819 # occ.  2.00000000
 
ion      s      p      d    tot
    1  0.009  0.000  0.001  0.011
    2  0.000  0.001  0.009  0.009
    3  0.000  0.001  0.009  0.009
    4  0.000  0.001  0.009  0.009
    5  0.018  0.002  0.001  0.021
    6  0.000  0.001  0.009  0.009
    7  0.000  0.001  0.009  0.009
    8  0.000  0.001  0.009  0.009
    9  0.002  0.000  0.002  0.004
   10  0.000  0.000  0.041  0.042
   11  0.007  0.002  0.009  0.018
   12  0.000  0.000  0.042  0.042
   13  0.007  0.002  0.009  0.018
   14  0.007  0.002  0.009  0.018
   15  0.006  0.001  0.028  0.035
   16  0.000  0.000  0.042  0.042
   17  0.006  0.001  0.028  0.035
   18  0.006  0.001  0.028  0.036
   19  0.011  0.001  0.040  0.052
   20  0.009  0.002  0.007  0.018
   21  0.009  0.002  0.007  0.018
   22  0.000  0.000  0.037  0.038
   23  0.009  0.002  0.007  0.018
   24  0.000  0.000  0.037  0.037
   25  0.011  0.001  0.041  0.052
   26  0.011  0.001  0.040  0.052
   27  0.000  0.000  0.037  0.038
   28  0.001  0.001  0.007  0.008
   29  0.000  0.000  0.006  0.006
   30  0.000  0.000  0.006  0.006
   31  0.000  0.000  0.006  0.006
   32  0.000  0.000  0.006  0.006
   33  0.000  0.000  0.006  0.006
   34  0.000  0.000  0.006  0.006
   35  0.001  0.000  0.000  0.002
   36  0.009  0.008  0.000  0.017
   37  0.000  0.002  0.000  0.003
   38  0.001  0.000  0.000  0.001
tot    0.144  0.035  0.589  0.768
 
band    17 # energy   -5.81925881 # occ.  2.00000000
 
ion      s      p      d    tot
    1  0.000  0.001  0.014  0.015
    2  0.010  0.001  0.005  0.016
    3  0.002  0.000  0.005  0.007
    4  0.010  0.001  0.005  0.016
    5  0.000  0.000  0.005  0.005
    6  0.003  0.001  0.005  0.010
    7  0.002  0.000  0.005  0.007
    8  0.003  0.001  0.005  0.010
    9  0.000  0.001  0.007  0.009
   10  0.000  0.001  0.027  0.028
   11  0.001  0.001  0.020  0.022
   12  0.007  0.000  0.022  0.029
   13  0.001  0.001  0.020  0.022
   14  0.000  0.001  0.020  0.021
   15  0.011  0.002  0.021  0.034
   16  0.007  0.000  0.022  0.029
   17  0.011  0.002  0.020  0.033
   18  0.000  0.000  0.064  0.064
   19  0.012  0.001  0.020  0.033
   20  0.000  0.002  0.020  0.021
   21  0.000  0.001  0.024  0.025
   22  0.018  0.001  0.020  0.039
   23  0.000  0.001  0.024  0.025
   24  0.000  0.000  0.034  0.034
   25  0.000  0.000  0.065  0.066
   26  0.012  0.001  0.019  0.033
   27  0.017  0.001  0.020  0.039
   28  0.000  0.001  0.005  0.005
   29  0.006  0.001  0.004  0.010
   30  0.000  0.000  0.005  0.005
   31  0.006  0.001  0.004  0.010
   32  0.004  0.001  0.002  0.007
   33  0.000  0.000  0.005  0.005
   34  0.004  0.001  0.002  0.007
   35  0.000  0.001  0.008  0.009
   36  0.000  0.000  0.001  0.001
   37  0.000  0.000  0.000  0.000
   38  0.000  0.000  0.000  0.000
tot    0.148  0.028  0.574  0.751
 
band    18 # energy   -5.81924399 # occ.  2.00000000
 
ion      s      p      d    tot
    1  0.000  0.001  0.014  0.015
    2  0.000  0.000  0.005  0.006
    3  0.008  0.001  0.005  0.015
    4  0.000  0.000  0.005  0.006
    5  0.000  0.000  0.005  0.005
    6  0.007  0.001  0.005  0.012
    7  0.008  0.001  0.005  0.014
    8  0.007  0.001  0.005  0.012
    9  0.000  0.001  0.007  0.009
   10  0.009  0.000  0.021  0.030
   11  0.000  0.001  0.020  0.021
   12  0.002  0.001  0.026  0.028
   13  0.000  0.001  0.020  0.021
   14  0.001  0.001  0.019  0.022
   15  0.004  0.001  0.049  0.054
   16  0.002  0.001  0.026  0.028
   17  0.004  0.001  0.049  0.054
   18  0.015  0.002  0.006  0.023
   19  0.004  0.001  0.050  0.055
   20  0.000  0.000  0.025  0.026
   21  0.000  0.001  0.021  0.022
   22  0.006  0.000  0.029  0.036
   23  0.000  0.001  0.021  0.022
   24  0.023  0.001  0.016  0.040
   25  0.016  0.001  0.004  0.022
   26  0.004  0.001  0.050  0.055
   27  0.006  0.000  0.029  0.036
   28  0.000  0.001  0.005  0.005
   29  0.001  0.000  0.003  0.004
   30  0.006  0.001  0.002  0.010
   31  0.001  0.000  0.003  0.004
   32  0.003  0.001  0.005  0.008
   33  0.006  0.001  0.002  0.010
   34  0.003  0.001  0.005  0.008
   35  0.000  0.001  0.008  0.009
   36  0.000  0.000  0.001  0.001
   37  0.000  0.000  0.000  0.000
   38  0.000  0.000  0.000  0.000
tot    0.148  0.028  0.574  0.751
 
band    19 # energy   -5.50854905 # occ.  2.00000000
 
ion      s      p      d    tot
    1  0.000  0.000  0.014  0.014
    2  0.007  0.000  0.011  0.018
    3  0.003  0.001  0.007  0.011
    4  0.007  0.000  0.011  0.018
    5  0.000  0.000  0.024  0.024
    6  0.001  0.000  0.011  0.012
    7  0.003  0.001  0.007  0.010
    8  0.001  0.000  0.011  0.012
    9  0.000  0.001  0.004  0.005
   10  0.000  0.000  0.009  0.010
   11  0.000  0.000  0.046  0.046
   12  0.000  0.000  0.014  0.014
   13  0.000  0.000  0.046  0.046
   14  0.000  0.000  0.045  0.046
   15  0.000  0.000  0.027  0.028
   16  0.000  0.000  0.014  0.014
   17  0.000  0.000  0.027  0.027
   18  0.000  0.000  0.011  0.011
   19  0.000  0.000  0.012  0.013
   20  0.000  0.000  0.044  0.044
   21  0.001  0.000  0.062  0.063
   22  0.000  0.000  0.029  0.030
   23  0.001  0.000  0.063  0.064
   24  0.000  0.000  0.033  0.033
   25  0.000  0.000  0.010  0.010
   26  0.000  0.000  0.012  0.013
   27  0.000  0.001  0.029  0.030
   28  0.000  0.001  0.014  0.014
   29  0.003  0.001  0.007  0.011
   30  0.013  0.001  0.011  0.026
   31  0.003  0.001  0.008  0.011
   32  0.004  0.001  0.016  0.020
   33  0.014  0.001  0.012  0.026
   34  0.004  0.001  0.016  0.021
   35  0.000  0.000  0.025  0.025
   36  0.000  0.005  0.002  0.007
   37  0.000  0.001  0.000  0.001
   38  0.000  0.000  0.000  0.000
tot    0.066  0.019  0.742  0.827
 
band    20 # energy   -5.50854735 # occ.  2.00000000
 
ion      s      p      d    tot
    1  0.000  0.000  0.014  0.014
    2  0.000  0.000  0.009  0.009
    3  0.004  0.000  0.012  0.017
    4  0.000  0.000  0.008  0.009
    5  0.000  0.000  0.024  0.024
    6  0.006  0.000  0.008  0.015
    7  0.004  0.000  0.012  0.017
    8  0.006  0.000  0.008  0.015
    9  0.000  0.001  0.004  0.005
   10  0.000  0.000  0.015  0.016
   11  0.000  0.000  0.045  0.046
   12  0.000  0.000  0.011  0.011
   13  0.000  0.000  0.045  0.046
   14  0.000  0.000  0.046  0.046
   15  0.000  0.000  0.016  0.016
   16  0.000  0.000  0.011  0.011
   17  0.000  0.000  0.017  0.017
   18  0.000  0.000  0.032  0.033
   19  0.000  0.000  0.011  0.011
   20  0.001  0.000  0.069  0.070
   21  0.000  0.000  0.050  0.051
   22  0.000  0.000  0.031  0.032
   23  0.000  0.000  0.050  0.050
   24  0.000  0.001  0.028  0.029
   25  0.000  0.000  0.013  0.014
   26  0.000  0.000  0.011  0.011
   27  0.000  0.000  0.031  0.032
   28  0.000  0.001  0.014  0.014
   29  0.011  0.001  0.016  0.027
   30  0.000  0.001  0.012  0.012
   31  0.011  0.001  0.016  0.027
   32  0.010  0.001  0.007  0.018
   33  0.000  0.001  0.011  0.012
   34  0.009  0.001  0.007  0.017
   35  0.000  0.000  0.024  0.025
   36  0.000  0.005  0.002  0.007
   37  0.000  0.001  0.000  0.001
   38  0.000  0.000  0.000  0.000
tot    0.066  0.019  0.742  0.827
 
band    21 # energy   -5.49353659 # occ.  2.00000000
 
ion      s      p      d    tot
    1  0.011  0.000  0.004  0.016
    2  0.000  0.001  0.010  0.010
    3  0.000  0.001  0.010  0.010
    4  0.000  0.001  0.010  0.010
    5  0.000  0.000  0.011  0.012
    6  0.000  0.001  0.010  0.010
    7  0.000  0.001  0.010  0.010
    8  0.000  0.001  0.010  0.010
    9  0.008  0.001  0.001  0.010
   10  0.000  0.000  0.024  0.024
   11  0.000  0.000  0.043  0.044
   12  0.000  0.000  0.024  0.024
   13  0.000  0.000  0.043  0.044
   14  0.000  0.000  0.043  0.044
   15  0.000  0.000  0.028  0.029
   16  0.000  0.000  0.024  0.024