PROCAR new format
# of k-points:   10         # of bands:  252         # of ions:   37

 k-point     1 :    0.00000000 0.00000000 0.00000000     weight = 0.01562500

band     1 # energy  -14.08365575 # occ.  2.00000000
 
ion      s      p      d    tot
    1  0.000  0.000  0.000  0.000
    2  0.000  0.000  0.000  0.000
    3  0.000  0.000  0.000  0.000
    4  0.000  0.000  0.000  0.000
    5  0.000  0.000  0.000  0.000
    6  0.000  0.000  0.000  0.000
    7  0.000  0.000  0.000  0.000
    8  0.000  0.000  0.000  0.000
    9  0.000  0.000  0.000  0.000
   10  0.000  0.000  0.000  0.000
   11  0.000  0.000  0.000  0.000
   12  0.000  0.000  0.000  0.000
   13  0.000  0.000  0.000  0.000
   14  0.000  0.000  0.000  0.000
   15  0.000  0.000  0.000  0.000
   16  0.000  0.000  0.000  0.000
   17  0.000  0.000  0.000  0.000
   18  0.000  0.000  0.000  0.000
   19  0.000  0.000  0.000  0.000
   20  0.000  0.000  0.000  0.001
   21  0.000  0.000  0.000  0.001
   22  0.000  0.000  0.000  0.000
   23  0.000  0.000  0.000  0.001
   24  0.000  0.000  0.000  0.000
   25  0.000  0.000  0.000  0.000
   26  0.000  0.000  0.000  0.000
   27  0.000  0.000  0.000  0.000
   28  0.000  0.000  0.000  0.000
   29  0.000  0.000  0.000  0.000
   30  0.000  0.000  0.000  0.000
   31  0.000  0.000  0.000  0.000
   32  0.000  0.000  0.000  0.000
   33  0.000  0.000  0.000  0.000
   34  0.000  0.000  0.000  0.000
   35  0.000  0.000  0.000  0.000
   36  0.086  0.088  0.217  0.392
   37  0.622  0.023  0.000  0.645
tot    0.710  0.112  0.218  1.040
 
band     2 # energy   -8.64643994 # occ.  2.00000000
 
ion      s      p      d    tot
    1  0.007  0.001  0.000  0.008
    2  0.007  0.001  0.000  0.008
    3  0.007  0.001  0.000  0.008
    4  0.007  0.001  0.000  0.008
    5  0.007  0.001  0.000  0.008
    6  0.007  0.001  0.000  0.008
    7  0.007  0.001  0.000  0.008
    8  0.007  0.001  0.000  0.008
    9  0.007  0.001  0.000  0.008
   10  0.025  0.000  0.000  0.025
   11  0.025  0.000  0.000  0.025
   12  0.025  0.000  0.000  0.025
   13  0.025  0.000  0.000  0.025
   14  0.025  0.000  0.000  0.025
   15  0.025  0.000  0.000  0.025
   16  0.025  0.000  0.000  0.025
   17  0.025  0.000  0.000  0.025
   18  0.025  0.000  0.000  0.025
   19  0.025  0.000  0.000  0.025
   20  0.025  0.000  0.000  0.025
   21  0.025  0.000  0.000  0.025
   22  0.024  0.000  0.000  0.025
   23  0.025  0.000  0.000  0.025
   24  0.024  0.000  0.000  0.025
   25  0.025  0.000  0.000  0.025
   26  0.025  0.000  0.000  0.025
   27  0.024  0.000  0.000  0.025
   28  0.007  0.001  0.000  0.007
   29  0.006  0.001  0.000  0.007
   30  0.006  0.001  0.000  0.007
   31  0.006  0.001  0.000  0.007
   32  0.006  0.001  0.000  0.007
   33  0.006  0.001  0.000  0.007
   34  0.006  0.001  0.000  0.007
   35  0.006  0.001  0.000  0.007
   36  0.007  0.003  0.000  0.011
   37  0.001  0.000  0.000  0.001
tot    0.565  0.019  0.001  0.586
 
band     3 # energy   -7.33357498 # occ.  2.00000000
 
ion      s      p      d    tot
    1  0.018  0.001  0.001  0.019
    2  0.018  0.001  0.001  0.019
    3  0.018  0.001  0.001  0.019
    4  0.018  0.001  0.001  0.019
    5  0.018  0.001  0.001  0.019
    6  0.018  0.001  0.001  0.019
    7  0.018  0.001  0.001  0.019
    8  0.018  0.001  0.001  0.019
    9  0.018  0.001  0.001  0.019
   10  0.009  0.002  0.001  0.012
   11  0.010  0.002  0.001  0.012
   12  0.009  0.002  0.001  0.012
   13  0.010  0.002  0.001  0.012
   14  0.010  0.002  0.001  0.012
   15  0.009  0.002  0.001  0.012
   16  0.009  0.002  0.001  0.012
   17  0.009  0.002  0.001  0.012
   18  0.009  0.002  0.001  0.012
   19  0.011  0.002  0.001  0.014
   20  0.009  0.002  0.001  0.012
   21  0.009  0.002  0.001  0.012
   22  0.011  0.002  0.001  0.014
   23  0.009  0.002  0.001  0.012
   24  0.011  0.002  0.001  0.014
   25  0.011  0.002  0.001  0.014
   26  0.011  0.002  0.001  0.014
   27  0.011  0.002  0.001  0.014
   28  0.019  0.001  0.000  0.021
   29  0.018  0.001  0.001  0.020
   30  0.018  0.001  0.001  0.020
   31  0.018  0.001  0.001  0.020
   32  0.018  0.001  0.001  0.020
   33  0.018  0.001  0.001  0.020
   34  0.018  0.001  0.001  0.020
   35  0.019  0.001  0.000  0.020
   36  0.019  0.003  0.007  0.028
   37  0.001  0.000  0.000  0.001
tot    0.510  0.056  0.026  0.592
 
band     4 # energy   -5.86261611 # occ.  2.00000000
 
ion      s      p      d    tot
    1  0.012  0.000  0.003  0.015
    2  0.010  0.000  0.004  0.014
    3  0.010  0.000  0.004  0.014
    4  0.010  0.000  0.004  0.014
    5  0.003  0.000  0.004  0.008
    6  0.010  0.000  0.004  0.014
    7  0.010  0.000  0.004  0.014
    8  0.010  0.000  0.004  0.014
    9  0.019  0.000  0.002  0.022
   10  0.001  0.003  0.002  0.006
   11  0.010  0.005  0.001  0.015
   12  0.001  0.003  0.002  0.006
   13  0.010  0.005  0.001  0.015
   14  0.010  0.005  0.001  0.015
   15  0.000  0.002  0.003  0.005
   16  0.001  0.003  0.002  0.006
   17  0.000  0.002  0.003  0.005
   18  0.000  0.002  0.003  0.005
   19  0.000  0.002  0.006  0.008
   20  0.025  0.005  0.007  0.037
   21  0.025  0.005  0.007  0.037
   22  0.000  0.003  0.004  0.007
   23  0.025  0.005  0.007  0.037
   24  0.000  0.003  0.004  0.007
   25  0.000  0.002  0.006  0.008
   26  0.000  0.002  0.006  0.008
   27  0.000  0.003  0.004  0.007
   28  0.017  0.000  0.004  0.021
   29  0.015  0.000  0.007  0.022
   30  0.015  0.000  0.007  0.022
   31  0.015  0.000  0.007  0.022
   32  0.015  0.000  0.007  0.022
   33  0.015  0.000  0.007  0.022
   34  0.015  0.000  0.007  0.022
   35  0.022  0.000  0.004  0.026
   36  0.001  0.004  0.101  0.105
   37  0.004  0.021  0.000  0.025
tot    0.342  0.087  0.245  0.673
 
band     5 # energy   -5.72967112 # occ.  2.00000000
 
ion      s      p      d    tot
    1  0.000  0.002  0.004  0.006
    2  0.007  0.002  0.002  0.011
    3  0.000  0.001  0.002  0.003
    4  0.007  0.002  0.002  0.011
    5  0.000  0.002  0.003  0.005
    6  0.004  0.001  0.002  0.007
    7  0.001  0.001  0.002  0.003
    8  0.004  0.001  0.002  0.007
    9  0.000  0.000  0.002  0.002
   10  0.047  0.005  0.003  0.054
   11  0.008  0.008  0.005  0.022
   12  0.011  0.001  0.011  0.023
   13  0.008  0.008  0.005  0.021
   14  0.033  0.001  0.006  0.039
   15  0.000  0.005  0.005  0.011
   16  0.012  0.001  0.011  0.024
   17  0.000  0.005  0.005  0.011
   18  0.001  0.002  0.003  0.006
   19  0.004  0.010  0.003  0.016
   20  0.072  0.003  0.008  0.082
   21  0.017  0.004  0.015  0.036
   22  0.004  0.003  0.009  0.016
   23  0.018  0.004  0.015  0.037
   24  0.014  0.004  0.002  0.021
   25  0.016  0.000  0.006  0.022
   26  0.004  0.010  0.002  0.016
   27  0.004  0.003  0.009  0.016
   28  0.000  0.002  0.003  0.005
   29  0.009  0.003  0.004  0.017
   30  0.002  0.001  0.002  0.005
   31  0.009  0.003  0.004  0.017
   32  0.003  0.002  0.004  0.008
   33  0.002  0.001  0.002  0.005
   34  0.003  0.002  0.004  0.009
   35  0.000  0.000  0.003  0.003
   36  0.000  0.004  0.059  0.063
   37  0.000  0.007  0.000  0.007
tot    0.324  0.114  0.229  0.667
 
band     6 # energy   -5.72956041 # occ.  2.00000000
 
ion      s      p      d    tot
    1  0.000  0.002  0.004  0.006
    2  0.000  0.001  0.002  0.003
    3  0.007  0.002  0.002  0.011
    4  0.001  0.001  0.002  0.003
    5  0.000  0.002  0.003  0.005
    6  0.004  0.001  0.002  0.007
    7  0.007  0.002  0.002  0.011
    8  0.004  0.001  0.002  0.007
    9  0.000  0.000  0.002  0.002
   10  0.000  0.000  0.013  0.014
   11  0.024  0.003  0.006  0.033
   12  0.035  0.004  0.005  0.044
   13  0.025  0.003  0.006  0.033
   14  0.000  0.011  0.005  0.016
   15  0.001  0.003  0.004  0.008
   16  0.035  0.004  0.006  0.044
   17  0.001  0.003  0.004  0.007
   18  0.000  0.007  0.006  0.012
   19  0.012  0.003  0.005  0.020
   20  0.000  0.004  0.017  0.021
   21  0.054  0.003  0.010  0.067
   22  0.011  0.004  0.005  0.019
   23  0.053  0.003  0.010  0.066
   24  0.000  0.003  0.012  0.015
   25  0.000  0.013  0.001  0.014
   26  0.012  0.003  0.005  0.020
   27  0.011  0.004  0.005  0.019
   28  0.000  0.002  0.003  0.005
   29  0.000  0.001  0.003  0.004
   30  0.007  0.003  0.005  0.015
   31  0.000  0.001  0.003  0.004
   32  0.007  0.002  0.003  0.012
   33  0.007  0.003  0.005  0.015
   34  0.006  0.002  0.003  0.012
   35  0.000  0.000  0.003  0.003
   36  0.000  0.004  0.059  0.063
   37  0.000  0.007  0.000  0.007
tot    0.324  0.114  0.229  0.667
 
band     7 # energy   -5.65475023 # occ.  2.00000000
 
ion      s      p      d    tot
    1  0.000  0.001  0.002  0.004
    2  0.009  0.002  0.002  0.013
    3  0.001  0.001  0.002  0.003
    4  0.009  0.002  0.002  0.013
    5  0.000  0.000  0.003  0.004
    6  0.005  0.002  0.002  0.009
    7  0.001  0.001  0.002  0.003
    8  0.005  0.002  0.002  0.009
    9  0.000  0.003  0.005  0.008
   10  0.000  0.013  0.002  0.014
   11  0.017  0.003  0.005  0.025
   12  0.006  0.003  0.005  0.015
   13  0.017  0.003  0.005  0.025
   14  0.000  0.001  0.013  0.015
   15  0.044  0.004  0.006  0.054
   16  0.006  0.003  0.005  0.015
   17  0.044  0.004  0.006  0.054
   18  0.000  0.005  0.012  0.017
   19  0.035  0.004  0.006  0.045
   20  0.000  0.011  0.004  0.015
   21  0.000  0.004  0.005  0.008
   22  0.037  0.004  0.006  0.047
   23  0.000  0.004  0.005  0.009
   24  0.000  0.011  0.006  0.017
   25  0.000  0.000  0.017  0.017
   26  0.035  0.004  0.006  0.045
   27  0.037  0.004  0.006  0.046
   28  0.000  0.002  0.005  0.007
   29  0.012  0.003  0.003  0.018
   30  0.002  0.001  0.003  0.006
   31  0.012  0.003  0.003  0.018
   32  0.005  0.001  0.003  0.009
   33  0.002  0.001  0.003  0.006
   34  0.005  0.001  0.003  0.009
   35  0.000  0.004  0.005  0.009
   36  0.000  0.001  0.011  0.011
   37  0.000  0.000  0.000  0.000
tot    0.344  0.116  0.181  0.640
 
band     8 # energy   -5.65464240 # occ.  2.00000000
 
ion      s      p      d    tot
    1  0.000  0.001  0.002  0.004
    2  0.001  0.001  0.002  0.004
    3  0.009  0.002  0.002  0.014
    4  0.001  0.001  0.002  0.004
    5  0.000  0.000  0.003  0.004
    6  0.005  0.002  0.002  0.008
    7  0.009  0.002  0.002  0.014
    8  0.005  0.002  0.002  0.008
    9  0.000  0.003  0.005  0.008
   10  0.009  0.000  0.006  0.015
   11  0.006  0.002  0.011  0.019
   12  0.002  0.010  0.003  0.014
   13  0.006  0.002  0.011  0.018
   14  0.023  0.004  0.002  0.029
   15  0.015  0.005  0.010  0.029
   16  0.002  0.009  0.003  0.014
   17  0.014  0.005  0.010  0.029
   18  0.058  0.003  0.005  0.066
   19  0.012  0.001  0.013  0.027
   20  0.000  0.001  0.005  0.007
   21  0.000  0.009  0.004  0.013
   22  0.012  0.008  0.006  0.027
   23  0.000  0.009  0.004  0.013
   24  0.049  0.002  0.006  0.056
   25  0.047  0.005  0.002  0.054
   26  0.012  0.001  0.013  0.026
   27  0.013  0.008  0.006  0.027
   28  0.000  0.002  0.005  0.007
   29  0.000  0.001  0.003  0.004
   30  0.011  0.002  0.003  0.016
   31  0.000  0.001  0.003  0.004
   32  0.008  0.002  0.003  0.013
   33  0.011  0.002  0.003  0.016
   34  0.008  0.002  0.003  0.013
   35  0.000  0.004  0.005  0.009
   36  0.000  0.001  0.011  0.011
   37  0.000  0.000  0.000  0.000
tot    0.344  0.116  0.181  0.640
 
band     9 # energy   -5.64387262 # occ.  2.00000000
 
ion      s      p      d    tot
    1  0.022  0.003  0.001  0.026
    2  0.000  0.002  0.004  0.006
    3  0.000  0.002  0.004  0.006
    4  0.000  0.002  0.004  0.006
    5  0.001  0.000  0.001  0.002
    6  0.000  0.002  0.004  0.006
    7  0.000  0.002  0.004  0.006
    8  0.000  0.002  0.004  0.006
    9  0.009  0.002  0.000  0.011
   10  0.029  0.006  0.006  0.041
   11  0.005  0.000  0.012  0.017
   12  0.029  0.006  0.006  0.041
   13  0.005  0.000  0.012  0.017
   14  0.005  0.000  0.012  0.017
   15  0.013  0.008  0.003  0.024
   16  0.029  0.006  0.006  0.041
   17  0.013  0.008  0.003  0.024
   18  0.012  0.008  0.003  0.024
   19  0.021  0.009  0.002  0.033
   20  0.000  0.002  0.011  0.013
   21  0.000  0.002  0.011  0.013
   22  0.025  0.002  0.009  0.036
   23  0.000  0.002  0.011  0.013
   24  0.025  0.002  0.009  0.037
   25  0.022  0.009  0.002  0.033
   26  0.021  0.009  0.002  0.033
   27  0.025  0.002  0.009  0.036
   28  0.019  0.003  0.000  0.022
   29  0.000  0.002  0.004  0.006
   30  0.000  0.002  0.004  0.006
   31  0.000  0.002  0.004  0.006
   32  0.000  0.002  0.004  0.006
   33  0.000  0.002  0.004  0.006
   34  0.000  0.002  0.004  0.006
   35  0.012  0.002  0.001  0.016
   36  0.000  0.000  0.000  0.000
   37  0.000  0.000  0.000  0.000
tot    0.345  0.115  0.180  0.639
 
band    10 # energy   -5.59617049 # occ.  2.00000000
 
ion      s      p      d    tot
    1  0.000  0.000  0.002  0.002
    2  0.004  0.002  0.006  0.011
    3  0.004  0.002  0.006  0.011
    4  0.004  0.002  0.006  0.011
    5  0.039  0.002  0.000  0.041
    6  0.004  0.002  0.006  0.011
    7  0.004  0.002  0.006  0.011
    8  0.004  0.002  0.006  0.011
    9  0.001  0.002  0.005  0.008
   10  0.004  0.004  0.008  0.016
   11  0.015  0.008  0.005  0.028
   12  0.004  0.004  0.008  0.016
   13  0.015  0.008  0.005  0.028
   14  0.015  0.008  0.005  0.028
   15  0.026  0.002  0.009  0.038
   16  0.004  0.004  0.008  0.016
   17  0.026  0.002  0.009  0.038
   18  0.026  0.002  0.009  0.038
   19  0.010  0.002  0.008  0.020
   20  0.016  0.005  0.006  0.026
   21  0.016  0.005  0.006  0.026
   22  0.009  0.006  0.004  0.019
   23  0.016  0.005  0.006  0.026
   24  0.009  0.006  0.004  0.019
   25  0.010  0.002  0.008  0.020
   26  0.010  0.002  0.008  0.020
   27  0.009  0.006  0.004  0.019
   28  0.001  0.000  0.004  0.005
   29  0.004  0.001  0.004  0.009
   30  0.004  0.001  0.004  0.009
   31  0.004  0.001  0.004  0.009
   32  0.004  0.001  0.004  0.009
   33  0.004  0.001  0.004  0.009
   34  0.004  0.001  0.004  0.009
   35  0.000  0.001  0.002  0.003
   36  0.030  0.006  0.002  0.037
   37  0.002  0.001  0.000  0.002
tot    0.360  0.109  0.189  0.658
 
band    11 # energy   -5.08780327 # occ.  2.00000000
 
ion      s      p      d    tot
    1  0.011  0.000  0.009  0.020
    2  0.007  0.001  0.010  0.018
    3  0.007  0.001  0.010  0.018
    4  0.007  0.001  0.010  0.018
    5  0.000  0.002  0.010  0.013
    6  0.007  0.001  0.010  0.018
    7  0.007  0.001  0.010  0.018
    8  0.007  0.001  0.010  0.018
    9  0.022  0.000  0.006  0.028
   10  0.006  0.000  0.020  0.027
   11  0.019  0.001  0.014  0.034
   12  0.006  0.000  0.020  0.027
   13  0.019  0.001  0.014  0.034
   14  0.019  0.001  0.014  0.034
   15  0.001  0.001  0.017  0.019
   16  0.006  0.000  0.020  0.027
   17  0.001  0.001  0.017  0.019
   18  0.001  0.001  0.017  0.019
   19  0.001  0.000  0.007  0.008
   20  0.005  0.003  0.028  0.036
   21  0.005  0.003  0.028  0.036
   22  0.002  0.000  0.007  0.009
   23  0.005  0.003  0.028  0.036
   24  0.002  0.000  0.007  0.009
   25  0.001  0.000  0.007  0.008
   26  0.001  0.000  0.007  0.008
   27  0.002  0.000  0.007  0.009
   28  0.000  0.000  0.001  0.001
   29  0.001  0.000  0.003  0.004
   30  0.001  0.000  0.003  0.004
   31  0.001  0.000  0.003  0.004
   32  0.001  0.000  0.003  0.004
   33  0.001  0.000  0.003  0.004
   34  0.001  0.000  0.003  0.004
   35  0.000  0.000  0.001  0.001
   36  0.002  0.003  0.123  0.128
   37  0.010  0.050  0.000  0.060
tot    0.192  0.081  0.511  0.784
 
band    12 # energy   -5.01231675 # occ.  2.00000000
 
ion      s      p      d    tot
    1  0.000  0.001  0.007  0.008
    2  0.008  0.002  0.004  0.014
    3  0.016  0.003  0.004  0.023
    4  0.006  0.002  0.004  0.012
    5  0.000  0.005  0.007  0.012
    6  0.001  0.001  0.004  0.006
    7  0.016  0.003  0.004  0.023
    8  0.002  0.001  0.004  0.008
    9  0.000  0.002  0.008  0.010
   10  0.000  0.001  0.016  0.017
   11  0.021  0.003  0.006  0.030
   12  0.007  0.002  0.008  0.017
   13  0.019  0.003  0.007  0.029
   14  0.000  0.001  0.016  0.018
   15  0.003  0.001  0.007  0.011
   16  0.008  0.002  0.008  0.017
   17  0.003  0.002  0.007  0.011
   18  0.000  0.005  0.010  0.014
   19  0.000  0.000  0.005  0.006
   20  0.000  0.002  0.043  0.045
   21  0.004  0.004  0.015  0.023
   22  0.003  0.003  0.008  0.014
   23  0.005  0.004  0.012  0.021
   24  0.000  0.000  0.006  0.006
   25  0.000  0.000  0.007  0.007
   26  0.000  0.000  0.005  0.006
   27  0.004  0.003  0.008  0.015
   28  0.000  0.000  0.003  0.003
   29  0.006  0.002  0.005  0.013
   30  0.003  0.003  0.012  0.018
   31  0.006  0.002  0.005  0.012
   32  0.001  0.000  0.005  0.006
   33  0.002  0.003  0.012  0.017
   34  0.000  0.000  0.006  0.006
   35  0.000  0.001  0.002  0.003
   36  0.000  0.000  0.204  0.204
   37  0.000  0.059  0.000  0.059
tot    0.145  0.125  0.494  0.764
 
band    13 # energy   -5.01230276 # occ.  2.00000000
 
ion      s      p      d    tot
    1  0.000  0.001  0.007  0.008
    2  0.009  0.002  0.004  0.015
    3  0.000  0.001  0.004  0.005
    4  0.010  0.002  0.004  0.017
    5  0.000  0.005  0.007  0.012
    6  0.015  0.003  0.004  0.022
    7  0.001  0.001  0.004  0.006
    8  0.014  0.003  0.004  0.021
    9  0.000  0.002  0.008  0.010
   10  0.010  0.002  0.005  0.017
   11  0.006  0.002  0.014  0.021
   12  0.003  0.001  0.013  0.017
   13  0.008  0.002  0.013  0.022
   14  0.027  0.003  0.004  0.034
   15  0.001  0.004  0.009  0.014
   16  0.002  0.001  0.014  0.017
   17  0.001  0.004  0.009  0.013
   18  0.004  0.000  0.006  0.010
   19  0.000  0.000  0.006  0.007
   20  0.006  0.004  0.004  0.014
   21  0.002  0.002  0.032  0.036
   22  0.001  0.001  0.007  0.009
   23  0.001  0.002  0.035  0.038
   24  0.005  0.004  0.009  0.017
   25  0.001  0.000  0.005  0.006
   26  0.000  0.000  0.006  0.007
   27  0.001  0.001  0.007  0.009
   28  0.000  0.000  0.003  0.003
   29  0.000  0.001  0.009  0.011
   30  0.003  0.000  0.003  0.006
   31  0.000  0.002  0.010  0.012
   32  0.005  0.003  0.010  0.018
   33  0.004  0.001  0.003  0.007
   34  0.006  0.003  0.009  0.018
   35  0.000  0.001  0.002  0.003
   36  0.000  0.000  0.204  0.204
   37  0.000  0.059  0.000  0.059
tot    0.144  0.125  0.494  0.764
 
band    14 # energy   -4.93038275 # occ.  2.00000000
 
ion      s      p      d    tot
    1  0.000  0.006  0.009  0.015
    2  0.011  0.003  0.005  0.019
    3  0.020  0.004  0.005  0.028
    4  0.010  0.003  0.005  0.018
    5  0.000  0.000  0.011  0.011
    6  0.001  0.002  0.005  0.008
    7  0.019  0.004  0.005  0.028
    8  0.001  0.002  0.005  0.008
    9  0.000  0.003  0.009  0.012
   10  0.020  0.003  0.006  0.028
   11  0.000  0.003  0.014  0.017
   12  0.005  0.003  0.018  0.026
   13  0.000  0.003  0.013  0.016
   14  0.000  0.000  0.008  0.008
   15  0.005  0.001  0.016  0.022
   16  0.005  0.003  0.018  0.026
   17  0.005  0.001  0.016  0.022
   18  0.020  0.005  0.006  0.031
   19  0.003  0.001  0.016  0.021
   20  0.004  0.003  0.010  0.018
   21  0.001  0.002  0.010  0.013
   22  0.001  0.002  0.019  0.022
   23  0.001  0.002  0.010  0.013
   24  0.005  0.001  0.004  0.009
   25  0.014  0.006  0.005  0.025
   26  0.004  0.002  0.016  0.021
   27  0.001  0.002  0.019  0.022
   28  0.000  0.005  0.006  0.011
   29  0.010  0.003  0.007  0.020
   30  0.023  0.002  0.007  0.032
   31  0.009  0.003  0.007  0.020
   32  0.003  0.002  0.008  0.013
   33  0.023  0.002  0.007  0.032
   34  0.003  0.002  0.008  0.013
   35  0.000  0.003  0.009  0.012
   36  0.000  0.000  0.049  0.049
   37  0.000  0.002  0.000  0.002
tot    0.228  0.094  0.390  0.712
 
band    15 # energy   -4.93033920 # occ.  2.00000000
 
ion      s      p      d    tot
    1  0.000  0.006  0.009  0.015
    2  0.010  0.003  0.005  0.018
    3  0.001  0.002  0.005  0.008
    4  0.011  0.003  0.005  0.018
    5  0.000  0.000  0.011  0.011
    6  0.020  0.004  0.005  0.029
    7  0.002  0.002  0.005  0.008
    8  0.019  0.004  0.005  0.028
    9  0.000  0.003  0.009  0.012
   10  0.000  0.003  0.022  0.025
   11  0.000  0.001  0.010  0.011
   12  0.015  0.003  0.010  0.027
   13  0.000  0.001  0.010  0.011
   14  0.000  0.004  0.015  0.019
   15  0.015  0.004  0.009  0.028
   16  0.015  0.003  0.009  0.027
   17  0.015  0.003  0.009  0.028
   18  0.000  0.000  0.019  0.019
   19  0.010  0.004  0.009  0.023
   20  0.000  0.002  0.010  0.012
   21  0.003  0.003  0.010  0.016
   22  0.004  0.001  0.009  0.014
   23  0.003  0.003  0.010  0.016
   24  0.000  0.002  0.024  0.026
   25  0.000  0.000  0.019  0.019
   26  0.010  0.004  0.009  0.023
   27  0.004  0.001  0.008  0.013
   28  0.000  0.005  0.006  0.011
   29  0.014  0.002  0.007  0.023
   30  0.001  0.002  0.008  0.011
   31  0.014  0.002  0.007  0.023
   32  0.021  0.003  0.007  0.031
   33  0.001  0.002  0.008  0.011
   34  0.021  0.003  0.007  0.030
   35  0.000  0.003  0.009  0.012
   36  0.000  0.000  0.049  0.049
   37  0.000  0.002  0.000  0.002
tot    0.228  0.094  0.390  0.712
 
band    16 # energy   -4.87644651 # occ.  2.00000000
 
ion      s      p      d    tot
    1  0.034  0.003  0.000  0.037
    2  0.000  0.003  0.010  0.013
    3  0.000  0.003  0.010  0.013
    4  0.000  0.003  0.010  0.013
    5  0.000  0.000  0.000  0.000
    6  0.000  0.003  0.010  0.013
    7  0.000  0.003  0.010  0.013
    8  0.000  0.003  0.010  0.013
    9  0.030  0.004  0.001  0.034
   10  0.009  0.004  0.011  0.023
   11  0.001  0.000  0.015  0.017
   12  0.009  0.004  0.011  0.023
   13  0.001  0.000  0.015  0.017
   14  0.001  0.000  0.015  0.017
   15  0.007  0.003  0.018  0.028
   16  0.009  0.004  0.011  0.023
   17  0.007  0.003  0.018  0.028
   18  0.007  0.003  0.018  0.028
   19  0.005  0.004  0.017  0.026
   20  0.000  0.000  0.017  0.017
   21  0.000  0.000  0.017  0.017
   22  0.011  0.003  0.010  0.025
   23  0.000  0.000  0.017  0.017
   24  0.011  0.003  0.010  0.025
   25  0.005  0.004  0.017  0.026
   26  0.005  0.004  0.017  0.026
   27  0.011  0.003  0.010  0.025
   28  0.036  0.003  0.000  0.039
   29  0.000  0.003  0.010  0.013
   30  0.000  0.003  0.010  0.013
   31  0.000  0.003  0.010  0.013
   32  0.000  0.003  0.010  0.013
   33  0.000  0.003  0.010  0.013
   34  0.000  0.003  0.010  0.013
   35  0.027  0.004  0.001  0.032
   36  0.000  0.000  0.000  0.000
   37  0.000  0.000  0.000  0.000
tot    0.227  0.092  0.386  0.706
 
band    17 # energy   -4.78110111 # occ.  2.00000000
 
ion      s      p      d    tot
    1  0.007  0.002  0.001  0.010
    2  0.000  0.003  0.010  0.013
    3  0.000  0.003  0.010  0.013
    4  0.000  0.003  0.010  0.013
    5  0.044  0.003  0.000  0.047
    6  0.000  0.003  0.010  0.013
    7  0.000  0.003  0.010  0.013
    8  0.000  0.003  0.010  0.013
    9  0.004  0.001  0.002  0.007
   10  0.002  0.001  0.022  0.025
   11  0.002  0.003  0.019  0.025
   12  0.002  0.001  0.022  0.025
   13  0.002  0.003  0.019  0.025
   14  0.002  0.003  0.019  0.025
   15  0.006  0.001  0.012  0.020
   16  0.002  0.001  0.022  0.025
   17  0.006  0.001  0.012  0.020
   18  0.006  0.001  0.012  0.020
   19  0.012  0.001  0.020  0.033
   20  0.005  0.004  0.015  0.025
   21  0.005  0.004  0.015  0.025
   22  0.004  0.001  0.019  0.024
   23  0.005  0.004  0.015  0.025
   24  0.004  0.001  0.019  0.024
   25  0.012  0.001  0.020  0.033
   26  0.012  0.001  0.020  0.033
   27  0.004  0.001  0.019  0.024
   28  0.001  0.002  0.007  0.010
   29  0.002  0.002  0.010  0.014
   30  0.002  0.002  0.010  0.014
   31  0.002  0.002  0.010  0.014
   32  0.002  0.002  0.010  0.014
   33  0.002  0.002  0.010  0.014
   34  0.002  0.002  0.010  0.014
   35  0.001  0.001  0.004  0.007
   36  0.051  0.008  0.000  0.059
   37  0.003  0.005  0.000  0.008
tot    0.225  0.081  0.456  0.762
 
band    18 # energy   -4.69811529 # occ.  2.00000000
 
ion      s      p      d    tot
    1  0.000  0.000  0.004  0.004
    2  0.003  0.001  0.002  0.006
    3  0.000  0.000  0.002  0.002
    4  0.003  0.001  0.002  0.006
    5  0.000  0.001  0.002  0.003
    6  0.005  0.001  0.002  0.008
    7  0.000  0.000  0.002  0.002
    8  0.005  0.001  0.002  0.008
    9  0.000  0.001  0.004  0.005
   10  0.001  0.001  0.003  0.005
   11  0.001  0.001  0.007  0.009
   12  0.000  0.001  0.002  0.003
   13  0.001  0.001  0.008  0.009
   14  0.003  0.002  0.003  0.008
   15  0.000  0.000  0.010  0.010
   16  0.000  0.001  0.002  0.003
   17  0.000  0.000  0.010  0.011
   18  0.001  0.000  0.002  0.003
   19  0.000  0.003  0.011  0.015
   20  0.007  0.002  0.021  0.030
   21  0.002  0.001  0.006  0.008
   22  0.002  0.001  0.011  0.014
   23  0.002  0.001  0.006  0.009
   24  0.010  0.001  0.003  0.014
   25  0.001  0.000  0.005  0.006
   26  0.000  0.003  0.012  0.015
   27  0.003  0.001  0.010  0.014
   28  0.000  0.002  0.014  0.016
   29  0.020  0.002  0.008  0.029
   30  0.000  0.002  0.005  0.007
   31  0.019  0.002  0.008  0.028
   32  0.018  0.002  0.008  0.027
   33  0.000  0.002  0.005  0.007
   34  0.019  0.002  0.008  0.028
   35  0.000  0.002  0.013  0.015
   36  0.000  0.027  0.204  0.231
   37  0.000  0.135  0.000  0.135
tot    0.126  0.203  0.422  0.751
 
band    19 # energy   -4.69808961 # occ.  2.00000000
 
ion      s      p      d    tot
    1  0.000  0.000  0.004  0.004
    2  0.002  0.001  0.002  0.005
    3  0.006  0.001  0.002  0.008
    4  0.003  0.001  0.002  0.005
    5  0.000  0.001  0.002  0.003
    6  0.001  0.000  0.002  0.003
    7  0.006  0.001  0.002  0.008
    8  0.001  0.000  0.002  0.003
    9  0.000  0.001  0.004  0.005
   10  0.000  0.001  0.002  0.002
   11  0.002  0.002  0.004  0.008
   12  0.001  0.001  0.003  0.004
   13  0.002  0.002  0.004  0.008
   14  0.000  0.000  0.009  0.009
   15  0.001  0.000  0.005  0.006
   16  0.000  0.001  0.003  0.004
   17  0.001  0.000  0.004  0.005
   18  0.000  0.000  0.012  0.013
   19  0.001  0.001  0.007  0.009
   20  0.000  0.000  0.001  0.001
   21  0.005  0.002  0.017  0.024
   22  0.008  0.001  0.005  0.014
   23  0.005  0.002  0.016  0.023
   24  0.000  0.001  0.013  0.014
   25  0.000  0.005  0.014  0.018
   26  0.001  0.001  0.007  0.009
   27  0.007  0.001  0.005  0.014
   28  0.000  0.002  0.014  0.016
   29  0.005  0.002  0.006  0.013
   30  0.025  0.002  0.009  0.036
   31  0.006  0.002  0.006  0.014
   32  0.007  0.002  0.006  0.015
   33  0.025  0.002  0.009  0.036
   34  0.006  0.002  0.006  0.014
   35  0.000  0.002  0.013  0.015
   36  0.000  0.027  0.204  0.231
   37  0.000  0.135  0.000  0.135
tot    0.126  0.203  0.422  0.751
 
band    20 # energy   -4.45834189 # occ.  2.00000000
 
ion      s      p      d    tot
    1  0.003  0.000  0.001  0.003
    2  0.000  0.000  0.002  0.002
    3  0.000  0.000  0.002  0.002
    4  0.000  0.000  0.002  0.002
    5  0.002  0.001  0.001  0.004
    6  0.000  0.000  0.002  0.002
    7  0.000  0.000  0.002  0.002
    8  0.000  0.000  0.002  0.002
    9  0.000  0.000  0.001  0.001
   10  0.000  0.000  0.006  0.006
   11  0.001  0.001  0.010  0.012
   12  0.000  0.000  0.006  0.006
   13  0.001  0.001  0.010  0.012
   14  0.001  0.001  0.010  0.012
   15  0.000  0.000  0.006  0.006
   16  0.000  0.000  0.006  0.006
   17  0.000  0.000  0.006  0.006
   18  0.000  0.000  0.006  0.006
   19  0.001  0.000  0.011  0.012
   20  0.005  0.001  0.024  0.030
   21  0.005  0.001  0.024  0.030
   22  0.001  0.002  0.029  0.031
   23  0.005  0.001  0.024  0.030
   24  0.001  0.002  0.029  0.031
   25  0.001  0.000  0.011  0.012
   26  0.001  0.000  0.011  0.012
   27  0.001  0.002  0.029  0.031
   28  0.008  0.000  0.005  0.013
   29  0.001  0.003  0.018  0.022
   30  0.001  0.003  0.018  0.022
   31  0.001  0.003  0.018  0.022
   32  0.001  0.003  0.018  0.022
   33  0.001  0.003  0.018  0.022
   34  0.001  0.003  0.018  0.022
   35  0.033  0.000  0.008  0.041
   36  0.000  0.001  0.214  0.215
   37  0.017  0.118  0.000  0.135
tot    0.093  0.151  0.603  0.848
 
band    21 # energy   -4.30619697 # occ.  2.00000000
 
ion      s      p      d    tot
    1  0.000  0.001  0.026  0.027
    2  0.014  0.001  0.007  0.022
    3  0.007  0.001  0.007  0.015
    4  0.013  0.001  0.007  0.022
    5  0.000  0.001  0.011  0.012
    6  0.001  0.001  0.007  0.009
    7  0.007  0.001  0.007  0.015
    8  0.001  0.001  0.007  0.009
    9  0.000  0.003  0.005  0.008
   10  0.000  0.000  0.057  0.057
   11  0.000  0.003  0.015  0.018
   12  0.000  0.000  0.019  0.019
   13  0.000  0.003  0.015  0.018
   14  0.000  0.000  0.004  0.004
   15  0.000  0.004  0.015  0.019
   16  0.000  0.000  0.019  0.019
   17  0.000  0.004  0.015  0.019
   18  0.000  0.000  0.028  0.028
   19  0.005  0.003  0.012  0.019
   20  0.000  0.000  0.061  0.061
   21  0.000  0.000  0.028  0.029
   22  0.002  0.002  0.015  0.019
   23  0.000  0.000  0.028  0.028
   24  0.000  0.000  0.012  0.012
   25  0.000  0.000  0.018  0.018
   26  0.005  0.002  0.012  0.019
   27  0.002  0.002  0.015  0.019
   28  0.000  0.000  0.009  0.009
   29  0.011  0.001  0.018  0.029
   30  0.000  0.001  0.016  0.018
   31  0.011  0.001  0.018  0.029
   32  0.008  0.000  0.017  0.025
   33  0.000  0.001  0.016  0.018
   34  0.007  0.000  0.017  0.024
   35  0.000  0.001  0.002  0.004
   36  0.000  0.001  0.094  0.094