PROCAR new format
# of k-points:   10         # of bands:  252         # of ions:   37

 k-point     1 :    0.00000000 0.00000000 0.00000000     weight = 0.01562500

band     1 # energy   -8.60484722 # occ.  2.00000000
 
ion      s      p      d    tot
    1  0.000  0.000  0.000  0.000
    2  0.000  0.000  0.000  0.000
    3  0.000  0.000  0.000  0.000
    4  0.000  0.000  0.000  0.000
    5  0.000  0.000  0.000  0.000
    6  0.000  0.000  0.000  0.000
    7  0.000  0.000  0.000  0.000
    8  0.000  0.000  0.000  0.000
    9  0.000  0.000  0.000  0.000
   10  0.000  0.000  0.000  0.000
   11  0.000  0.000  0.000  0.000
   12  0.000  0.000  0.000  0.000
   13  0.000  0.000  0.000  0.000
   14  0.000  0.000  0.000  0.000
   15  0.000  0.000  0.000  0.000
   16  0.000  0.000  0.000  0.000
   17  0.000  0.000  0.000  0.000
   18  0.000  0.000  0.000  0.000
   19  0.000  0.000  0.000  0.000
   20  0.001  0.000  0.001  0.003
   21  0.001  0.000  0.001  0.003
   22  0.000  0.000  0.000  0.000
   23  0.001  0.000  0.001  0.003
   24  0.000  0.000  0.000  0.000
   25  0.000  0.000  0.000  0.000
   26  0.000  0.000  0.000  0.000
   27  0.000  0.000  0.000  0.000
   28  0.000  0.000  0.000  0.000
   29  0.002  0.001  0.002  0.004
   30  0.002  0.001  0.002  0.004
   31  0.002  0.001  0.002  0.004
   32  0.002  0.001  0.002  0.004
   33  0.002  0.001  0.002  0.004
   34  0.002  0.001  0.002  0.004
   35  0.000  0.000  0.000  0.000
   36  0.088  0.048  0.106  0.242
   37  0.432  0.015  0.000  0.448
tot    0.537  0.068  0.120  0.725
 
band     2 # energy   -6.81129700 # occ.  2.00000000
 
ion      s      p      d    tot
    1  0.006  0.001  0.000  0.007
    2  0.006  0.001  0.000  0.007
    3  0.006  0.001  0.000  0.007
    4  0.006  0.001  0.000  0.007
    5  0.006  0.001  0.000  0.007
    6  0.006  0.001  0.000  0.007
    7  0.006  0.001  0.000  0.007
    8  0.006  0.001  0.000  0.007
    9  0.006  0.001  0.000  0.007
   10  0.024  0.000  0.000  0.025
   11  0.025  0.000  0.000  0.025
   12  0.024  0.000  0.000  0.025
   13  0.025  0.000  0.000  0.025
   14  0.025  0.000  0.000  0.025
   15  0.024  0.000  0.000  0.025
   16  0.024  0.000  0.000  0.025
   17  0.024  0.000  0.000  0.025
   18  0.024  0.000  0.000  0.025
   19  0.022  0.000  0.000  0.023
   20  0.023  0.000  0.000  0.024
   21  0.023  0.000  0.000  0.024
   22  0.022  0.000  0.000  0.023
   23  0.023  0.000  0.000  0.024
   24  0.022  0.000  0.000  0.023
   25  0.022  0.000  0.000  0.023
   26  0.022  0.000  0.000  0.023
   27  0.022  0.000  0.000  0.023
   28  0.005  0.001  0.000  0.005
   29  0.004  0.001  0.000  0.005
   30  0.004  0.001  0.000  0.005
   31  0.004  0.001  0.000  0.005
   32  0.004  0.001  0.000  0.005
   33  0.004  0.001  0.000  0.005
   34  0.004  0.001  0.000  0.005
   35  0.005  0.001  0.000  0.005
   36  0.000  0.003  0.002  0.005
   37  0.006  0.000  0.000  0.006
tot    0.519  0.016  0.011  0.546
 
band     3 # energy   -5.94961294 # occ.  2.00000000
 
ion      s      p      d    tot
    1  0.007  0.000  0.000  0.008
    2  0.007  0.000  0.000  0.007
    3  0.007  0.000  0.000  0.007
    4  0.007  0.000  0.000  0.007
    5  0.007  0.000  0.000  0.007
    6  0.007  0.000  0.000  0.007
    7  0.007  0.000  0.000  0.007
    8  0.007  0.000  0.000  0.007
    9  0.007  0.000  0.000  0.007
   10  0.011  0.001  0.016  0.028
   11  0.010  0.001  0.017  0.028
   12  0.011  0.001  0.016  0.028
   13  0.010  0.001  0.017  0.028
   14  0.010  0.001  0.017  0.028
   15  0.009  0.001  0.015  0.025
   16  0.011  0.001  0.016  0.028
   17  0.009  0.001  0.015  0.025
   18  0.009  0.001  0.015  0.025
   19  0.013  0.001  0.020  0.034
   20  0.013  0.001  0.026  0.040
   21  0.013  0.001  0.026  0.040
   22  0.013  0.001  0.019  0.033
   23  0.013  0.001  0.026  0.040
   24  0.013  0.001  0.019  0.033
   25  0.013  0.001  0.020  0.034
   26  0.013  0.001  0.020  0.034
   27  0.013  0.001  0.019  0.033
   28  0.005  0.000  0.000  0.006
   29  0.004  0.000  0.001  0.005
   30  0.004  0.000  0.001  0.005
   31  0.004  0.000  0.001  0.005
   32  0.004  0.000  0.001  0.005
   33  0.004  0.000  0.001  0.005
   34  0.004  0.000  0.001  0.005
   35  0.005  0.000  0.000  0.005
   36  0.001  0.002  0.000  0.003
   37  0.003  0.000  0.000  0.003
tot    0.307  0.023  0.348  0.678
 
band     4 # energy   -5.66175548 # occ.  2.00000000
 
ion      s      p      d    tot
    1  0.019  0.000  0.028  0.048
    2  0.018  0.000  0.028  0.046
    3  0.018  0.000  0.028  0.046
    4  0.018  0.000  0.028  0.046
    5  0.017  0.000  0.030  0.047
    6  0.018  0.000  0.028  0.046
    7  0.018  0.000  0.028  0.046
    8  0.018  0.000  0.028  0.046
    9  0.017  0.000  0.027  0.045
   10  0.000  0.001  0.022  0.023
   11  0.001  0.001  0.021  0.023
   12  0.000  0.001  0.022  0.023
   13  0.001  0.001  0.021  0.023
   14  0.001  0.001  0.021  0.023
   15  0.001  0.001  0.019  0.021
   16  0.000  0.001  0.022  0.023
   17  0.001  0.001  0.019  0.021
   18  0.001  0.001  0.019  0.021
   19  0.000  0.000  0.004  0.005
   20  0.000  0.000  0.007  0.007
   21  0.000  0.000  0.007  0.007
   22  0.000  0.000  0.007  0.008
   23  0.000  0.000  0.007  0.007
   24  0.000  0.000  0.007  0.008
   25  0.000  0.000  0.004  0.005
   26  0.000  0.000  0.004  0.005
   27  0.000  0.000  0.007  0.008
   28  0.005  0.000  0.004  0.009
   29  0.004  0.000  0.005  0.009
   30  0.004  0.000  0.005  0.009
   31  0.004  0.000  0.005  0.009
   32  0.004  0.000  0.005  0.009
   33  0.004  0.000  0.005  0.009
   34  0.004  0.000  0.005  0.009
   35  0.006  0.000  0.005  0.011
   36  0.000  0.000  0.002  0.003
   37  0.001  0.000  0.000  0.001
tot    0.207  0.008  0.538  0.753
 
band     5 # energy   -5.58439559 # occ.  2.00000000
 
ion      s      p      d    tot
    1  0.002  0.000  0.002  0.005
    2  0.000  0.000  0.004  0.004
    3  0.000  0.000  0.004  0.004
    4  0.000  0.000  0.004  0.004
    5  0.001  0.000  0.000  0.002
    6  0.000  0.000  0.004  0.004
    7  0.000  0.000  0.004  0.004
    8  0.000  0.000  0.004  0.004
    9  0.001  0.000  0.000  0.002
   10  0.003  0.000  0.027  0.030
   11  0.001  0.001  0.021  0.022
   12  0.003  0.000  0.027  0.030
   13  0.001  0.001  0.021  0.022
   14  0.001  0.001  0.021  0.022
   15  0.006  0.001  0.014  0.020
   16  0.003  0.000  0.027  0.030
   17  0.006  0.001  0.014  0.020
   18  0.006  0.001  0.014  0.020
   19  0.001  0.001  0.033  0.035
   20  0.008  0.000  0.100  0.108
   21  0.008  0.000  0.100  0.108
   22  0.014  0.001  0.014  0.029
   23  0.008  0.000  0.100  0.108
   24  0.014  0.001  0.014  0.029
   25  0.001  0.001  0.033  0.035
   26  0.001  0.001  0.033  0.035
   27  0.014  0.001  0.014  0.029
   28  0.000  0.000  0.001  0.001
   29  0.000  0.000  0.005  0.005
   30  0.000  0.000  0.005  0.005
   31  0.000  0.000  0.005  0.005
   32  0.000  0.000  0.005  0.005
   33  0.000  0.000  0.005  0.005
   34  0.000  0.000  0.005  0.005
   35  0.003  0.001  0.003  0.007
   36  0.001  0.002  0.001  0.004
   37  0.001  0.000  0.000  0.002
tot    0.110  0.016  0.687  0.813
 
band     6 # energy   -5.56224102 # occ.  2.00000000
 
ion      s      p      d    tot
    1  0.000  0.000  0.009  0.009
    2  0.001  0.000  0.003  0.004
    3  0.001  0.000  0.003  0.005
    4  0.001  0.000  0.003  0.004
    5  0.000  0.000  0.005  0.005
    6  0.000  0.000  0.003  0.003
    7  0.001  0.000  0.003  0.005
    8  0.000  0.000  0.003  0.003
    9  0.000  0.000  0.001  0.001
   10  0.000  0.001  0.027  0.028
   11  0.004  0.000  0.028  0.032
   12  0.011  0.001  0.016  0.028
   13  0.003  0.000  0.027  0.031
   14  0.000  0.001  0.017  0.018
   15  0.003  0.000  0.015  0.018
   16  0.012  0.001  0.015  0.028
   17  0.003  0.000  0.016  0.019
   18  0.000  0.000  0.032  0.032
   19  0.015  0.001  0.032  0.047
   20  0.000  0.000  0.139  0.139
   21  0.019  0.001  0.043  0.063
   22  0.000  0.000  0.037  0.038
   23  0.021  0.001  0.035  0.057
   24  0.000  0.001  0.058  0.059
   25  0.000  0.002  0.015  0.016
   26  0.013  0.001  0.031  0.045
   27  0.000  0.000  0.035  0.036
   28  0.000  0.000  0.004  0.004
   29  0.000  0.000  0.006  0.006
   30  0.000  0.000  0.002  0.002
   31  0.001  0.000  0.006  0.007
   32  0.001  0.001  0.006  0.008
   33  0.000  0.000  0.002  0.002
   34  0.001  0.001  0.006  0.008
   35  0.000  0.000  0.001  0.001
   36  0.000  0.000  0.002  0.002
   37  0.000  0.000  0.000  0.000
tot    0.113  0.015  0.683  0.811
 
band     7 # energy   -5.56223380 # occ.  2.00000000
 
ion      s      p      d    tot
    1  0.000  0.000  0.009  0.009
    2  0.001  0.000  0.003  0.004
    3  0.000  0.000  0.003  0.003
    4  0.001  0.000  0.003  0.004
    5  0.000  0.000  0.005  0.005
    6  0.002  0.000  0.003  0.005
    7  0.000  0.000  0.003  0.003
    8  0.002  0.000  0.003  0.005
    9  0.000  0.000  0.001  0.001
   10  0.015  0.001  0.012  0.028
   11  0.001  0.001  0.020  0.022
   12  0.004  0.001  0.023  0.028
   13  0.001  0.001  0.021  0.023
   14  0.005  0.000  0.031  0.036
   15  0.001  0.000  0.027  0.028
   16  0.003  0.001  0.024  0.028
   17  0.001  0.000  0.026  0.027
   18  0.004  0.000  0.010  0.014
   19  0.004  0.001  0.020  0.025
   20  0.027  0.001  0.006  0.034
   21  0.007  0.000  0.102  0.110
   22  0.000  0.001  0.050  0.051
   23  0.006  0.000  0.109  0.116
   24  0.001  0.000  0.028  0.029
   25  0.019  0.000  0.037  0.056
   26  0.005  0.001  0.021  0.027
   27  0.000  0.001  0.052  0.052
   28  0.000  0.000  0.004  0.004
   29  0.001  0.000  0.003  0.005
   30  0.001  0.001  0.007  0.009
   31  0.001  0.000  0.003  0.004
   32  0.000  0.000  0.003  0.003
   33  0.001  0.001  0.007  0.009
   34  0.000  0.000  0.003  0.003
   35  0.000  0.000  0.001  0.001
   36  0.000  0.000  0.002  0.002
   37  0.000  0.000  0.000  0.000
tot    0.113  0.015  0.683  0.811
 
band     8 # energy   -5.55748120 # occ.  2.00000000
 
ion      s      p      d    tot
    1  0.000  0.000  0.001  0.001
    2  0.000  0.000  0.006  0.006
    3  0.000  0.000  0.006  0.006
    4  0.000  0.000  0.006  0.006
    5  0.005  0.001  0.003  0.009
    6  0.000  0.000  0.006  0.006
    7  0.000  0.000  0.006  0.006
    8  0.000  0.000  0.006  0.006
    9  0.001  0.000  0.003  0.005
   10  0.008  0.001  0.004  0.014
   11  0.012  0.001  0.040  0.052
   12  0.008  0.001  0.004  0.013
   13  0.012  0.001  0.040  0.052
   14  0.012  0.001  0.040  0.052
   15  0.001  0.000  0.045  0.046
   16  0.008  0.001  0.004  0.013
   17  0.001  0.000  0.045  0.046
   18  0.001  0.000  0.045  0.046
   19  0.014  0.001  0.029  0.044
   20  0.005  0.001  0.016  0.023
   21  0.005  0.001  0.016  0.023
   22  0.001  0.000  0.057  0.058
   23  0.005  0.001  0.016  0.023
   24  0.001  0.000  0.058  0.058
   25  0.014  0.001  0.029  0.043
   26  0.014  0.001  0.029  0.043
   27  0.001  0.000  0.057  0.058
   28  0.004  0.001  0.005  0.010
   29  0.000  0.000  0.004  0.004
   30  0.000  0.000  0.004  0.004
   31  0.000  0.000  0.004  0.004
   32  0.000  0.000  0.004  0.004
   33  0.000  0.000  0.004  0.004
   34  0.000  0.000  0.004  0.004
   35  0.002  0.000  0.005  0.007
   36  0.000  0.000  0.000  0.000
   37  0.000  0.000  0.000  0.000
tot    0.134  0.018  0.647  0.798
 
band     9 # energy   -5.55473055 # occ.  2.00000000
 
ion      s      p      d    tot
    1  0.000  0.000  0.001  0.001
    2  0.000  0.000  0.003  0.003
    3  0.001  0.001  0.006  0.008
    4  0.000  0.000  0.003  0.003
    5  0.000  0.000  0.009  0.009
    6  0.001  0.000  0.004  0.005
    7  0.001  0.001  0.006  0.008
    8  0.001  0.000  0.004  0.005
    9  0.000  0.000  0.005  0.005
   10  0.001  0.000  0.025  0.026
   11  0.006  0.000  0.075  0.081
   12  0.000  0.001  0.047  0.048
   13  0.006  0.000  0.075  0.082
   14  0.026  0.001  0.005  0.032
   15  0.005  0.001  0.019  0.025
   16  0.000  0.001  0.047  0.048
   17  0.004  0.001  0.019  0.025
   18  0.018  0.000  0.033  0.052
   19  0.001  0.000  0.041  0.042
   20  0.005  0.000  0.036  0.041
   21  0.001  0.001  0.024  0.027
   22  0.005  0.001  0.033  0.039
   23  0.001  0.001  0.024  0.027
   24  0.020  0.001  0.012  0.033
   25  0.006  0.001  0.010  0.016
   26  0.001  0.000  0.041  0.042
   27  0.005  0.001  0.033  0.039
   28  0.000  0.000  0.002  0.003
   29  0.001  0.000  0.003  0.005
   30  0.000  0.000  0.002  0.002
   31  0.001  0.000  0.003  0.005
   32  0.001  0.000  0.003  0.004
   33  0.000  0.000  0.002  0.002
   34  0.001  0.000  0.003  0.004
   35  0.000  0.000  0.007  0.008
   36  0.000  0.000  0.000  0.000
   37  0.000  0.000  0.000  0.000
tot    0.122  0.016  0.666  0.804
 
band    10 # energy   -5.55472263 # occ.  2.00000000
 
ion      s      p      d    tot
    1  0.000  0.000  0.001  0.001
    2  0.001  0.001  0.005  0.007
    3  0.000  0.000  0.002  0.003
    4  0.001  0.001  0.005  0.007
    5  0.000  0.000  0.009  0.009
    6  0.001  0.000  0.005  0.006
    7  0.000  0.000  0.002  0.003
    8  0.001  0.000  0.005  0.006
    9  0.000  0.000  0.005  0.005
   10  0.000  0.001  0.055  0.056
   11  0.019  0.001  0.029  0.048
   12  0.000  0.000  0.033  0.033
   13  0.019  0.001  0.028  0.048
   14  0.000  0.000  0.098  0.098
   15  0.013  0.001  0.029  0.043
   16  0.000  0.000  0.033  0.034
   17  0.013  0.001  0.029  0.043
   18  0.000  0.002  0.014  0.015
   19  0.004  0.000  0.020  0.025
   20  0.000  0.001  0.020  0.022
   21  0.004  0.001  0.032  0.037
   22  0.015  0.001  0.019  0.035
   23  0.004  0.001  0.032  0.036
   24  0.000  0.001  0.040  0.041
   25  0.000  0.000  0.051  0.051
   26  0.004  0.000  0.020  0.025
   27  0.015  0.001  0.019  0.035
   28  0.000  0.000  0.002  0.003
   29  0.000  0.000  0.002  0.002
   30  0.001  0.000  0.003  0.005
   31  0.000  0.000  0.002  0.002
   32  0.001  0.000  0.003  0.004
   33  0.001  0.000  0.003  0.005
   34  0.001  0.000  0.003  0.003
   35  0.000  0.000  0.007  0.008
   36  0.000  0.000  0.000  0.000
   37  0.000  0.000  0.000  0.000
tot    0.122  0.016  0.666  0.804
 
band    11 # energy   -5.53771752 # occ.  2.00000000
 
ion      s      p      d    tot
    1  0.001  0.001  0.018  0.020
    2  0.000  0.000  0.009  0.009
    3  0.000  0.000  0.008  0.009
    4  0.000  0.000  0.009  0.009
    5  0.000  0.000  0.002  0.002
    6  0.000  0.000  0.009  0.009
    7  0.000  0.000  0.008  0.009
    8  0.000  0.000  0.009  0.009
    9  0.009  0.001  0.000  0.010
   10  0.007  0.000  0.056  0.063
   11  0.000  0.000  0.061  0.062
   12  0.007  0.000  0.056  0.063
   13  0.000  0.000  0.061  0.062
   14  0.000  0.000  0.061  0.062
   15  0.006  0.000  0.005  0.012
   16  0.007  0.000  0.056  0.063
   17  0.006  0.000  0.005  0.012
   18  0.006  0.000  0.005  0.012
   19  0.001  0.000  0.010  0.012
   20  0.003  0.000  0.031  0.034
   21  0.003  0.000  0.031  0.034
   22  0.000  0.000  0.033  0.033
   23  0.003  0.000  0.031  0.034
   24  0.000  0.000  0.033  0.033
   25  0.001  0.000  0.011  0.012
   26  0.001  0.000  0.010  0.012
   27  0.000  0.000  0.033  0.033
   28  0.008  0.001  0.000  0.009
   29  0.001  0.000  0.011  0.012
   30  0.001  0.000  0.011  0.012
   31  0.001  0.000  0.011  0.012
   32  0.001  0.000  0.011  0.012
   33  0.001  0.000  0.011  0.012
   34  0.001  0.000  0.011  0.012
   35  0.001  0.000  0.011  0.012
   36  0.002  0.001  0.000  0.002
   37  0.000  0.000  0.000  0.000
tot    0.081  0.009  0.740  0.831
 
band    12 # energy   -5.51612921 # occ.  2.00000000
 
ion      s      p      d    tot
    1  0.000  0.000  0.015  0.016
    2  0.002  0.000  0.006  0.008
    3  0.000  0.000  0.011  0.011
    4  0.002  0.000  0.006  0.008
    5  0.000  0.000  0.006  0.006
    6  0.002  0.001  0.007  0.010
    7  0.000  0.000  0.011  0.011
    8  0.002  0.001  0.007  0.010
    9  0.000  0.000  0.007  0.008
   10  0.000  0.000  0.065  0.066
   11  0.000  0.000  0.039  0.039
   12  0.012  0.000  0.040  0.052
   13  0.000  0.000  0.039  0.039
   14  0.000  0.001  0.015  0.015
   15  0.010  0.000  0.034  0.044
   16  0.011  0.000  0.040  0.052
   17  0.010  0.000  0.032  0.042
   18  0.000  0.000  0.118  0.118
   19  0.000  0.000  0.027  0.028
   20  0.000  0.000  0.040  0.040
   21  0.002  0.000  0.017  0.019
   22  0.001  0.000  0.024  0.025
   23  0.002  0.000  0.017  0.019
   24  0.000  0.000  0.012  0.012
   25  0.000  0.000  0.036  0.036
   26  0.000  0.000  0.027  0.028
   27  0.001  0.000  0.024  0.025
   28  0.000  0.000  0.012  0.012
   29  0.001  0.000  0.005  0.005
   30  0.002  0.000  0.004  0.006
   31  0.001  0.000  0.005  0.005
   32  0.001  0.000  0.004  0.005
   33  0.002  0.000  0.004  0.006
   34  0.001  0.000  0.004  0.005
   35  0.000  0.000  0.005  0.005
   36  0.000  0.000  0.000  0.001
   37  0.000  0.000  0.000  0.000
tot    0.063  0.009  0.767  0.839
 
band    13 # energy   -5.51610261 # occ.  2.00000000
 
ion      s      p      d    tot
    1  0.000  0.000  0.015  0.016
    2  0.001  0.001  0.010  0.011
    3  0.003  0.001  0.005  0.008
    4  0.001  0.001  0.010  0.011
    5  0.000  0.000  0.006  0.006
    6  0.001  0.000  0.009  0.010
    7  0.003  0.001  0.005  0.008
    8  0.001  0.000  0.009  0.010
    9  0.000  0.000  0.007  0.008
   10  0.015  0.000  0.032  0.047
   11  0.000  0.000  0.023  0.023
   12  0.004  0.000  0.057  0.061
   13  0.000  0.000  0.022  0.023
   14  0.000  0.000  0.047  0.047
   15  0.003  0.000  0.089  0.092
   16  0.004  0.000  0.057  0.061
   17  0.003  0.000  0.091  0.094
   18  0.013  0.000  0.005  0.018
   19  0.000  0.000  0.033  0.033
   20  0.002  0.000  0.009  0.012
   21  0.001  0.000  0.033  0.033
   22  0.000  0.000  0.016  0.016
   23  0.001  0.000  0.032  0.033
   24  0.001  0.000  0.028  0.029
   25  0.000  0.000  0.024  0.025
   26  0.000  0.000  0.033  0.034
   27  0.000  0.000  0.016  0.017
   28  0.000  0.000  0.012  0.012
   29  0.002  0.000  0.003  0.006
   30  0.000  0.000  0.005  0.005
   31  0.002  0.000  0.003  0.006
   32  0.002  0.000  0.004  0.006
   33  0.000  0.000  0.005  0.005
   34  0.002  0.000  0.004  0.006
   35  0.000  0.000  0.005  0.005
   36  0.000  0.000  0.000  0.001
   37  0.000  0.000  0.000  0.000
tot    0.063  0.009  0.767  0.839
 
band    14 # energy   -5.51417625 # occ.  2.00000000
 
ion      s      p      d    tot
    1  0.002  0.000  0.002  0.004
    2  0.000  0.000  0.010  0.010
    3  0.000  0.000  0.010  0.010
    4  0.000  0.000  0.010  0.010
    5  0.003  0.001  0.000  0.004
    6  0.000  0.000  0.010  0.010
    7  0.000  0.000  0.010  0.010
    8  0.000  0.000  0.010  0.010
    9  0.000  0.000  0.013  0.014
   10  0.001  0.000  0.048  0.049
   11  0.004  0.000  0.003  0.008
   12  0.001  0.000  0.048  0.049
   13  0.004  0.000  0.003  0.008
   14  0.004  0.000  0.003  0.008
   15  0.003  0.000  0.067  0.070
   16  0.001  0.000  0.048  0.049
   17  0.003  0.000  0.067  0.070
   18  0.003  0.000  0.067  0.070
   19  0.001  0.000  0.049  0.050
   20  0.002  0.000  0.021  0.023
   21  0.002  0.000  0.021  0.023
   22  0.000  0.000  0.034  0.035
   23  0.002  0.000  0.021  0.023
   24  0.000  0.000  0.034  0.035
   25  0.001  0.000  0.049  0.050
   26  0.001  0.000  0.049  0.050
   27  0.000  0.000  0.034  0.035
   28  0.000  0.000  0.005  0.005
   29  0.000  0.000  0.007  0.008
   30  0.000  0.000  0.007  0.008
   31  0.000  0.000  0.007  0.008
   32  0.000  0.000  0.007  0.008
   33  0.000  0.000  0.007  0.008
   34  0.000  0.000  0.007  0.008
   35  0.005  0.000  0.003  0.008
   36  0.001  0.001  0.001  0.002
   37  0.000  0.000  0.000  0.000
tot    0.049  0.007  0.791  0.847
 
band    15 # energy   -5.50094469 # occ.  2.00000000
 
ion      s      p      d    tot
    1  0.000  0.000  0.006  0.006
    2  0.003  0.000  0.006  0.010
    3  0.000  0.000  0.010  0.010
    4  0.004  0.000  0.006  0.010
    5  0.000  0.000  0.011  0.011
    6  0.002  0.001  0.007  0.009
    7  0.000  0.000  0.010  0.010
    8  0.002  0.001  0.007  0.009
    9  0.000  0.000  0.019  0.019
   10  0.005  0.000  0.020  0.025
   11  0.002  0.000  0.047  0.049
   12  0.001  0.000  0.032  0.034
   13  0.002  0.000  0.046  0.048
   14  0.007  0.000  0.011  0.018
   15  0.000  0.000  0.026  0.026
   16  0.001  0.000  0.033  0.034
   17  0.000  0.000  0.026  0.026
   18  0.000  0.000  0.042  0.042
   19  0.002  0.000  0.063  0.065
   20  0.000  0.000  0.049  0.049
   21  0.000  0.000  0.023  0.023
   22  0.003  0.000  0.056  0.060
   23  0.000  0.000  0.022  0.022
   24  0.012  0.000  0.020  0.033
   25  0.008  0.000  0.008  0.016
   26  0.002  0.000  0.061  0.063
   27  0.003  0.000  0.058  0.061
   28  0.000  0.000  0.004  0.004
   29  0.000  0.000  0.007  0.007
   30  0.002  0.000  0.002  0.004
   31  0.000  0.000  0.007  0.007
   32  0.001  0.001  0.007  0.009
   33  0.002  0.000  0.002  0.004
   34  0.001  0.001  0.007  0.009
   35  0.000  0.000  0.008  0.009
   36  0.000  0.000  0.001  0.001
   37  0.000  0.000  0.000  0.000
tot    0.065  0.008  0.768  0.841
 
band    16 # energy   -5.50091914 # occ.  2.00000000
 
ion      s      p      d    tot
    1  0.000  0.000  0.006  0.006
    2  0.000  0.000  0.009  0.010
    3  0.003  0.001  0.006  0.010
    4  0.000  0.000  0.009  0.010
    5  0.000  0.000  0.011  0.011
    6  0.002  0.000  0.008  0.010
    7  0.003  0.001  0.006  0.010
    8  0.002  0.000  0.008  0.010
    9  0.000  0.000  0.019  0.019
   10  0.000  0.000  0.036  0.036
   11  0.005  0.000  0.022  0.028
   12  0.004  0.000  0.024  0.028
   13  0.005  0.000  0.023  0.029
   14  0.000  0.000  0.058  0.058
   15  0.000  0.000  0.037  0.037
   16  0.004  0.000  0.024  0.028
   17  0.000  0.000  0.036  0.036
   18  0.000  0.000  0.021  0.021
   19  0.006  0.000  0.025  0.031
   20  0.000  0.000  0.014  0.014
   21  0.000  0.000  0.039  0.040
   22  0.009  0.000  0.033  0.042
   23  0.000  0.000  0.040  0.041
   24  0.000  0.000  0.070  0.070
   25  0.000  0.000  0.080  0.080
   26  0.006  0.000  0.027  0.033
   27  0.009  0.000  0.032  0.041
   28  0.000  0.000  0.004  0.004
   29  0.002  0.001  0.004  0.006
   30  0.000  0.000  0.009  0.010
   31  0.002  0.001  0.004  0.006
   32  0.001  0.000  0.003  0.004
   33  0.000  0.000  0.009  0.010
   34  0.001  0.000  0.004  0.004
   35  0.000  0.000  0.008  0.009
   36  0.000  0.000  0.001  0.001
   37  0.000  0.000  0.000  0.000
tot    0.065  0.008  0.768  0.841
 
band    17 # energy   -5.44328887 # occ.  2.00000000
 
ion      s      p      d    tot
    1  0.005  0.000  0.002  0.007
    2  0.001  0.000  0.008  0.010
    3  0.001  0.000  0.008  0.010
    4  0.001  0.000  0.008  0.010
    5  0.001  0.000  0.014  0.016
    6  0.001  0.000  0.008  0.010
    7  0.001  0.000  0.008  0.010
    8  0.001  0.000  0.008  0.010
    9  0.000  0.000  0.006  0.007
   10  0.000  0.000  0.008  0.008
   11  0.002  0.000  0.015  0.017
   12  0.000  0.000  0.008  0.008
   13  0.002  0.000  0.015  0.017
   14  0.002  0.000  0.015  0.017
   15  0.003  0.000  0.008  0.011
   16  0.000  0.000  0.008  0.008
   17  0.003  0.000  0.008  0.011
   18  0.003  0.000  0.008  0.011
   19  0.001  0.001  0.015  0.017
   20  0.000  0.001  0.021  0.021
   21  0.000  0.001  0.021  0.021
   22  0.000  0.001  0.017  0.019
   23  0.000  0.001  0.021  0.021
   24  0.000  0.001  0.017  0.019
   25  0.001  0.001  0.015  0.017
   26  0.001  0.001  0.015  0.017
   27  0.000  0.001  0.017  0.019
   28  0.016  0.000  0.042  0.058
   29  0.015  0.000  0.032  0.048
   30  0.015  0.000  0.032  0.048
   31  0.015  0.000  0.032  0.048
   32  0.015  0.000  0.032  0.048
   33  0.015  0.000  0.032  0.048
   34  0.015  0.000  0.032  0.048
   35  0.018  0.000  0.033  0.051
   36  0.003  0.001  0.009  0.014
   37  0.005  0.000  0.000  0.005
tot    0.168  0.009  0.603  0.781
 
band    18 # energy   -5.36674808 # occ.  2.00000000
 
ion      s      p      d    tot
    1  0.001  0.000  0.000  0.001
    2  0.000  0.000  0.006  0.007
    3  0.000  0.000  0.006  0.007
    4  0.000  0.000  0.006  0.007
    5  0.000  0.000  0.014  0.015
    6  0.000  0.000  0.006  0.007
    7  0.000  0.000  0.006  0.007
    8  0.000  0.000  0.006  0.007
    9  0.002  0.001  0.007  0.010
   10  0.000  0.000  0.015  0.015
   11  0.000  0.000  0.068  0.069
   12  0.000  0.000  0.015  0.015
   13  0.000  0.000  0.068  0.069
   14  0.000  0.000  0.068  0.069
   15  0.000  0.001  0.042  0.043
   16  0.000  0.000  0.015  0.015
   17  0.000  0.001  0.042  0.043
   18  0.000  0.001  0.042  0.043
   19  0.000  0.000  0.021  0.021
   20  0.001  0.001  0.071  0.072
   21  0.001  0.001  0.071  0.072
   22  0.002  0.000  0.022  0.024
   23  0.001  0.001  0.071  0.072
   24  0.002  0.000  0.022  0.024
   25  0.000  0.000  0.021  0.021
   26  0.000  0.000  0.021  0.021
   27  0.002  0.000  0.022  0.024
   28  0.004  0.001  0.000  0.006
   29  0.000  0.000  0.010  0.010
   30  0.000  0.000  0.010  0.010
   31  0.000  0.000  0.010  0.010
   32  0.000  0.000  0.010  0.010
   33  0.000  0.000  0.010  0.010
   34  0.000  0.000  0.010  0.010
   35  0.001  0.000  0.001  0.002
   36  0.000  0.001  0.001  0.003
   37  0.001  0.000  0.000  0.001
tot    0.020  0.014  0.835  0.870
 
band    19 # energy   -5.35381824 # occ.  2.00000000
 
ion      s      p      d    tot
    1  0.000  0.000  0.001  0.001
    2  0.001  0.001  0.007  0.009
    3  0.000  0.000  0.009  0.010
    4  0.001  0.001  0.007  0.009
    5  0.000  0.001  0.015  0.016
    6  0.001  0.000  0.006  0.007
    7  0.000  0.000  0.010  0.010
    8  0.001  0.000  0.005  0.007
    9  0.000  0.000  0.011  0.011
   10  0.000  0.001  0.022  0.024
   11  0.000  0.000  0.080  0.081
   12  0.000  0.000  0.031  0.031
   13  0.000  0.000  0.083  0.083
   14  0.002  0.000  0.042  0.043
   15  0.001  0.000  0.018  0.019
   16  0.000  0.000  0.030  0.031
   17  0.001  0.000  0.017  0.017
   18  0.002  0.001  0.039  0.042
   19  0.001  0.000  0.013  0.014
   20  0.003  0.000  0.045  0.049
   21  0.001  0.000  0.081  0.081
   22  0.000  0.000  0.030  0.031
   23  0.001  0.000  0.078  0.079
   24  0.000  0.001  0.020  0.021
   25  0.003  0.001  0.033  0.037
   26  0.001  0.000  0.011  0.012
   27  0.000  0.000  0.030  0.030
   28  0.000  0.000  0.009  0.009
   29  0.001  0.000  0.005  0.006
   30  0.000  0.000  0.007  0.008
   31  0.001  0.000  0.005  0.006
   32  0.002  0.001  0.006  0.008
   33  0.000  0.000  0.007  0.008
   34  0.002  0.001  0.006  0.008
   35  0.000  0.000  0.001  0.001
   36  0.000  0.001  0.002  0.003
   37  0.000  0.000  0.000  0.000
tot    0.026  0.015  0.822  0.863
 
band    20 # energy   -5.35380867 # occ.  2.00000000
 
ion      s      p      d    tot
    1  0.000  0.000  0.001  0.001
    2  0.000  0.000  0.008  0.008
    3  0.001  0.001  0.005  0.007
    4  0.000  0.000  0.008  0.008
    5  0.000  0.001  0.015  0.016
    6  0.001  0.001  0.009  0.010
    7  0.001  0.001  0.005  0.007
    8  0.001  0.000  0.009  0.010
    9  0.000  0.000  0.011  0.011
   10  0.000  0.000  0.034  0.034
   11  0.001  0.000  0.057  0.058
   12  0.000  0.001  0.025  0.026
   13  0.001  0.000  0.054  0.055
   14  0.000  0.000  0.094  0.095
   15  0.002  0.001  0.031  0.033
   16  0.000  0.001  0.025  0.026
   17  0.002  0.001  0.033  0.035
   18  0.000  0.000  0.010  0.010
   19  0.002  0.001  0.025  0.028
   20  0.000  0.000  0.091  0.091
   21  0.003  0.000  0.055  0.058
   22  0.000  0.001  0.023  0.024
   23  0.002  0.000  0.058  0.060
   24  0.000  0.000  0.033  0.033
   25  0.000  0.000  0.005  0.005
   26  0.002  0.001  0.027  0.030
   27  0.000  0.001  0.024  0.024
   28  0.000  0.000  0.009  0.009
   29  0.001  0.001  0.007  0.009
   30  0.002  0.001  0.005  0.007
   31  0.001  0.001  0.007  0.009
   32  0.000  0.000  0.006  0.006
   33  0.002  0.001  0.005  0.007
   34  0.000  0.000  0.006  0.006
   35  0.000  0.000  0.001  0.001
   36  0.000  0.001  0.002  0.003
   37  0.000  0.000  0.000  0.000
tot    0.026  0.015  0.822  0.863
 
band    21 # energy   -5.34467973 # occ.  2.00000000
 
ion      s      p      d    tot
    1  0.001  0.000  0.007  0.008
    2  0.000  0.000  0.011  0.012
    3  0.000  0.000  0.011  0.012
    4  0.000  0.000  0.011  0.012
    5  0.004  0.001  0.001  0.006
    6  0.000  0.000  0.011  0.012
    7  0.000  0.000  0.011  0.012
    8  0.000  0.000  0.011  0.012
    9  0.001  0.000  0.004  0.005
   10  0.002  0.001  0.054  0.057
   11  0.000  0.000  0.025  0.025
   12  0.002  0.001  0.055  0.057
   13  0.000  0.000  0.025  0.025
   14  0.000  0.000  0.025  0.025
   15  0.002  0.000  0.028  0.030
   16  0.002  0.001  0.055  0.057
   17  0.002  0.000  0.028  0.030
   18  0.002  0.000  0.028  0.030
   19  0.002  0.000  0.050  0.052
   20  0.001  0.000  0.016  0.017
   21  0.001  0.000  0.016  0.017
   22  0.000  0.001  0.045  0.047
   23  0.001  0.000  0.016  0.017
   24  0.000  0.001  0.046  0.047
   25  0.002  0.000  0.051  0.053
   26  0.002  0.000  0.050  0.052
   27  0.000  0.001  0.045  0.047
   28  0.000  0.000  0.011  0.012
   29  0.000  0.000  0.010  0.010
   30  0.000  0.000  0.010  0.010
   31  0.000  0.000  0.010  0.010
   32  0.000  0.000  0.010  0.010
   33  0.000  0.000  0.010  0.010
   34  0.000  0.000  0.010  0.010
   35  0.003  0.001  0.004  0.008
   36  0.002  0.000  0.000  0.003