PROCAR new format
# of k-points:   10         # of bands:  252         # of ions:   37

 k-point     1 :    0.00000000 0.00000000 0.00000000     weight = 0.01562500

band     1 # energy  -11.43482241 # occ.  2.00000000
 
ion      s      p      d    tot
    1  0.000  0.000  0.000  0.000
    2  0.000  0.000  0.000  0.000
    3  0.000  0.000  0.000  0.000
    4  0.000  0.000  0.000  0.000
    5  0.000  0.000  0.000  0.000
    6  0.000  0.000  0.000  0.000
    7  0.000  0.000  0.000  0.000
    8  0.000  0.000  0.000  0.000
    9  0.000  0.000  0.000  0.000
   10  0.000  0.000  0.000  0.000
   11  0.000  0.000  0.000  0.000
   12  0.000  0.000  0.000  0.000
   13  0.000  0.000  0.000  0.000
   14  0.000  0.000  0.000  0.000
   15  0.000  0.000  0.000  0.000
   16  0.000  0.000  0.000  0.000
   17  0.000  0.000  0.000  0.000
   18  0.000  0.000  0.000  0.000
   19  0.000  0.000  0.000  0.000
   20  0.001  0.000  0.000  0.001
   21  0.001  0.000  0.000  0.001
   22  0.000  0.000  0.000  0.000
   23  0.001  0.000  0.000  0.001
   24  0.000  0.000  0.000  0.000
   25  0.000  0.000  0.000  0.000
   26  0.000  0.000  0.000  0.000
   27  0.000  0.000  0.000  0.000
   28  0.000  0.000  0.000  0.000
   29  0.000  0.000  0.000  0.000
   30  0.000  0.000  0.000  0.000
   31  0.000  0.000  0.000  0.000
   32  0.000  0.000  0.000  0.000
   33  0.000  0.000  0.000  0.000
   34  0.000  0.000  0.000  0.000
   35  0.000  0.000  0.000  0.000
   36  0.068  0.055  0.121  0.243
   37  0.636  0.008  0.000  0.643
tot    0.707  0.064  0.122  0.892
 
band     2 # energy   -9.03075581 # occ.  2.00000000
 
ion      s      p      d    tot
    1  0.007  0.001  0.000  0.007
    2  0.007  0.001  0.000  0.007
    3  0.007  0.001  0.000  0.007
    4  0.007  0.001  0.000  0.007
    5  0.007  0.001  0.000  0.007
    6  0.007  0.001  0.000  0.007
    7  0.007  0.001  0.000  0.007
    8  0.007  0.001  0.000  0.007
    9  0.007  0.001  0.000  0.007
   10  0.025  0.000  0.000  0.025
   11  0.024  0.000  0.000  0.024
   12  0.025  0.000  0.000  0.025
   13  0.024  0.000  0.000  0.024
   14  0.024  0.000  0.000  0.024
   15  0.025  0.000  0.000  0.025
   16  0.025  0.000  0.000  0.025
   17  0.025  0.000  0.000  0.025
   18  0.025  0.000  0.000  0.025
   19  0.025  0.000  0.000  0.026
   20  0.023  0.000  0.000  0.024
   21  0.023  0.000  0.000  0.024
   22  0.025  0.000  0.000  0.025
   23  0.023  0.000  0.000  0.024
   24  0.025  0.000  0.000  0.025
   25  0.025  0.000  0.000  0.026
   26  0.025  0.000  0.000  0.026
   27  0.025  0.000  0.000  0.025
   28  0.007  0.001  0.000  0.008
   29  0.007  0.001  0.000  0.008
   30  0.007  0.001  0.000  0.008
   31  0.007  0.001  0.000  0.008
   32  0.007  0.001  0.000  0.008
   33  0.007  0.001  0.000  0.008
   34  0.007  0.001  0.000  0.008
   35  0.007  0.001  0.000  0.008
   36  0.005  0.003  0.001  0.008
   37  0.003  0.000  0.000  0.003
tot    0.564  0.019  0.002  0.584
 
band     3 # energy   -7.75017019 # occ.  2.00000000
 
ion      s      p      d    tot
    1  0.018  0.001  0.000  0.019
    2  0.018  0.001  0.000  0.019
    3  0.018  0.001  0.000  0.019
    4  0.018  0.001  0.000  0.019
    5  0.018  0.001  0.000  0.019
    6  0.018  0.001  0.000  0.019
    7  0.018  0.001  0.000  0.019
    8  0.018  0.001  0.000  0.019
    9  0.018  0.001  0.000  0.019
   10  0.010  0.002  0.001  0.013
   11  0.010  0.002  0.000  0.013
   12  0.010  0.002  0.001  0.013
   13  0.010  0.002  0.000  0.013
   14  0.010  0.002  0.000  0.013
   15  0.010  0.002  0.001  0.013
   16  0.010  0.002  0.001  0.013
   17  0.010  0.002  0.001  0.013
   18  0.010  0.002  0.001  0.013
   19  0.010  0.002  0.000  0.013
   20  0.008  0.002  0.001  0.011
   21  0.008  0.002  0.001  0.011
   22  0.010  0.002  0.000  0.013
   23  0.008  0.002  0.001  0.011
   24  0.010  0.002  0.000  0.013
   25  0.010  0.002  0.000  0.013
   26  0.010  0.002  0.000  0.013
   27  0.010  0.002  0.000  0.013
   28  0.021  0.001  0.001  0.022
   29  0.019  0.001  0.001  0.021
   30  0.019  0.001  0.001  0.021
   31  0.019  0.001  0.001  0.021
   32  0.019  0.001  0.001  0.021
   33  0.019  0.001  0.001  0.021
   34  0.019  0.001  0.001  0.021
   35  0.020  0.001  0.001  0.022
   36  0.015  0.003  0.003  0.022
   37  0.003  0.000  0.000  0.003
tot    0.511  0.056  0.023  0.590
 
band     4 # energy   -6.16034074 # occ.  2.00000000
 
ion      s      p      d    tot
    1  0.016  0.000  0.006  0.022
    2  0.016  0.000  0.006  0.021
    3  0.016  0.000  0.006  0.021
    4  0.016  0.000  0.006  0.021
    5  0.010  0.000  0.006  0.016
    6  0.016  0.000  0.006  0.021
    7  0.016  0.000  0.006  0.021
    8  0.016  0.000  0.006  0.021
    9  0.022  0.000  0.004  0.027
   10  0.003  0.004  0.002  0.009
   11  0.008  0.004  0.001  0.014
   12  0.003  0.004  0.002  0.009
   13  0.008  0.004  0.001  0.014
   14  0.008  0.004  0.001  0.014
   15  0.000  0.003  0.003  0.006
   16  0.003  0.004  0.002  0.009
   17  0.000  0.003  0.003  0.006
   18  0.000  0.003  0.003  0.006
   19  0.002  0.003  0.005  0.010
   20  0.015  0.004  0.003  0.021
   21  0.015  0.004  0.003  0.021
   22  0.002  0.003  0.004  0.009
   23  0.015  0.004  0.003  0.021
   24  0.002  0.003  0.004  0.009
   25  0.002  0.003  0.005  0.010
   26  0.002  0.003  0.005  0.010
   27  0.002  0.003  0.004  0.009
   28  0.021  0.000  0.007  0.028
   29  0.017  0.000  0.008  0.026
   30  0.017  0.000  0.008  0.026
   31  0.017  0.000  0.008  0.026
   32  0.017  0.000  0.008  0.026
   33  0.017  0.000  0.008  0.026
   34  0.017  0.000  0.008  0.026
   35  0.026  0.000  0.007  0.032
   36  0.008  0.000  0.013  0.021
   37  0.000  0.000  0.000  0.000
tot    0.392  0.066  0.179  0.636
 
band     5 # energy   -6.06669903 # occ.  2.00000000
 
ion      s      p      d    tot
    1  0.000  0.003  0.004  0.006
    2  0.004  0.002  0.002  0.008
    3  0.008  0.002  0.002  0.012
    4  0.005  0.002  0.002  0.009
    5  0.000  0.000  0.002  0.002
    6  0.001  0.001  0.002  0.003
    7  0.008  0.002  0.002  0.012
    8  0.000  0.001  0.002  0.003
    9  0.000  0.002  0.005  0.006
   10  0.037  0.001  0.006  0.044
   11  0.000  0.006  0.005  0.011
   12  0.008  0.009  0.005  0.022
   13  0.000  0.006  0.005  0.012
   14  0.001  0.002  0.004  0.006
   15  0.014  0.002  0.012  0.027
   16  0.011  0.008  0.005  0.024
   17  0.010  0.001  0.012  0.024
   18  0.048  0.005  0.003  0.055
   19  0.019  0.004  0.012  0.035
   20  0.016  0.004  0.003  0.022
   21  0.003  0.003  0.011  0.017
   22  0.004  0.011  0.002  0.017
   23  0.005  0.003  0.010  0.018
   24  0.016  0.000  0.007  0.023
   25  0.066  0.004  0.005  0.074
   26  0.014  0.004  0.012  0.030
   27  0.005  0.010  0.002  0.017
   28  0.000  0.004  0.007  0.011
   29  0.004  0.002  0.003  0.009
   30  0.014  0.003  0.004  0.021
   31  0.006  0.002  0.003  0.010
   32  0.003  0.001  0.003  0.008
   33  0.015  0.003  0.004  0.022
   34  0.002  0.001  0.003  0.007
   35  0.000  0.002  0.004  0.006
   36  0.000  0.000  0.005  0.006
   37  0.000  0.000  0.000  0.000
tot    0.348  0.114  0.179  0.641
 
band     6 # energy   -6.06659481 # occ.  2.00000000
 
ion      s      p      d    tot
    1  0.000  0.003  0.004  0.006
    2  0.005  0.001  0.002  0.008
    3  0.001  0.001  0.002  0.004
    4  0.004  0.001  0.002  0.007
    5  0.000  0.000  0.002  0.002
    6  0.008  0.002  0.002  0.013
    7  0.001  0.001  0.002  0.003
    8  0.009  0.002  0.002  0.013
    9  0.000  0.002  0.005  0.006
   10  0.000  0.011  0.005  0.016
   11  0.001  0.003  0.004  0.008
   12  0.029  0.003  0.006  0.038
   13  0.001  0.003  0.004  0.008
   14  0.000  0.007  0.006  0.013
   15  0.034  0.003  0.006  0.044
   16  0.026  0.004  0.006  0.036
   17  0.038  0.004  0.005  0.047
   18  0.000  0.000  0.015  0.016
   19  0.047  0.004  0.007  0.058
   20  0.000  0.003  0.013  0.016
   21  0.013  0.004  0.005  0.021
   22  0.013  0.003  0.005  0.021
   23  0.011  0.004  0.006  0.020
   24  0.000  0.014  0.001  0.015
   25  0.000  0.004  0.014  0.018
   26  0.052  0.004  0.007  0.063
   27  0.012  0.004  0.005  0.021
   28  0.000  0.004  0.007  0.011
   29  0.011  0.002  0.004  0.017
   30  0.000  0.001  0.003  0.004
   31  0.009  0.002  0.004  0.015
   32  0.012  0.003  0.003  0.018
   33  0.000  0.001  0.003  0.004
   34  0.013  0.003  0.004  0.019
   35  0.000  0.002  0.004  0.006
   36  0.000  0.000  0.005  0.006
   37  0.000  0.000  0.000  0.000
tot    0.348  0.114  0.179  0.641
 
band     7 # energy   -6.05094214 # occ.  2.00000000
 
ion      s      p      d    tot
    1  0.019  0.003  0.001  0.023
    2  0.000  0.002  0.004  0.005
    3  0.000  0.002  0.004  0.005
    4  0.000  0.002  0.004  0.005
    5  0.002  0.000  0.000  0.003
    6  0.000  0.002  0.004  0.005
    7  0.000  0.002  0.004  0.005
    8  0.000  0.002  0.004  0.005
    9  0.008  0.001  0.000  0.009
   10  0.030  0.006  0.005  0.041
   11  0.006  0.000  0.011  0.017
   12  0.030  0.006  0.005  0.042
   13  0.006  0.000  0.011  0.017
   14  0.006  0.000  0.011  0.017
   15  0.010  0.007  0.004  0.021
   16  0.030  0.006  0.005  0.042
   17  0.010  0.007  0.004  0.021
   18  0.010  0.007  0.004  0.021
   19  0.025  0.010  0.002  0.036
   20  0.000  0.003  0.010  0.013
   21  0.000  0.003  0.010  0.013
   22  0.024  0.002  0.009  0.035
   23  0.000  0.003  0.010  0.013
   24  0.023  0.002  0.009  0.035
   25  0.025  0.010  0.002  0.037
   26  0.025  0.010  0.002  0.036
   27  0.023  0.002  0.010  0.035
   28  0.019  0.003  0.001  0.023
   29  0.000  0.002  0.005  0.007
   30  0.000  0.002  0.005  0.007
   31  0.000  0.002  0.005  0.007
   32  0.000  0.002  0.005  0.007
   33  0.000  0.002  0.005  0.007
   34  0.000  0.002  0.005  0.007
   35  0.014  0.002  0.001  0.017
   36  0.000  0.000  0.000  0.000
   37  0.000  0.000  0.000  0.000
tot    0.345  0.115  0.181  0.641
 
band     8 # energy   -6.03240249 # occ.  2.00000000
 
ion      s      p      d    tot
    1  0.000  0.000  0.004  0.004
    2  0.003  0.001  0.002  0.007
    3  0.008  0.002  0.002  0.012
    4  0.007  0.002  0.002  0.012
    5  0.000  0.003  0.006  0.009
    6  0.002  0.001  0.002  0.005
    7  0.010  0.002  0.002  0.015
    8  0.000  0.001  0.002  0.003
    9  0.000  0.001  0.003  0.004
   10  0.001  0.002  0.013  0.016
   11  0.033  0.004  0.008  0.045
   12  0.021  0.004  0.003  0.028
   13  0.055  0.003  0.005  0.064
   14  0.003  0.005  0.012  0.020
   15  0.005  0.006  0.004  0.015
   16  0.012  0.003  0.008  0.023
   17  0.008  0.001  0.006  0.015
   18  0.000  0.012  0.002  0.015
   19  0.000  0.005  0.005  0.010
   20  0.002  0.011  0.006  0.019
   21  0.044  0.002  0.007  0.053
   22  0.043  0.005  0.004  0.052
   23  0.026  0.006  0.007  0.039
   24  0.002  0.000  0.017  0.019
   25  0.000  0.010  0.005  0.014
   26  0.000  0.002  0.005  0.007
   27  0.026  0.003  0.009  0.038
   28  0.000  0.000  0.003  0.003
   29  0.002  0.001  0.002  0.006
   30  0.009  0.003  0.004  0.015
   31  0.006  0.002  0.003  0.011
   32  0.003  0.002  0.003  0.008
   33  0.010  0.003  0.003  0.016
   34  0.000  0.001  0.003  0.004
   35  0.000  0.002  0.005  0.007
   36  0.000  0.004  0.006  0.011
   37  0.000  0.000  0.000  0.000
tot    0.343  0.117  0.182  0.641
 
band     9 # energy   -6.03229428 # occ.  2.00000000
 
ion      s      p      d    tot
    1  0.000  0.000  0.004  0.004
    2  0.007  0.002  0.002  0.011
    3  0.002  0.001  0.002  0.006
    4  0.003  0.001  0.002  0.006
    5  0.000  0.003  0.006  0.009
    6  0.008  0.002  0.002  0.013
    7  0.000  0.001  0.002  0.003
    8  0.010  0.002  0.002  0.015
    9  0.000  0.001  0.003  0.004
   10  0.022  0.004  0.003  0.029
   11  0.027  0.004  0.009  0.040
   12  0.002  0.002  0.013  0.017
   13  0.005  0.005  0.011  0.022
   14  0.058  0.003  0.005  0.066
   15  0.004  0.007  0.004  0.015
   16  0.010  0.003  0.009  0.022
   17  0.001  0.012  0.002  0.015
   18  0.009  0.001  0.006  0.015
   19  0.000  0.006  0.005  0.011
   20  0.046  0.002  0.007  0.054
   21  0.004  0.010  0.007  0.021
   22  0.004  0.000  0.016  0.021
   23  0.022  0.007  0.007  0.035
   24  0.046  0.005  0.003  0.054
   25  0.000  0.002  0.005  0.007
   26  0.000  0.009  0.005  0.014
   27  0.022  0.002  0.010  0.034
   28  0.000  0.000  0.003  0.003
   29  0.008  0.002  0.004  0.014
   30  0.001  0.001  0.002  0.005
   31  0.004  0.002  0.003  0.009
   32  0.007  0.002  0.003  0.012
   33  0.000  0.001  0.003  0.004
   34  0.010  0.003  0.003  0.016
   35  0.000  0.002  0.005  0.007
   36  0.000  0.004  0.006  0.011
   37  0.000  0.000  0.000  0.000
tot    0.343  0.117  0.182  0.641
 
band    10 # energy   -5.96529112 # occ.  2.00000000
 
ion      s      p      d    tot
    1  0.000  0.000  0.000  0.001
    2  0.001  0.002  0.005  0.008
    3  0.001  0.002  0.005  0.008
    4  0.001  0.002  0.005  0.008
    5  0.033  0.003  0.000  0.036
    6  0.001  0.002  0.005  0.008
    7  0.001  0.002  0.005  0.008
    8  0.001  0.002  0.005  0.008
    9  0.007  0.002  0.003  0.012
   10  0.001  0.004  0.009  0.014
   11  0.022  0.009  0.003  0.034
   12  0.001  0.004  0.009  0.014
   13  0.022  0.009  0.003  0.034
   14  0.022  0.009  0.003  0.034
   15  0.028  0.002  0.011  0.041
   16  0.001  0.004  0.009  0.014
   17  0.028  0.002  0.011  0.041
   18  0.028  0.002  0.011  0.041
   19  0.007  0.001  0.011  0.018
   20  0.023  0.005  0.006  0.034
   21  0.023  0.005  0.006  0.034
   22  0.010  0.007  0.004  0.021
   23  0.023  0.005  0.006  0.034
   24  0.010  0.007  0.004  0.021
   25  0.007  0.001  0.011  0.018
   26  0.007  0.001  0.011  0.018
   27  0.010  0.007  0.004  0.021
   28  0.000  0.000  0.002  0.002
   29  0.001  0.001  0.004  0.006
   30  0.001  0.001  0.004  0.006
   31  0.001  0.001  0.004  0.006
   32  0.001  0.001  0.004  0.006
   33  0.001  0.001  0.004  0.006
   34  0.001  0.001  0.004  0.006
   35  0.001  0.001  0.001  0.003
   36  0.017  0.006  0.000  0.022
   37  0.002  0.001  0.000  0.002
tot    0.345  0.114  0.193  0.653
 
band    11 # energy   -5.33148209 # occ.  2.00000000
 
ion      s      p      d    tot
    1  0.000  0.004  0.010  0.014
    2  0.003  0.002  0.005  0.010
    3  0.021  0.004  0.005  0.030
    4  0.006  0.002  0.005  0.013
    5  0.000  0.000  0.010  0.011
    6  0.008  0.002  0.005  0.015
    7  0.020  0.004  0.005  0.029
    8  0.005  0.002  0.005  0.012
    9  0.000  0.005  0.008  0.013
   10  0.012  0.001  0.006  0.019
   11  0.001  0.002  0.012  0.016
   12  0.002  0.004  0.016  0.022
   13  0.001  0.003  0.013  0.016
   14  0.003  0.001  0.008  0.012
   15  0.009  0.002  0.016  0.027
   16  0.004  0.003  0.014  0.022
   17  0.005  0.001  0.019  0.025
   18  0.027  0.005  0.005  0.037
   19  0.004  0.002  0.013  0.019
   20  0.001  0.001  0.010  0.011
   21  0.000  0.002  0.013  0.015
   22  0.001  0.002  0.025  0.029
   23  0.000  0.002  0.013  0.015
   24  0.008  0.003  0.003  0.013
   25  0.013  0.007  0.009  0.028
   26  0.002  0.001  0.014  0.017
   27  0.003  0.002  0.021  0.026
   28  0.000  0.005  0.008  0.013
   29  0.004  0.002  0.008  0.014
   30  0.027  0.004  0.009  0.039
   31  0.008  0.002  0.008  0.018
   32  0.009  0.002  0.008  0.020
   33  0.026  0.004  0.009  0.039
   34  0.005  0.002  0.008  0.015
   35  0.000  0.005  0.011  0.016
   36  0.000  0.000  0.014  0.014
   37  0.000  0.000  0.000  0.000
tot    0.236  0.094  0.374  0.704
 
band    12 # energy   -5.33141269 # occ.  2.00000000
 
ion      s      p      d    tot
    1  0.000  0.004  0.010  0.014
    2  0.018  0.003  0.005  0.026
    3  0.000  0.002  0.005  0.006
    4  0.015  0.003  0.005  0.023
    5  0.000  0.000  0.010  0.011
    6  0.013  0.003  0.005  0.021
    7  0.000  0.002  0.005  0.007
    8  0.016  0.003  0.005  0.024
    9  0.000  0.005  0.008  0.013
   10  0.000  0.004  0.018  0.023
   11  0.002  0.002  0.010  0.014
   12  0.010  0.002  0.008  0.020
   13  0.003  0.002  0.009  0.013
   14  0.000  0.003  0.014  0.017
   15  0.018  0.003  0.011  0.032
   16  0.008  0.002  0.010  0.020
   17  0.022  0.004  0.008  0.034
   18  0.000  0.000  0.022  0.022
   19  0.009  0.004  0.011  0.024
   20  0.000  0.002  0.014  0.016
   21  0.001  0.001  0.011  0.012
   22  0.006  0.002  0.008  0.017
   23  0.000  0.001  0.011  0.013
   24  0.000  0.002  0.030  0.032
   25  0.000  0.000  0.015  0.015
   26  0.010  0.005  0.010  0.026
   27  0.005  0.002  0.012  0.019
   28  0.000  0.005  0.008  0.013
   29  0.022  0.003  0.009  0.035
   30  0.000  0.002  0.007  0.009
   31  0.018  0.003  0.009  0.030
   32  0.017  0.003  0.009  0.029
   33  0.000  0.002  0.007  0.009
   34  0.021  0.003  0.009  0.034
   35  0.000  0.005  0.011  0.016
   36  0.000  0.000  0.014  0.014
   37  0.000  0.000  0.000  0.000
tot    0.236  0.094  0.374  0.704
 
band    13 # energy   -5.31164762 # occ.  2.00000000
 
ion      s      p      d    tot
    1  0.005  0.000  0.010  0.016
    2  0.006  0.001  0.010  0.016
    3  0.005  0.001  0.010  0.016
    4  0.006  0.001  0.010  0.016
    5  0.001  0.001  0.010  0.012
    6  0.006  0.001  0.010  0.016
    7  0.005  0.001  0.010  0.016
    8  0.006  0.001  0.010  0.016
    9  0.014  0.000  0.008  0.022
   10  0.008  0.000  0.025  0.033
   11  0.010  0.000  0.022  0.032
   12  0.008  0.000  0.025  0.033
   13  0.010  0.000  0.022  0.032
   14  0.010  0.000  0.022  0.032
   15  0.003  0.000  0.023  0.026
   16  0.008  0.000  0.025  0.033
   17  0.003  0.000  0.023  0.026
   18  0.003  0.000  0.023  0.026
   19  0.005  0.000  0.020  0.025
   20  0.009  0.000  0.023  0.033
   21  0.009  0.000  0.023  0.033
   22  0.003  0.000  0.021  0.024
   23  0.009  0.000  0.023  0.033
   24  0.003  0.000  0.021  0.024
   25  0.005  0.000  0.020  0.025
   26  0.005  0.000  0.020  0.025
   27  0.003  0.000  0.021  0.024
   28  0.002  0.000  0.007  0.010
   29  0.003  0.001  0.009  0.013
   30  0.003  0.001  0.009  0.013
   31  0.003  0.001  0.009  0.013
   32  0.003  0.001  0.009  0.013
   33  0.003  0.001  0.009  0.013
   34  0.003  0.001  0.009  0.013
   35  0.010  0.000  0.007  0.017
   36  0.001  0.001  0.008  0.009
   37  0.000  0.000  0.000  0.000
tot    0.204  0.014  0.562  0.779
 
band    14 # energy   -5.29270439 # occ.  2.00000000
 
ion      s      p      d    tot
    1  0.032  0.003  0.000  0.036
    2  0.000  0.003  0.010  0.013
    3  0.000  0.003  0.010  0.013
    4  0.000  0.003  0.010  0.013
    5  0.000  0.000  0.000  0.001
    6  0.000  0.003  0.010  0.013
    7  0.000  0.003  0.010  0.013
    8  0.000  0.003  0.010  0.013
    9  0.028  0.004  0.001  0.033
   10  0.009  0.003  0.010  0.022
   11  0.001  0.000  0.015  0.016
   12  0.009  0.003  0.010  0.022
   13  0.001  0.000  0.015  0.016
   14  0.001  0.000  0.015  0.016
   15  0.008  0.004  0.015  0.027
   16  0.009  0.003  0.010  0.022
   17  0.008  0.004  0.015  0.027
   18  0.008  0.004  0.015  0.027
   19  0.003  0.003  0.021  0.027
   20  0.000  0.000  0.013  0.014
   21  0.000  0.000  0.013  0.014
   22  0.010  0.004  0.009  0.023
   23  0.000  0.000  0.013  0.014
   24  0.010  0.004  0.009  0.023
   25  0.003  0.003  0.021  0.027
   26  0.003  0.003  0.021  0.027
   27  0.010  0.004  0.009  0.023
   28  0.038  0.003  0.000  0.041
   29  0.000  0.003  0.013  0.017
   30  0.000  0.003  0.013  0.017
   31  0.000  0.003  0.013  0.017
   32  0.000  0.003  0.013  0.017
   33  0.000  0.003  0.013  0.017
   34  0.000  0.003  0.013  0.017
   35  0.029  0.004  0.001  0.033
   36  0.000  0.000  0.000  0.000
   37  0.000  0.000  0.000  0.000
tot    0.225  0.092  0.389  0.705
 
band    15 # energy   -5.27338700 # occ.  2.00000000
 
ion      s      p      d    tot
    1  0.000  0.002  0.009  0.011
    2  0.000  0.002  0.005  0.007
    3  0.020  0.004  0.005  0.029
    4  0.009  0.003  0.005  0.017
    5  0.000  0.006  0.009  0.015
    6  0.013  0.003  0.005  0.021
    7  0.018  0.004  0.005  0.027
    8  0.002  0.002  0.005  0.009
    9  0.000  0.001  0.012  0.013
   10  0.001  0.001  0.016  0.018
   11  0.009  0.003  0.016  0.028
   12  0.013  0.004  0.009  0.026
   13  0.019  0.004  0.006  0.029
   14  0.002  0.002  0.024  0.028
   15  0.000  0.002  0.013  0.016
   16  0.006  0.002  0.013  0.021
   17  0.001  0.000  0.008  0.009
   18  0.000  0.004  0.017  0.021
   19  0.001  0.002  0.016  0.019
   20  0.002  0.001  0.027  0.031
   21  0.019  0.005  0.007  0.031
   22  0.009  0.004  0.010  0.023
   23  0.009  0.003  0.019  0.031
   24  0.001  0.001  0.013  0.015
   25  0.000  0.003  0.022  0.025
   26  0.002  0.000  0.008  0.010
   27  0.004  0.002  0.012  0.019
   28  0.000  0.002  0.014  0.016
   29  0.001  0.001  0.006  0.008
   30  0.018  0.004  0.008  0.030
   31  0.010  0.003  0.007  0.020
   32  0.011  0.003  0.007  0.021
   33  0.018  0.004  0.007  0.029
   34  0.001  0.002  0.006  0.009
   35  0.000  0.001  0.011  0.013
   36  0.000  0.008  0.009  0.016
   37  0.000  0.000  0.000  0.000
tot    0.222  0.095  0.395  0.712
 
band    16 # energy   -5.27333892 # occ.  2.00000000
 
ion      s      p      d    tot
    1  0.000  0.002  0.009  0.011
    2  0.021  0.004  0.005  0.030
    3  0.001  0.002  0.005  0.008
    4  0.012  0.003  0.005  0.019
    5  0.000  0.006  0.009  0.015
    6  0.008  0.002  0.005  0.015
    7  0.003  0.002  0.005  0.010
    8  0.019  0.004  0.005  0.028
    9  0.000  0.001  0.012  0.013
   10  0.013  0.004  0.009  0.026
   11  0.011  0.003  0.015  0.028
   12  0.001  0.001  0.016  0.018
   13  0.001  0.002  0.025  0.028
   14  0.018  0.004  0.007  0.029
   15  0.000  0.002  0.013  0.015
   16  0.007  0.002  0.012  0.022
   17  0.000  0.004  0.018  0.021
   18  0.001  0.000  0.009  0.010
   19  0.001  0.002  0.014  0.017
   20  0.018  0.005  0.008  0.031
   21  0.001  0.001  0.028  0.031
   22  0.000  0.001  0.014  0.015
   23  0.011  0.003  0.017  0.031
   24  0.009  0.004  0.010  0.022
   25  0.002  0.000  0.009  0.011
   26  0.000  0.003  0.022  0.026
   27  0.005  0.002  0.012  0.019
   28  0.000  0.002  0.014  0.016
   29  0.019  0.004  0.008  0.031
   30  0.002  0.002  0.006  0.009
   31  0.010  0.003  0.007  0.019
   32  0.009  0.002  0.007  0.018
   33  0.002  0.002  0.006  0.010
   34  0.019  0.004  0.008  0.030
   35  0.000  0.001  0.011  0.013
   36  0.000  0.008  0.009  0.016
   37  0.000  0.000  0.000  0.000
tot    0.222  0.095  0.395  0.712
 
band    17 # energy   -5.13879950 # occ.  2.00000000
 
ion      s      p      d    tot
    1  0.015  0.002  0.000  0.017
    2  0.000  0.003  0.011  0.014
    3  0.000  0.003  0.011  0.014
    4  0.000  0.003  0.011  0.014
    5  0.045  0.004  0.000  0.049
    6  0.000  0.003  0.011  0.014
    7  0.000  0.003  0.011  0.014
    8  0.000  0.003  0.011  0.014
    9  0.004  0.001  0.001  0.006
   10  0.002  0.001  0.025  0.028
   11  0.005  0.004  0.019  0.028
   12  0.002  0.001  0.025  0.028
   13  0.005  0.004  0.019  0.028
   14  0.005  0.004  0.019  0.028
   15  0.003  0.001  0.010  0.015
   16  0.002  0.001  0.025  0.028
   17  0.003  0.001  0.010  0.015
   18  0.003  0.001  0.010  0.015
   19  0.010  0.001  0.020  0.031
   20  0.011  0.004  0.007  0.022
   21  0.011  0.004  0.007  0.022
   22  0.002  0.001  0.018  0.022
   23  0.011  0.004  0.007  0.022
   24  0.002  0.001  0.018  0.022
   25  0.010  0.001  0.020  0.031
   26  0.010  0.001  0.020  0.031
   27  0.002  0.001  0.018  0.022
   28  0.003  0.002  0.004  0.010
   29  0.001  0.002  0.012  0.015
   30  0.001  0.002  0.012  0.015
   31  0.001  0.002  0.012  0.015
   32  0.001  0.002  0.012  0.015
   33  0.001  0.002  0.012  0.015
   34  0.001  0.002  0.012  0.015
   35  0.004  0.001  0.001  0.006
   36  0.035  0.010  0.000  0.045
   37  0.003  0.001  0.000  0.004
tot    0.213  0.089  0.445  0.747
 
band    18 # energy   -4.64737437 # occ.  2.00000000
 
ion      s      p      d    tot
    1  0.000  0.001  0.029  0.030
    2  0.013  0.001  0.008  0.022
    3  0.014  0.001  0.008  0.023
    4  0.009  0.001  0.009  0.019
    5  0.000  0.001  0.016  0.017
    6  0.010  0.001  0.009  0.020
    7  0.000  0.001  0.008  0.009
    8  0.000  0.001  0.008  0.009
    9  0.000  0.003  0.003  0.006
   10  0.000  0.000  0.045  0.045
   11  0.000  0.004  0.019  0.024
   12  0.000  0.000  0.049  0.049
   13  0.000  0.001  0.013  0.014
   14  0.000  0.001  0.013  0.014
   15  0.000  0.007  0.013  0.021
   16  0.000  0.000  0.004  0.004
   17  0.000  0.002  0.022  0.024
   18  0.000  0.002  0.022  0.024
   19  0.004  0.005  0.020  0.029
   20  0.000  0.000  0.039  0.040
   21  0.000  0.000  0.042  0.043
   22  0.001  0.001  0.024  0.025
   23  0.000  0.000  0.010  0.010
   24  0.001  0.001  0.023  0.025
   25  0.001  0.002  0.018  0.021
   26  0.001  0.001  0.018  0.020
   27  0.004  0.003  0.010  0.017
   28  0.000  0.002  0.009  0.010
   29  0.002  0.001  0.016  0.019
   30  0.003  0.001  0.017  0.021
   31  0.016  0.001  0.022  0.039
   32  0.015  0.001  0.023  0.039
   33  0.006  0.001  0.014  0.021
   34  0.004  0.001  0.014  0.019
   35  0.000  0.002  0.014  0.016
   36  0.000  0.000  0.021  0.021
   37  0.000  0.000  0.000  0.000
tot    0.105  0.049  0.653  0.807
 
band    19 # energy   -4.64735818 # occ.  2.00000000
 
ion      s      p      d    tot
    1  0.000  0.001  0.029  0.030
    2  0.003  0.001  0.008  0.012
    3  0.002  0.001  0.008  0.011
    4  0.006  0.001  0.008  0.015
    5  0.000  0.001  0.016  0.017
    6  0.005  0.001  0.008  0.014
    7  0.015  0.001  0.008  0.025
    8  0.015  0.001  0.008  0.025
    9  0.000  0.003  0.003  0.006
   10  0.000  0.000  0.020  0.021
   11  0.000  0.000  0.011  0.011
   12  0.000  0.000  0.016  0.017
   13  0.000  0.003  0.018  0.021
   14  0.000  0.003  0.017  0.020
   15  0.000  0.000  0.025  0.025
   16  0.000  0.000  0.061  0.061
   17  0.000  0.005  0.016  0.022
   18  0.000  0.005  0.017  0.022
   19  0.000  0.000  0.018  0.018
   20  0.000  0.000  0.022  0.022
   21  0.000  0.000  0.019  0.019
   22  0.003  0.002  0.014  0.019
   23  0.000  0.000  0.051  0.052
   24  0.002  0.002  0.015  0.020
   25  0.003  0.004  0.019  0.026
   26  0.003  0.004  0.019  0.026
   27  0.000  0.000  0.028  0.028
   28  0.000  0.002  0.009  0.010
   29  0.013  0.001  0.019  0.033
   30  0.012  0.001  0.018  0.031
   31  0.000  0.001  0.013  0.014
   32  0.000  0.001  0.013  0.014
   33  0.010  0.001  0.021  0.032
   34  0.011  0.001  0.022  0.034
   35  0.000  0.002  0.014  0.016
   36  0.000  0.000  0.021  0.021
   37  0.000  0.000  0.000  0.000
tot    0.105  0.049  0.653  0.807
 
band    20 # energy   -4.62466769 # occ.  2.00000000
 
ion      s      p      d    tot
    1  0.003  0.000  0.001  0.003
    2  0.000  0.001  0.016  0.017
    3  0.000  0.001  0.016  0.017
    4  0.000  0.001  0.016  0.017
    5  0.013  0.001  0.000  0.014
    6  0.000  0.001  0.016  0.017
    7  0.000  0.001  0.016  0.017
    8  0.000  0.001  0.016  0.017
    9  0.028  0.001  0.001  0.030
   10  0.000  0.001  0.007  0.008
   11  0.000  0.000  0.020  0.020
   12  0.000  0.001  0.007  0.008
   13  0.000  0.000  0.020  0.020
   14  0.000  0.000  0.020  0.020
   15  0.000  0.003  0.037  0.041
   16  0.000  0.001  0.007  0.008
   17  0.000  0.003  0.037  0.041
   18  0.000  0.003  0.037  0.041
   19  0.000  0.001  0.022  0.023
   20  0.001  0.000  0.012  0.012
   21  0.001  0.000  0.012  0.012
   22  0.002  0.003  0.031  0.036
   23  0.001  0.000  0.012  0.012
   24  0.002  0.003  0.031  0.036
   25  0.000  0.001  0.022  0.023
   26  0.000  0.001  0.022  0.023
   27  0.002  0.003  0.031  0.036
   28  0.022  0.000  0.003  0.025
   29  0.000  0.001  0.029  0.030
   30  0.000  0.001  0.029  0.030
   31  0.000  0.001  0.029  0.030
   32  0.000  0.001  0.029  0.030
   33  0.000  0.001  0.029  0.030
   34  0.000  0.001  0.029  0.030
   35  0.021  0.000  0.006  0.027
   36  0.000  0.000  0.000  0.000
   37  0.000  0.000  0.000  0.000
tot    0.096  0.046  0.665  0.807
 
band    21 # energy   -4.59356690 # occ.  2.00000000
 
ion      s      p      d    tot
    1  0.000  0.002  0.003  0.005
    2  0.014  0.001  0.009  0.025
    3  0.012  0.001  0.009  0.022
    4  0.011  0.001  0.009  0.021
    5  0.000  0.002  0.017  0.019
    6  0.007  0.001  0.009  0.017
    7  0.001  0.001  0.009  0.011
    8  0.000  0.001  0.009  0.009
    9  0.000  0.000  0.031  0.031
   10  0.001  0.006  0.019  0.025
   11  0.000  0.000  0.049  0.049
   12  0.000  0.004  0.015  0.019
   13  0.000  0.002  0.022  0.024
   14  0.001  0.003  0.011  0.014
   15  0.000  0.000  0.040  0.040
   16  0.000  0.000  0.006  0.006
   17  0.000  0.001  0.022  0.023
   18  0.000  0.001  0.015  0.015
   19  0.000  0.000  0.055  0.055
   20  0.002  0.005  0.019  0.026
   21  0.001  0.004  0.018  0.023
   22  0.000  0.002  0.019  0.021
   23  0.000  0.000  0.017  0.017
   24  0.000  0.003  0.017  0.020
   25  0.001  0.001  0.011  0.012
   26  0.000  0.000  0.024  0.025
   27  0.000  0.000  0.025  0.025
   28  0.000  0.001  0.038  0.039
   29  0.005  0.001  0.015  0.020
   30  0.001  0.001  0.014  0.016
   31  0.013  0.001  0.015  0.029
   32  0.014  0.001  0.014  0.029
   33  0.002  0.001  0.014  0.017
   34  0.006  0.001  0.014  0.020
   35  0.000  0.000  0.031  0.031
   36  0.000  0.004  0.001  0.004