PROCAR new format
# of k-points:   10         # of bands:  252         # of ions:   39

 k-point     1 :    0.00000000 0.00000000 0.00000000     weight = 0.01562500

band     1 # energy  -23.95503618 # occ.  2.00000000
 
ion      s      p      d    tot
    1  0.000  0.000  0.000  0.000
    2  0.000  0.000  0.000  0.000
    3  0.000  0.000  0.000  0.000
    4  0.000  0.000  0.000  0.000
    5  0.000  0.000  0.000  0.000
    6  0.000  0.000  0.000  0.000
    7  0.000  0.000  0.000  0.000
    8  0.000  0.000  0.000  0.000
    9  0.000  0.000  0.000  0.000
   10  0.000  0.000  0.000  0.000
   11  0.000  0.000  0.000  0.000
   12  0.000  0.000  0.000  0.000
   13  0.000  0.000  0.000  0.000
   14  0.000  0.000  0.000  0.000
   15  0.000  0.000  0.000  0.000
   16  0.000  0.000  0.000  0.000
   17  0.000  0.000  0.000  0.000
   18  0.000  0.000  0.000  0.000
   19  0.000  0.000  0.000  0.000
   20  0.000  0.000  0.000  0.000
   21  0.000  0.000  0.000  0.000
   22  0.000  0.000  0.000  0.000
   23  0.000  0.000  0.000  0.000
   24  0.000  0.000  0.000  0.000
   25  0.000  0.000  0.000  0.000
   26  0.000  0.000  0.000  0.000
   27  0.000  0.000  0.000  0.000
   28  0.000  0.000  0.000  0.000
   29  0.000  0.000  0.000  0.000
   30  0.000  0.000  0.000  0.000
   31  0.000  0.000  0.000  0.000
   32  0.000  0.000  0.000  0.000
   33  0.000  0.000  0.000  0.000
   34  0.000  0.000  0.000  0.000
   35  0.000  0.000  0.000  0.000
   36  0.000  0.000  0.000  0.000
   37  0.076  0.056  0.000  0.131
   38  0.725  0.006  0.000  0.731
   39  0.062  0.013  0.000  0.075
tot    0.863  0.075  0.000  0.939
 
band     2 # energy  -14.66768226 # occ.  2.00000000
 
ion      s      p      d    tot
    1  0.000  0.000  0.000  0.000
    2  0.000  0.000  0.000  0.000
    3  0.000  0.000  0.000  0.000
    4  0.000  0.000  0.000  0.000
    5  0.000  0.000  0.000  0.000
    6  0.000  0.000  0.000  0.000
    7  0.000  0.000  0.000  0.000
    8  0.000  0.000  0.000  0.000
    9  0.000  0.000  0.000  0.000
   10  0.000  0.000  0.000  0.000
   11  0.000  0.000  0.000  0.000
   12  0.000  0.000  0.000  0.000
   13  0.000  0.000  0.000  0.000
   14  0.000  0.000  0.000  0.000
   15  0.000  0.000  0.000  0.000
   16  0.000  0.000  0.000  0.000
   17  0.000  0.000  0.000  0.000
   18  0.000  0.000  0.000  0.000
   19  0.000  0.000  0.000  0.000
   20  0.000  0.000  0.000  0.000
   21  0.000  0.000  0.000  0.000
   22  0.000  0.000  0.000  0.000
   23  0.000  0.000  0.000  0.000
   24  0.000  0.000  0.000  0.000
   25  0.000  0.000  0.000  0.000
   26  0.000  0.000  0.000  0.000
   27  0.000  0.000  0.000  0.000
   28  0.000  0.000  0.000  0.000
   29  0.000  0.000  0.000  0.000
   30  0.000  0.000  0.000  0.000
   31  0.000  0.000  0.000  0.000
   32  0.000  0.000  0.000  0.000
   33  0.000  0.000  0.000  0.000
   34  0.000  0.000  0.000  0.000
   35  0.000  0.000  0.000  0.000
   36  0.003  0.003  0.002  0.008
   37  0.159  0.050  0.000  0.209
   38  0.017  0.521  0.000  0.537
   39  0.200  0.032  0.000  0.232
tot    0.379  0.605  0.002  0.986
 
band     3 # energy   -7.49012279 # occ.  2.00000000
 
ion      s      p      d    tot
    1  0.000  0.000  0.000  0.000
    2  0.000  0.000  0.000  0.000
    3  0.000  0.000  0.000  0.000
    4  0.000  0.000  0.000  0.000
    5  0.000  0.000  0.000  0.000
    6  0.000  0.000  0.000  0.000
    7  0.000  0.000  0.000  0.000
    8  0.000  0.000  0.000  0.000
    9  0.000  0.000  0.000  0.000
   10  0.000  0.000  0.000  0.001
   11  0.000  0.000  0.000  0.000
   12  0.000  0.000  0.000  0.001
   13  0.000  0.000  0.000  0.000
   14  0.000  0.000  0.000  0.000
   15  0.000  0.000  0.000  0.000
   16  0.000  0.000  0.000  0.001
   17  0.000  0.000  0.000  0.000
   18  0.000  0.000  0.000  0.000
   19  0.001  0.000  0.000  0.001
   20  0.004  0.001  0.003  0.008
   21  0.004  0.001  0.003  0.008
   22  0.001  0.000  0.000  0.001
   23  0.004  0.001  0.003  0.008
   24  0.001  0.000  0.000  0.001
   25  0.001  0.000  0.000  0.001
   26  0.001  0.000  0.000  0.001
   27  0.001  0.000  0.000  0.001
   28  0.001  0.000  0.000  0.001
   29  0.004  0.001  0.003  0.007
   30  0.004  0.001  0.003  0.007
   31  0.004  0.001  0.003  0.007
   32  0.004  0.001  0.003  0.007
   33  0.004  0.001  0.003  0.007
   34  0.004  0.001  0.003  0.007
   35  0.001  0.000  0.000  0.001
   36  0.143  0.064  0.156  0.362
   37  0.180  0.163  0.000  0.343
   38  0.013  0.049  0.000  0.062
   39  0.014  0.001  0.000  0.015
tot    0.397  0.283  0.182  0.863
 
band     4 # energy   -6.77143804 # occ.  2.00000000
 
ion      s      p      d    tot
    1  0.000  0.000  0.000  0.000
    2  0.000  0.000  0.000  0.000
    3  0.000  0.000  0.000  0.000
    4  0.000  0.000  0.000  0.000
    5  0.000  0.000  0.000  0.000
    6  0.000  0.000  0.000  0.000
    7  0.000  0.000  0.000  0.000
    8  0.000  0.000  0.000  0.000
    9  0.000  0.000  0.000  0.000
   10  0.000  0.000  0.000  0.000
   11  0.000  0.000  0.000  0.000
   12  0.000  0.000  0.000  0.000
   13  0.000  0.000  0.000  0.000
   14  0.000  0.000  0.000  0.000
   15  0.000  0.000  0.000  0.000
   16  0.000  0.000  0.000  0.000
   17  0.000  0.000  0.000  0.000
   18  0.000  0.000  0.000  0.000
   19  0.000  0.000  0.000  0.000
   20  0.000  0.000  0.000  0.000
   21  0.000  0.000  0.000  0.000
   22  0.000  0.000  0.000  0.000
   23  0.000  0.000  0.000  0.000
   24  0.000  0.000  0.000  0.000
   25  0.000  0.000  0.000  0.000
   26  0.000  0.000  0.000  0.000
   27  0.000  0.000  0.000  0.000
   28  0.000  0.000  0.000  0.000
   29  0.001  0.000  0.001  0.002
   30  0.000  0.000  0.000  0.000
   31  0.001  0.000  0.001  0.002
   32  0.001  0.000  0.001  0.002
   33  0.000  0.000  0.000  0.000
   34  0.001  0.000  0.001  0.002
   35  0.000  0.000  0.000  0.000
   36  0.000  0.003  0.013  0.016
   37  0.000  0.112  0.000  0.112
   38  0.000  0.531  0.000  0.531
   39  0.000  0.007  0.000  0.007
tot    0.002  0.654  0.019  0.676
 
band     5 # energy   -6.77121822 # occ.  2.00000000
 
ion      s      p      d    tot
    1  0.000  0.000  0.000  0.000
    2  0.000  0.000  0.000  0.000
    3  0.000  0.000  0.000  0.000
    4  0.000  0.000  0.000  0.000
    5  0.000  0.000  0.000  0.000
    6  0.000  0.000  0.000  0.000
    7  0.000  0.000  0.000  0.000
    8  0.000  0.000  0.000  0.000
    9  0.000  0.000  0.000  0.000
   10  0.000  0.000  0.000  0.000
   11  0.000  0.000  0.000  0.000
   12  0.000  0.000  0.000  0.000
   13  0.000  0.000  0.000  0.000
   14  0.000  0.000  0.000  0.000
   15  0.000  0.000  0.000  0.000
   16  0.000  0.000  0.000  0.000
   17  0.000  0.000  0.000  0.000
   18  0.000  0.000  0.000  0.000
   19  0.000  0.000  0.000  0.000
   20  0.000  0.000  0.000  0.000
   21  0.000  0.000  0.000  0.000
   22  0.000  0.000  0.000  0.000
   23  0.000  0.000  0.000  0.000
   24  0.000  0.000  0.000  0.000
   25  0.000  0.000  0.000  0.000
   26  0.000  0.000  0.000  0.000
   27  0.000  0.000  0.000  0.000
   28  0.000  0.000  0.000  0.000
   29  0.000  0.000  0.001  0.001
   30  0.001  0.000  0.001  0.003
   31  0.000  0.000  0.001  0.001
   32  0.000  0.000  0.001  0.001
   33  0.001  0.000  0.001  0.003
   34  0.000  0.000  0.001  0.001
   35  0.000  0.000  0.000  0.000
   36  0.000  0.003  0.013  0.016
   37  0.000  0.112  0.000  0.112
   38  0.000  0.531  0.000  0.531
   39  0.000  0.007  0.000  0.007
tot    0.002  0.654  0.019  0.676
 
band     6 # energy   -6.60603627 # occ.  2.00000000
 
ion      s      p      d    tot
    1  0.007  0.001  0.000  0.008
    2  0.007  0.001  0.000  0.008
    3  0.007  0.001  0.000  0.008
    4  0.007  0.001  0.000  0.008
    5  0.007  0.001  0.000  0.008
    6  0.007  0.001  0.000  0.008
    7  0.007  0.001  0.000  0.008
    8  0.007  0.001  0.000  0.008
    9  0.007  0.001  0.000  0.008
   10  0.025  0.000  0.001  0.025
   11  0.025  0.000  0.000  0.026
   12  0.025  0.000  0.001  0.025
   13  0.025  0.000  0.000  0.026
   14  0.025  0.000  0.000  0.026
   15  0.025  0.000  0.000  0.026
   16  0.025  0.000  0.001  0.025
   17  0.025  0.000  0.000  0.026
   18  0.025  0.000  0.000  0.026
   19  0.020  0.000  0.000  0.021
   20  0.019  0.000  0.001  0.020
   21  0.019  0.000  0.001  0.020
   22  0.021  0.000  0.000  0.022
   23  0.019  0.000  0.001  0.020
   24  0.021  0.000  0.000  0.022
   25  0.020  0.000  0.000  0.021
   26  0.020  0.000  0.000  0.021
   27  0.021  0.000  0.000  0.022
   28  0.004  0.001  0.000  0.005
   29  0.003  0.001  0.001  0.004
   30  0.003  0.001  0.001  0.004
   31  0.003  0.001  0.001  0.004
   32  0.003  0.001  0.001  0.004
   33  0.003  0.001  0.001  0.004
   34  0.003  0.001  0.001  0.004
   35  0.004  0.001  0.000  0.005
   36  0.001  0.008  0.010  0.020
   37  0.011  0.009  0.000  0.020
   38  0.001  0.002  0.000  0.003
   39  0.001  0.000  0.000  0.001
tot    0.507  0.033  0.024  0.564
 
band     7 # energy   -5.75776492 # occ.  2.00000000
 
ion      s      p      d    tot
    1  0.007  0.000  0.000  0.008
    2  0.006  0.000  0.000  0.007
    3  0.006  0.000  0.000  0.007
    4  0.006  0.000  0.000  0.007
    5  0.006  0.000  0.000  0.006
    6  0.006  0.000  0.000  0.007
    7  0.006  0.000  0.000  0.007
    8  0.006  0.000  0.000  0.007
    9  0.006  0.000  0.000  0.006
   10  0.010  0.001  0.016  0.027
   11  0.009  0.001  0.017  0.027
   12  0.010  0.001  0.016  0.027
   13  0.009  0.001  0.017  0.027
   14  0.009  0.001  0.017  0.027
   15  0.008  0.001  0.016  0.025
   16  0.010  0.001  0.016  0.027
   17  0.008  0.001  0.016  0.025
   18  0.008  0.001  0.016  0.025
   19  0.014  0.001  0.021  0.036
   20  0.012  0.001  0.026  0.039
   21  0.012  0.001  0.026  0.039
   22  0.015  0.001  0.020  0.036
   23  0.012  0.001  0.026  0.039
   24  0.015  0.001  0.020  0.036
   25  0.014  0.001  0.021  0.036
   26  0.014  0.001  0.021  0.036
   27  0.015  0.001  0.020  0.036
   28  0.006  0.001  0.000  0.006
   29  0.004  0.001  0.001  0.005
   30  0.004  0.001  0.001  0.005
   31  0.004  0.001  0.001  0.005
   32  0.004  0.001  0.001  0.005
   33  0.004  0.001  0.001  0.005
   34  0.004  0.001  0.001  0.005
   35  0.005  0.000  0.000  0.006
   36  0.000  0.003  0.003  0.006
   37  0.003  0.002  0.000  0.005
   38  0.000  0.000  0.000  0.001
   39  0.000  0.000  0.000  0.000
tot    0.300  0.027  0.359  0.686
 
band     8 # energy   -5.49134442 # occ.  2.00000000
 
ion      s      p      d    tot
    1  0.021  0.000  0.030  0.052
    2  0.018  0.000  0.030  0.048
    3  0.018  0.000  0.030  0.048
    4  0.018  0.000  0.030  0.048
    5  0.016  0.000  0.030  0.047
    6  0.018  0.000  0.030  0.048
    7  0.018  0.000  0.030  0.048
    8  0.018  0.000  0.030  0.048
    9  0.018  0.000  0.031  0.048
   10  0.000  0.001  0.025  0.026
   11  0.001  0.001  0.021  0.022
   12  0.000  0.001  0.025  0.026
   13  0.001  0.001  0.021  0.022
   14  0.001  0.001  0.021  0.022
   15  0.001  0.001  0.021  0.023
   16  0.000  0.001  0.025  0.026
   17  0.001  0.001  0.021  0.023
   18  0.001  0.001  0.021  0.023
   19  0.000  0.000  0.004  0.004
   20  0.000  0.000  0.005  0.005
   21  0.000  0.000  0.005  0.005
   22  0.001  0.000  0.006  0.006
   23  0.000  0.000  0.005  0.005
   24  0.001  0.000  0.006  0.006
   25  0.000  0.000  0.004  0.004
   26  0.000  0.000  0.004  0.004
   27  0.001  0.000  0.006  0.006
   28  0.004  0.000  0.002  0.007
   29  0.003  0.000  0.003  0.007
   30  0.003  0.000  0.003  0.007
   31  0.003  0.000  0.003  0.007
   32  0.003  0.000  0.003  0.007
   33  0.003  0.000  0.003  0.007
   34  0.003  0.000  0.003  0.007
   35  0.005  0.000  0.003  0.008
   36  0.000  0.000  0.003  0.003
   37  0.001  0.001  0.000  0.001
   38  0.000  0.000  0.000  0.000
   39  0.000  0.000  0.000  0.000
tot    0.204  0.008  0.544  0.756
 
band     9 # energy   -5.38758573 # occ.  2.00000000
 
ion      s      p      d    tot
    1  0.001  0.000  0.006  0.007
    2  0.000  0.000  0.005  0.005
    3  0.000  0.000  0.005  0.005
    4  0.000  0.000  0.005  0.005
    5  0.000  0.000  0.001  0.001
    6  0.000  0.000  0.005  0.005
    7  0.000  0.000  0.005  0.005
    8  0.000  0.000  0.005  0.005
    9  0.003  0.001  0.003  0.007
   10  0.001  0.000  0.052  0.054
   11  0.006  0.001  0.013  0.021
   12  0.001  0.000  0.052  0.054
   13  0.006  0.001  0.013  0.021
   14  0.006  0.001  0.013  0.021
   15  0.011  0.001  0.039  0.050
   16  0.001  0.000  0.052  0.054
   17  0.011  0.001  0.039  0.050
   18  0.011  0.001  0.039  0.050
   19  0.000  0.000  0.036  0.036
   20  0.011  0.001  0.048  0.060
   21  0.011  0.001  0.048  0.060
   22  0.007  0.001  0.010  0.019
   23  0.011  0.001  0.048  0.060
   24  0.007  0.001  0.010  0.019
   25  0.000  0.000  0.036  0.036
   26  0.000  0.000  0.036  0.036
   27  0.007  0.001  0.010  0.019
   28  0.001  0.000  0.000  0.002
   29  0.000  0.000  0.005  0.006
   30  0.000  0.000  0.005  0.006
   31  0.000  0.000  0.005  0.006
   32  0.000  0.000  0.005  0.006
   33  0.000  0.000  0.005  0.006
   34  0.000  0.000  0.005  0.006
   35  0.001  0.000  0.000  0.002
   36  0.000  0.003  0.000  0.003
   37  0.001  0.001  0.000  0.001
   38  0.000  0.000  0.000  0.000
   39  0.000  0.000  0.000  0.000
tot    0.120  0.019  0.667  0.805
 
band    10 # energy   -5.37727390 # occ.  2.00000000
 
ion      s      p      d    tot
    1  0.001  0.001  0.003  0.004
    2  0.000  0.000  0.005  0.006
    3  0.000  0.000  0.005  0.006
    4  0.000  0.000  0.005  0.006
    5  0.006  0.001  0.002  0.009
    6  0.000  0.000  0.005  0.006
    7  0.000  0.000  0.005  0.006
    8  0.000  0.000  0.005  0.006
    9  0.000  0.000  0.003  0.003
   10  0.011  0.001  0.006  0.018
   11  0.008  0.000  0.048  0.056
   12  0.011  0.001  0.006  0.018
   13  0.008  0.000  0.048  0.056
   14  0.008  0.000  0.048  0.056
   15  0.000  0.001  0.033  0.034
   16  0.011  0.001  0.006  0.018
   17  0.000  0.001  0.033  0.034
   18  0.000  0.001  0.034  0.034
   19  0.015  0.001  0.017  0.033
   20  0.002  0.001  0.023  0.026
   21  0.002  0.001  0.023  0.026
   22  0.003  0.000  0.065  0.069
   23  0.002  0.001  0.023  0.026
   24  0.003  0.000  0.065  0.069
   25  0.015  0.001  0.017  0.033
   26  0.015  0.001  0.017  0.033
   27  0.003  0.000  0.065  0.069
   28  0.003  0.001  0.005  0.009
   29  0.000  0.000  0.003  0.004
   30  0.000  0.000  0.003  0.004
   31  0.000  0.000  0.003  0.004
   32  0.000  0.000  0.003  0.004
   33  0.000  0.000  0.003  0.004
   34  0.000  0.000  0.003  0.004
   35  0.003  0.001  0.006  0.010
   36  0.000  0.000  0.000  0.000
   37  0.000  0.000  0.000  0.000
   38  0.000  0.000  0.000  0.000
   39  0.000  0.000  0.000  0.000
tot    0.132  0.017  0.650  0.800
 
band    11 # energy   -5.37338501 # occ.  2.00000000
 
ion      s      p      d    tot
    1  0.000  0.000  0.003  0.003
    2  0.000  0.000  0.003  0.003
    3  0.002  0.001  0.006  0.008
    4  0.000  0.000  0.003  0.003
    5  0.000  0.000  0.010  0.011
    6  0.002  0.001  0.005  0.007
    7  0.001  0.000  0.006  0.007
    8  0.001  0.001  0.004  0.006
    9  0.000  0.000  0.003  0.003
   10  0.005  0.000  0.015  0.021
   11  0.011  0.001  0.055  0.066
   12  0.001  0.000  0.067  0.068
   13  0.005  0.001  0.068  0.073
   14  0.030  0.001  0.011  0.042
   15  0.004  0.001  0.018  0.023
   16  0.002  0.000  0.054  0.057
   17  0.002  0.001  0.012  0.015
   18  0.010  0.000  0.037  0.048
   19  0.000  0.000  0.028  0.028
   20  0.014  0.001  0.028  0.042
   21  0.002  0.001  0.021  0.025
   22  0.003  0.000  0.052  0.055
   23  0.005  0.001  0.023  0.029
   24  0.019  0.001  0.006  0.026
   25  0.001  0.000  0.019  0.019
   26  0.000  0.000  0.031  0.031
   27  0.007  0.000  0.041  0.048
   28  0.000  0.000  0.001  0.001
   29  0.002  0.000  0.004  0.006
   30  0.000  0.000  0.002  0.003
   31  0.002  0.000  0.004  0.006
   32  0.000  0.000  0.002  0.002
   33  0.000  0.000  0.003  0.003
   34  0.001  0.000  0.002  0.003
   35  0.000  0.000  0.007  0.007
   36  0.000  0.000  0.001  0.001
   37  0.000  0.000  0.000  0.000
   38  0.000  0.000  0.000  0.000
   39  0.000  0.000  0.000  0.000
tot    0.130  0.017  0.653  0.801
 
band    12 # energy   -5.37338425 # occ.  2.00000000
 
ion      s      p      d    tot
    1  0.000  0.000  0.003  0.003
    2  0.002  0.001  0.006  0.009
    3  0.000  0.000  0.003  0.003
    4  0.002  0.001  0.006  0.009
    5  0.000  0.000  0.010  0.011
    6  0.000  0.000  0.004  0.004
    7  0.001  0.000  0.003  0.004
    8  0.001  0.000  0.005  0.006
    9  0.000  0.000  0.003  0.003
   10  0.000  0.000  0.076  0.077
   11  0.020  0.001  0.034  0.055
   12  0.004  0.000  0.024  0.029
   13  0.026  0.001  0.021  0.047
   14  0.000  0.001  0.077  0.078
   15  0.007  0.001  0.027  0.034
   16  0.003  0.000  0.036  0.040
   17  0.009  0.000  0.033  0.042
   18  0.000  0.002  0.007  0.009
   19  0.000  0.000  0.024  0.024
   20  0.000  0.001  0.020  0.022
   21  0.012  0.001  0.027  0.039
   22  0.016  0.001  0.014  0.031
   23  0.009  0.001  0.025  0.035
   24  0.000  0.000  0.060  0.060
   25  0.000  0.001  0.033  0.033
   26  0.000  0.000  0.021  0.021
   27  0.012  0.001  0.025  0.038
   28  0.000  0.000  0.001  0.001
   29  0.000  0.000  0.002  0.002
   30  0.001  0.000  0.003  0.005
   31  0.000  0.000  0.002  0.002
   32  0.001  0.000  0.004  0.006
   33  0.001  0.000  0.003  0.004
   34  0.001  0.000  0.004  0.005
   35  0.000  0.000  0.007  0.007
   36  0.000  0.000  0.001  0.001
   37  0.000  0.000  0.000  0.000
   38  0.000  0.000  0.000  0.000
   39  0.000  0.000  0.000  0.000
tot    0.130  0.017  0.653  0.801
 
band    13 # energy   -5.37162586 # occ.  2.00000000
 
ion      s      p      d    tot
    1  0.000  0.000  0.007  0.008
    2  0.002  0.001  0.005  0.007
    3  0.000  0.000  0.003  0.004
    4  0.002  0.001  0.005  0.007
    5  0.000  0.000  0.001  0.001
    6  0.001  0.000  0.004  0.004
    7  0.000  0.000  0.003  0.003
    8  0.000  0.000  0.003  0.004
    9  0.000  0.000  0.007  0.007
   10  0.021  0.000  0.029  0.050
   11  0.000  0.001  0.036  0.036
   12  0.007  0.001  0.025  0.032
   13  0.000  0.001  0.035  0.035
   14  0.000  0.000  0.030  0.031
   15  0.003  0.000  0.073  0.077
   16  0.004  0.001  0.024  0.029
   17  0.006  0.000  0.062  0.068
   18  0.018  0.001  0.005  0.024
   19  0.004  0.001  0.030  0.034
   20  0.011  0.001  0.009  0.021
   21  0.004  0.000  0.056  0.060
   22  0.001  0.001  0.027  0.028
   23  0.002  0.000  0.066  0.068
   24  0.002  0.000  0.032  0.033
   25  0.021  0.001  0.019  0.041
   26  0.007  0.001  0.028  0.035
   27  0.000  0.001  0.026  0.027
   28  0.000  0.000  0.006  0.006
   29  0.000  0.000  0.002  0.002
   30  0.001  0.000  0.004  0.005
   31  0.000  0.000  0.002  0.002
   32  0.001  0.000  0.003  0.004
   33  0.001  0.000  0.004  0.005
   34  0.001  0.000  0.003  0.004
   35  0.000  0.000  0.001  0.001
   36  0.000  0.000  0.001  0.001
   37  0.000  0.000  0.000  0.000
   38  0.000  0.000  0.000  0.000
   39  0.000  0.000  0.000  0.000
tot    0.117  0.016  0.674  0.807
 
band    14 # energy   -5.37162407 # occ.  2.00000000
 
ion      s      p      d    tot
    1  0.000  0.000  0.007  0.008
    2  0.000  0.000  0.003  0.003
    3  0.001  0.000  0.005  0.006
    4  0.000  0.000  0.002  0.003
    5  0.000  0.000  0.001  0.001
    6  0.001  0.000  0.004  0.006
    7  0.001  0.000  0.005  0.007
    8  0.001  0.001  0.005  0.006
    9  0.000  0.000  0.007  0.007
   10  0.000  0.001  0.022  0.024
   11  0.000  0.000  0.031  0.032
   12  0.014  0.001  0.027  0.042
   13  0.000  0.000  0.032  0.033
   14  0.000  0.001  0.037  0.038
   15  0.015  0.001  0.020  0.036
   16  0.017  0.001  0.027  0.045
   17  0.012  0.001  0.032  0.045
   18  0.000  0.000  0.088  0.089
   19  0.017  0.001  0.022  0.039
   20  0.000  0.000  0.078  0.078
   21  0.007  0.000  0.031  0.039
   22  0.001  0.001  0.029  0.031
   23  0.009  0.001  0.022  0.031
   24  0.000  0.001  0.024  0.025
   25  0.000  0.001  0.032  0.033
   26  0.014  0.001  0.023  0.038
   27  0.001  0.000  0.031  0.032
   28  0.000  0.000  0.006  0.006
   29  0.001  0.000  0.004  0.005
   30  0.000  0.000  0.002  0.002
   31  0.001  0.000  0.004  0.006
   32  0.000  0.000  0.003  0.004
   33  0.000  0.000  0.002  0.002
   34  0.000  0.000  0.003  0.003
   35  0.000  0.000  0.001  0.001
   36  0.000  0.000  0.001  0.001
   37  0.000  0.000  0.000  0.000
   38  0.000  0.000  0.000  0.000
   39  0.000  0.000  0.000  0.000
tot    0.117  0.016  0.674  0.807
 
band    15 # energy   -5.35630959 # occ.  2.00000000
 
ion      s      p      d    tot
    1  0.000  0.001  0.016  0.017
    2  0.000  0.000  0.009  0.010
    3  0.000  0.000  0.009  0.010
    4  0.000  0.000  0.009  0.010
    5  0.001  0.000  0.002  0.003
    6  0.000  0.000  0.009  0.010
    7  0.000  0.000  0.009  0.010
    8  0.000  0.000  0.009  0.010
    9  0.008  0.001  0.000  0.009
   10  0.005  0.000  0.043  0.048
   11  0.000  0.000  0.058  0.058
   12  0.005  0.000  0.043  0.048
   13  0.000  0.000  0.058  0.058
   14  0.000  0.000  0.058  0.058
   15  0.003  0.000  0.010  0.013
   16  0.005  0.000  0.043  0.048
   17  0.003  0.000  0.010  0.013
   18  0.003  0.000  0.010  0.013
   19  0.002  0.000  0.008  0.010
   20  0.001  0.000  0.045  0.046
   21  0.001  0.000  0.045  0.046
   22  0.002  0.000  0.042  0.045
   23  0.001  0.000  0.045  0.046
   24  0.002  0.000  0.043  0.045
   25  0.002  0.000  0.008  0.010
   26  0.002  0.000  0.008  0.010
   27  0.002  0.000  0.042  0.045
   28  0.008  0.001  0.000  0.009
   29  0.001  0.000  0.010  0.011
   30  0.001  0.000  0.010  0.011
   31  0.001  0.000  0.010  0.011
   32  0.001  0.000  0.010  0.011
   33  0.001  0.000  0.010  0.011
   34  0.001  0.000  0.010  0.011
   35  0.000  0.000  0.015  0.016
   36  0.001  0.000  0.000  0.001
   37  0.000  0.000  0.000  0.000
   38  0.000  0.000  0.000  0.000
   39  0.000  0.000  0.000  0.000
tot    0.065  0.007  0.766  0.839
 
band    16 # energy   -5.33612676 # occ.  2.00000000
 
ion      s      p      d    tot
    1  0.000  0.000  0.020  0.020
    2  0.003  0.000  0.006  0.010
    3  0.000  0.000  0.010  0.011
    4  0.003  0.000  0.006  0.010
    5  0.000  0.000  0.009  0.009
    6  0.001  0.001  0.007  0.009
    7  0.000  0.000  0.010  0.011
    8  0.001  0.001  0.007  0.009
    9  0.000  0.000  0.006  0.006
   10  0.000  0.000  0.056  0.056
   11  0.000  0.000  0.035  0.035
   12  0.004  0.000  0.036  0.041
   13  0.000  0.000  0.034  0.035
   14  0.000  0.000  0.013  0.013
   15  0.005  0.000  0.024  0.029
   16  0.004  0.000  0.036  0.041
   17  0.005  0.000  0.024  0.029
   18  0.000  0.000  0.073  0.073
   19  0.004  0.000  0.033  0.038
   20  0.000  0.000  0.084  0.084
   21  0.006  0.000  0.026  0.032
   22  0.000  0.000  0.029  0.029
   23  0.006  0.000  0.026  0.032
   24  0.000  0.000  0.018  0.018
   25  0.000  0.000  0.041  0.041
   26  0.004  0.000  0.034  0.038
   27  0.000  0.000  0.029  0.029
   28  0.000  0.000  0.011  0.011
   29  0.000  0.000  0.007  0.007
   30  0.002  0.000  0.004  0.006
   31  0.000  0.000  0.007  0.007
   32  0.001  0.000  0.005  0.007
   33  0.002  0.000  0.004  0.006
   34  0.001  0.000  0.005  0.007
   35  0.000  0.000  0.004  0.004
   36  0.000  0.000  0.001  0.001
   37  0.000  0.000  0.000  0.000
   38  0.000  0.000  0.000  0.000
   39  0.000  0.000  0.000  0.000
tot    0.055  0.008  0.781  0.844
 
band    17 # energy   -5.33608058 # occ.  2.00000000
 
ion      s      p      d    tot
    1  0.000  0.000  0.020  0.020
    2  0.000  0.000  0.009  0.010
    3  0.003  0.001  0.006  0.009
    4  0.000  0.000  0.009  0.010
    5  0.000  0.000  0.009  0.009
    6  0.002  0.000  0.009  0.010
    7  0.003  0.001  0.006  0.009
    8  0.002  0.000  0.009  0.010
    9  0.000  0.000  0.006  0.006
   10  0.006  0.000  0.030  0.036
   11  0.000  0.000  0.020  0.020
   12  0.001  0.000  0.050  0.051
   13  0.000  0.000  0.020  0.020
   14  0.000  0.000  0.042  0.042
   15  0.002  0.000  0.057  0.059
   16  0.001  0.000  0.050  0.051
   17  0.002  0.000  0.056  0.058
   18  0.007  0.000  0.008  0.015
   19  0.001  0.000  0.039  0.040
   20  0.008  0.000  0.007  0.015
   21  0.002  0.000  0.065  0.067
   22  0.000  0.000  0.022  0.022
   23  0.002  0.000  0.065  0.067
   24  0.000  0.000  0.033  0.033
   25  0.005  0.000  0.031  0.036
   26  0.001  0.000  0.039  0.040
   27  0.000  0.000  0.022  0.022
   28  0.000  0.000  0.011  0.011
   29  0.002  0.000  0.003  0.006
   30  0.000  0.000  0.007  0.007
   31  0.002  0.000  0.003  0.006
   32  0.001  0.000  0.005  0.006
   33  0.000  0.000  0.007  0.007
   34  0.001  0.000  0.005  0.006
   35  0.000  0.000  0.004  0.004
   36  0.000  0.000  0.001  0.001
   37  0.000  0.000  0.000  0.000
   38  0.000  0.000  0.000  0.000
   39  0.000  0.000  0.000  0.000
tot    0.055  0.008  0.782  0.845
 
band    18 # energy   -5.33293984 # occ.  2.00000000
 
ion      s      p      d    tot
    1  0.004  0.000  0.001  0.005
    2  0.000  0.000  0.012  0.012
    3  0.000  0.000  0.012  0.012
    4  0.000  0.000  0.012  0.012
    5  0.005  0.001  0.000  0.006
    6  0.000  0.000  0.012  0.012
    7  0.000  0.000  0.012  0.012
    8  0.000  0.000  0.012  0.012
    9  0.001  0.000  0.014  0.015
   10  0.002  0.000  0.037  0.038
   11  0.003  0.000  0.009  0.011
   12  0.002  0.000  0.036  0.038
   13  0.003  0.000  0.009  0.011
   14  0.003  0.000  0.009  0.011
   15  0.001  0.000  0.056  0.057
   16  0.002  0.000  0.036  0.038
   17  0.001  0.000  0.056  0.057
   18  0.001  0.000  0.056  0.057
   19  0.000  0.000  0.060  0.060
   20  0.006  0.000  0.027  0.032
   21  0.006  0.000  0.027  0.033
   22  0.002  0.000  0.024  0.026
   23  0.006  0.000  0.027  0.033
   24  0.002  0.000  0.024  0.026
   25  0.000  0.000  0.060  0.060
   26  0.000  0.000  0.060  0.060
   27  0.002  0.000  0.024  0.026
   28  0.000  0.000  0.004  0.004
   29  0.000  0.000  0.008  0.008
   30  0.000  0.000  0.008  0.008
   31  0.000  0.000  0.008  0.008
   32  0.000  0.000  0.008  0.008
   33  0.000  0.000  0.008  0.008
   34  0.000  0.000  0.008  0.008
   35  0.007  0.000  0.002  0.009
   36  0.000  0.003  0.000  0.003
   37  0.000  0.000  0.000  0.001
   38  0.000  0.000  0.000  0.000
   39  0.000  0.000  0.000  0.000
tot    0.061  0.009  0.773  0.843
 
band    19 # energy   -5.31954034 # occ.  2.00000000
 
ion      s      p      d    tot
    1  0.000  0.000  0.005  0.006
    2  0.004  0.000  0.007  0.011
    3  0.001  0.000  0.010  0.011
    4  0.004  0.000  0.007  0.011
    5  0.000  0.000  0.013  0.013
    6  0.001  0.000  0.008  0.010
    7  0.000  0.000  0.010  0.011
    8  0.001  0.000  0.008  0.010
    9  0.000  0.000  0.021  0.021
   10  0.005  0.000  0.019  0.024
   11  0.002  0.000  0.049  0.050
   12  0.001  0.000  0.033  0.035
   13  0.002  0.000  0.048  0.050
   14  0.006  0.000  0.013  0.019
   15  0.000  0.000  0.027  0.027
   16  0.001  0.000  0.034  0.035
   17  0.000  0.000  0.027  0.027
   18  0.000  0.000  0.046  0.046
   19  0.001  0.000  0.056  0.058
   20  0.001  0.000  0.046  0.047
   21  0.000  0.000  0.020  0.020
   22  0.003  0.000  0.062  0.066
   23  0.000  0.000  0.019  0.020
   24  0.012  0.000  0.016  0.029
   25  0.006  0.000  0.011  0.017
   26  0.001  0.000  0.055  0.057
   27  0.003  0.000  0.063  0.066
   28  0.000  0.000  0.003  0.003
   29  0.000  0.000  0.007  0.007
   30  0.001  0.000  0.002  0.003
   31  0.000  0.000  0.007  0.007
   32  0.001  0.001  0.006  0.008
   33  0.001  0.000  0.002  0.003
   34  0.001  0.001  0.006  0.008
   35  0.000  0.000  0.008  0.008
   36  0.000  0.000  0.001  0.001
   37  0.000  0.000  0.000  0.000
   38  0.000  0.000  0.000  0.000
   39  0.000  0.000  0.000  0.000
tot    0.061  0.008  0.774  0.843
 
band    20 # energy   -5.31949254 # occ.  2.00000000
 
ion      s      p      d    tot
    1  0.000  0.000  0.005  0.006
    2  0.000  0.000  0.010  0.010
    3  0.003  0.001  0.006  0.010
    4  0.000  0.000  0.010  0.010
    5  0.000  0.000  0.013  0.013
    6  0.002  0.000  0.009  0.011
    7  0.003  0.001  0.006  0.010
    8  0.002  0.000  0.009  0.011
    9  0.000  0.000  0.021  0.021
   10  0.000  0.000  0.038  0.038
   11  0.005  0.000  0.024  0.029
   12  0.004  0.000  0.024  0.028
   13  0.005  0.000  0.025  0.030
   14  0.000  0.000  0.060  0.060
   15  0.000  0.000  0.040  0.040
   16  0.004  0.000  0.024  0.027
   17  0.000  0.000  0.039  0.040
   18  0.000  0.000  0.021  0.021
   19  0.004  0.000  0.025  0.030
   20  0.000  0.000  0.011  0.011
   21  0.001  0.000  0.037  0.038
   22  0.009  0.000  0.032  0.042
   23  0.001  0.000  0.037  0.038
   24  0.000  0.000  0.078  0.078
   25  0.000  0.000  0.071  0.071
   26  0.004  0.000  0.026  0.031
   27  0.009  0.000  0.032  0.041
   28  0.000  0.000  0.003  0.003
   29  0.002  0.000  0.003  0.005
   30  0.000  0.000  0.008  0.009
   31  0.002  0.000  0.003  0.005
   32  0.000  0.000  0.003  0.004
   33  0.000  0.000  0.008  0.009
   34  0.000  0.000  0.004  0.004
   35  0.000  0.000  0.008  0.008
   36  0.000  0.000  0.001  0.001
   37  0.000  0.000  0.000  0.000
   38  0.000  0.000  0.000  0.000
   39  0.000  0.000  0.000  0.000