PROCAR new format
# of k-points:   10         # of bands:  252         # of ions:   38

 k-point     1 :    0.00000000 0.00000000 0.00000000     weight = 0.01562500

band     1 # energy  -18.65800732 # occ.  2.00000000
 
ion      s      p      d    tot
    1  0.000  0.000  0.000  0.000
    2  0.000  0.000  0.000  0.000
    3  0.000  0.000  0.000  0.000
    4  0.000  0.000  0.000  0.000
    5  0.000  0.000  0.000  0.000
    6  0.000  0.000  0.000  0.000
    7  0.000  0.000  0.000  0.000
    8  0.000  0.000  0.000  0.000
    9  0.000  0.000  0.000  0.000
   10  0.000  0.000  0.000  0.000
   11  0.000  0.000  0.000  0.000
   12  0.000  0.000  0.000  0.000
   13  0.000  0.000  0.000  0.000
   14  0.000  0.000  0.000  0.000
   15  0.000  0.000  0.000  0.000
   16  0.000  0.000  0.000  0.000
   17  0.000  0.000  0.000  0.000
   18  0.000  0.000  0.000  0.000
   19  0.000  0.000  0.000  0.000
   20  0.000  0.000  0.000  0.000
   21  0.000  0.000  0.000  0.000
   22  0.000  0.000  0.000  0.000
   23  0.000  0.000  0.000  0.000
   24  0.000  0.000  0.000  0.000
   25  0.000  0.000  0.000  0.000
   26  0.000  0.000  0.000  0.000
   27  0.000  0.000  0.000  0.000
   28  0.000  0.000  0.000  0.000
   29  0.000  0.000  0.000  0.000
   30  0.000  0.000  0.000  0.000
   31  0.000  0.000  0.000  0.000
   32  0.000  0.000  0.000  0.000
   33  0.000  0.000  0.000  0.000
   34  0.000  0.000  0.000  0.000
   35  0.000  0.000  0.000  0.000
   36  0.009  0.013  0.012  0.034
   37  0.738  0.017  0.000  0.755
   38  0.119  0.024  0.000  0.143
tot    0.866  0.054  0.012  0.932
 
band     2 # energy   -7.21788379 # occ.  2.00000000
 
ion      s      p      d    tot
    1  0.000  0.000  0.000  0.000
    2  0.000  0.000  0.000  0.000
    3  0.000  0.000  0.000  0.000
    4  0.000  0.000  0.000  0.000
    5  0.000  0.000  0.000  0.000
    6  0.000  0.000  0.000  0.000
    7  0.000  0.000  0.000  0.000
    8  0.000  0.000  0.000  0.000
    9  0.000  0.000  0.000  0.000
   10  0.000  0.000  0.000  0.000
   11  0.000  0.000  0.000  0.000
   12  0.000  0.000  0.000  0.000
   13  0.000  0.000  0.000  0.000
   14  0.000  0.000  0.000  0.000
   15  0.000  0.000  0.000  0.000
   16  0.000  0.000  0.000  0.000
   17  0.000  0.000  0.000  0.000
   18  0.000  0.000  0.000  0.000
   19  0.000  0.000  0.000  0.000
   20  0.001  0.000  0.001  0.003
   21  0.001  0.000  0.001  0.003
   22  0.000  0.000  0.000  0.000
   23  0.001  0.000  0.001  0.003
   24  0.000  0.000  0.000  0.000
   25  0.000  0.000  0.000  0.000
   26  0.000  0.000  0.000  0.000
   27  0.000  0.000  0.000  0.000
   28  0.000  0.000  0.000  0.000
   29  0.001  0.000  0.001  0.002
   30  0.001  0.000  0.001  0.002
   31  0.001  0.000  0.001  0.002
   32  0.001  0.000  0.001  0.002
   33  0.001  0.000  0.001  0.002
   34  0.001  0.000  0.001  0.002
   35  0.000  0.000  0.000  0.000
   36  0.067  0.037  0.083  0.188
   37  0.025  0.506  0.000  0.531
   38  0.171  0.017  0.000  0.189
tot    0.275  0.563  0.093  0.931
 
band     3 # energy   -6.10740076 # occ.  2.00000000
 
ion      s      p      d    tot
    1  0.006  0.001  0.000  0.007
    2  0.006  0.001  0.000  0.007
    3  0.006  0.001  0.000  0.007
    4  0.006  0.001  0.000  0.007
    5  0.006  0.001  0.000  0.007
    6  0.006  0.001  0.000  0.007
    7  0.006  0.001  0.000  0.007
    8  0.006  0.001  0.000  0.007
    9  0.006  0.001  0.000  0.007
   10  0.024  0.000  0.000  0.024
   11  0.024  0.000  0.000  0.025
   12  0.024  0.000  0.000  0.024
   13  0.024  0.000  0.000  0.025
   14  0.024  0.000  0.000  0.025
   15  0.024  0.000  0.000  0.025
   16  0.024  0.000  0.000  0.024
   17  0.024  0.000  0.000  0.025
   18  0.024  0.000  0.000  0.025
   19  0.022  0.000  0.000  0.023
   20  0.022  0.000  0.000  0.023
   21  0.022  0.000  0.000  0.023
   22  0.023  0.000  0.000  0.024
   23  0.022  0.000  0.000  0.023
   24  0.023  0.000  0.000  0.023
   25  0.022  0.000  0.000  0.023
   26  0.022  0.000  0.000  0.023
   27  0.023  0.000  0.000  0.023
   28  0.005  0.001  0.000  0.006
   29  0.005  0.001  0.000  0.005
   30  0.005  0.001  0.000  0.005
   31  0.005  0.001  0.000  0.005
   32  0.005  0.001  0.000  0.005
   33  0.005  0.001  0.000  0.005
   34  0.005  0.001  0.000  0.005
   35  0.005  0.001  0.000  0.006
   36  0.001  0.003  0.002  0.006
   37  0.001  0.007  0.000  0.008
   38  0.002  0.000  0.000  0.002
tot    0.517  0.023  0.009  0.549
 
band     4 # energy   -5.23834697 # occ.  2.00000000
 
ion      s      p      d    tot
    1  0.008  0.000  0.000  0.009
    2  0.007  0.000  0.000  0.008
    3  0.007  0.000  0.000  0.008
    4  0.007  0.000  0.000  0.008
    5  0.007  0.000  0.000  0.008
    6  0.007  0.000  0.000  0.008
    7  0.007  0.000  0.000  0.008
    8  0.007  0.000  0.000  0.008
    9  0.007  0.000  0.000  0.008
   10  0.011  0.001  0.015  0.027
   11  0.010  0.001  0.016  0.027
   12  0.011  0.001  0.015  0.027
   13  0.010  0.001  0.016  0.027
   14  0.010  0.001  0.016  0.027
   15  0.010  0.001  0.016  0.027
   16  0.011  0.001  0.015  0.027
   17  0.010  0.001  0.016  0.027
   18  0.010  0.001  0.016  0.027
   19  0.013  0.001  0.018  0.032
   20  0.012  0.001  0.019  0.032
   21  0.012  0.001  0.019  0.032
   22  0.014  0.001  0.018  0.033
   23  0.012  0.001  0.019  0.032
   24  0.014  0.001  0.018  0.033
   25  0.013  0.001  0.018  0.032
   26  0.013  0.001  0.018  0.032
   27  0.014  0.001  0.018  0.033
   28  0.007  0.000  0.000  0.007
   29  0.006  0.000  0.000  0.006
   30  0.006  0.000  0.000  0.006
   31  0.006  0.000  0.000  0.006
   32  0.006  0.000  0.000  0.006
   33  0.006  0.000  0.000  0.006
   34  0.006  0.000  0.000  0.006
   35  0.006  0.000  0.000  0.007
   36  0.002  0.002  0.001  0.004
   37  0.000  0.002  0.000  0.003
   38  0.001  0.000  0.000  0.001
tot    0.326  0.027  0.311  0.665
 
band     5 # energy   -4.95907045 # occ.  2.00000000
 
ion      s      p      d    tot
    1  0.017  0.000  0.027  0.044
    2  0.016  0.000  0.026  0.043
    3  0.016  0.000  0.026  0.043
    4  0.016  0.000  0.026  0.043
    5  0.016  0.000  0.027  0.043
    6  0.016  0.000  0.026  0.043
    7  0.016  0.000  0.026  0.043
    8  0.016  0.000  0.026  0.043
    9  0.017  0.000  0.027  0.043
   10  0.000  0.001  0.021  0.022
   11  0.001  0.001  0.022  0.024
   12  0.000  0.001  0.021  0.022
   13  0.001  0.001  0.022  0.024
   14  0.001  0.001  0.022  0.024
   15  0.001  0.001  0.023  0.024
   16  0.000  0.001  0.021  0.022
   17  0.001  0.001  0.023  0.024
   18  0.001  0.001  0.023  0.024
   19  0.000  0.000  0.006  0.006
   20  0.000  0.000  0.007  0.007
   21  0.000  0.000  0.007  0.007
   22  0.000  0.000  0.011  0.011
   23  0.000  0.000  0.007  0.007
   24  0.000  0.000  0.011  0.011
   25  0.000  0.000  0.006  0.006
   26  0.000  0.000  0.006  0.006
   27  0.000  0.000  0.011  0.011
   28  0.005  0.000  0.006  0.011
   29  0.005  0.000  0.006  0.011
   30  0.005  0.000  0.006  0.011
   31  0.005  0.000  0.006  0.011
   32  0.005  0.000  0.006  0.011
   33  0.005  0.000  0.006  0.011
   34  0.005  0.000  0.006  0.011
   35  0.006  0.000  0.007  0.013
   36  0.001  0.000  0.002  0.003
   37  0.000  0.001  0.000  0.001
   38  0.000  0.000  0.000  0.000
tot    0.196  0.007  0.558  0.761
 
band     6 # energy   -4.84977751 # occ.  2.00000000
 
ion      s      p      d    tot
    1  0.001  0.000  0.003  0.004
    2  0.000  0.000  0.005  0.005
    3  0.000  0.000  0.005  0.005
    4  0.000  0.000  0.005  0.005
    5  0.001  0.000  0.000  0.001
    6  0.000  0.000  0.005  0.005
    7  0.000  0.000  0.005  0.005
    8  0.000  0.000  0.005  0.005
    9  0.003  0.001  0.007  0.010
   10  0.000  0.000  0.053  0.053
   11  0.009  0.001  0.009  0.019
   12  0.000  0.000  0.053  0.053
   13  0.009  0.001  0.009  0.019
   14  0.009  0.001  0.009  0.019
   15  0.013  0.001  0.048  0.061
   16  0.000  0.000  0.053  0.053
   17  0.013  0.001  0.048  0.061
   18  0.013  0.001  0.048  0.061
   19  0.001  0.000  0.039  0.040
   20  0.011  0.001  0.033  0.045
   21  0.011  0.001  0.033  0.045
   22  0.006  0.001  0.011  0.018
   23  0.011  0.001  0.033  0.045
   24  0.006  0.001  0.011  0.018
   25  0.001  0.000  0.039  0.040
   26  0.001  0.000  0.039  0.040
   27  0.006  0.001  0.011  0.018
   28  0.002  0.000  0.002  0.004
   29  0.000  0.000  0.006  0.006
   30  0.000  0.000  0.006  0.006
   31  0.000  0.000  0.006  0.006
   32  0.000  0.000  0.006  0.006
   33  0.000  0.000  0.006  0.006
   34  0.000  0.000  0.006  0.006
   35  0.000  0.000  0.000  0.000
   36  0.002  0.002  0.000  0.003
   37  0.000  0.001  0.000  0.001
   38  0.000  0.000  0.000  0.000
tot    0.126  0.019  0.657  0.802
 
band     7 # energy   -4.84437789 # occ.  2.00000000
 
ion      s      p      d    tot
    1  0.001  0.000  0.002  0.003
    2  0.000  0.000  0.005  0.005
    3  0.000  0.000  0.005  0.005
    4  0.000  0.000  0.005  0.005
    5  0.005  0.001  0.002  0.007
    6  0.000  0.000  0.005  0.005
    7  0.000  0.000  0.005  0.005
    8  0.000  0.000  0.005  0.005
    9  0.001  0.000  0.001  0.001
   10  0.009  0.001  0.010  0.019
   11  0.005  0.000  0.040  0.045
   12  0.009  0.001  0.010  0.020
   13  0.005  0.000  0.040  0.045
   14  0.005  0.000  0.040  0.044
   15  0.000  0.001  0.024  0.025
   16  0.009  0.001  0.010  0.020
   17  0.000  0.001  0.024  0.025
   18  0.001  0.001  0.024  0.026
   19  0.016  0.001  0.012  0.028
   20  0.001  0.001  0.033  0.035
   21  0.001  0.001  0.032  0.034
   22  0.007  0.000  0.078  0.085
   23  0.001  0.001  0.032  0.034
   24  0.006  0.000  0.079  0.085
   25  0.015  0.001  0.012  0.028
   26  0.016  0.001  0.012  0.028
   27  0.007  0.000  0.078  0.085
   28  0.004  0.001  0.004  0.008
   29  0.000  0.000  0.004  0.005
   30  0.000  0.000  0.004  0.005
   31  0.000  0.000  0.004  0.005
   32  0.000  0.000  0.004  0.005
   33  0.000  0.000  0.004  0.005
   34  0.000  0.000  0.004  0.005
   35  0.003  0.001  0.010  0.014
   36  0.000  0.000  0.000  0.000
   37  0.000  0.000  0.000  0.000
   38  0.000  0.000  0.000  0.000
tot    0.125  0.016  0.662  0.804
 
band     8 # energy   -4.84069132 # occ.  2.00000000
 
ion      s      p      d    tot
    1  0.000  0.000  0.000  0.000
    2  0.000  0.000  0.004  0.004
    3  0.002  0.001  0.006  0.009
    4  0.000  0.000  0.004  0.004
    5  0.000  0.000  0.009  0.010
    6  0.001  0.000  0.003  0.004
    7  0.002  0.001  0.006  0.009
    8  0.001  0.000  0.003  0.004
    9  0.000  0.000  0.007  0.007
   10  0.000  0.000  0.024  0.025
   11  0.005  0.000  0.066  0.072
   12  0.000  0.001  0.030  0.031
   13  0.006  0.000  0.065  0.071
   14  0.023  0.001  0.002  0.026
   15  0.005  0.001  0.025  0.031
   16  0.000  0.001  0.031  0.031
   17  0.005  0.001  0.025  0.031
   18  0.021  0.000  0.030  0.051
   19  0.001  0.000  0.042  0.043
   20  0.008  0.000  0.031  0.039
   21  0.002  0.001  0.015  0.018
   22  0.007  0.001  0.050  0.058
   23  0.002  0.001  0.015  0.018
   24  0.026  0.001  0.009  0.036
   25  0.005  0.001  0.012  0.017
   26  0.001  0.000  0.041  0.043
   27  0.006  0.001  0.051  0.058
   28  0.000  0.000  0.003  0.003
   29  0.002  0.000  0.005  0.007
   30  0.000  0.000  0.003  0.003
   31  0.002  0.000  0.005  0.007
   32  0.002  0.000  0.003  0.006
   33  0.000  0.000  0.003  0.003
   34  0.002  0.000  0.003  0.006
   35  0.000  0.000  0.010  0.010
   36  0.000  0.000  0.000  0.000
   37  0.000  0.000  0.000  0.000
   38  0.000  0.000  0.000  0.000
tot    0.138  0.018  0.642  0.797
 
band     9 # energy   -4.84067535 # occ.  2.00000000
 
ion      s      p      d    tot
    1  0.000  0.000  0.000  0.000
    2  0.002  0.001  0.004  0.007
    3  0.000  0.000  0.003  0.003
    4  0.002  0.001  0.004  0.007
    5  0.000  0.000  0.009  0.010
    6  0.002  0.000  0.005  0.007
    7  0.000  0.000  0.003  0.003
    8  0.001  0.000  0.005  0.007
    9  0.000  0.000  0.007  0.007
   10  0.000  0.001  0.033  0.034
   11  0.017  0.001  0.023  0.041
   12  0.000  0.000  0.026  0.027
   13  0.017  0.001  0.024  0.042
   14  0.000  0.000  0.087  0.087
   15  0.016  0.001  0.028  0.045
   16  0.000  0.000  0.026  0.027
   17  0.016  0.001  0.028  0.044
   18  0.000  0.001  0.023  0.024
   19  0.003  0.001  0.022  0.026
   20  0.000  0.001  0.009  0.011
   21  0.006  0.001  0.026  0.032
   22  0.019  0.001  0.024  0.044
   23  0.006  0.000  0.026  0.033
   24  0.000  0.001  0.064  0.065
   25  0.000  0.000  0.052  0.052
   26  0.003  0.001  0.022  0.026
   27  0.020  0.001  0.023  0.043
   28  0.000  0.000  0.003  0.003
   29  0.001  0.000  0.002  0.003
   30  0.002  0.001  0.005  0.008
   31  0.000  0.000  0.002  0.003
   32  0.001  0.000  0.004  0.005
   33  0.002  0.001  0.005  0.008
   34  0.001  0.000  0.004  0.005
   35  0.000  0.000  0.010  0.010
   36  0.000  0.000  0.000  0.000
   37  0.000  0.000  0.000  0.000
   38  0.000  0.000  0.000  0.000
tot    0.138  0.018  0.642  0.797
 
band    10 # energy   -4.83246531 # occ.  2.00000000
 
ion      s      p      d    tot
    1  0.000  0.000  0.008  0.009
    2  0.001  0.001  0.005  0.007
    3  0.000  0.000  0.002  0.003
    4  0.001  0.001  0.005  0.007
    5  0.000  0.000  0.002  0.002
    6  0.001  0.000  0.004  0.006
    7  0.000  0.000  0.002  0.003
    8  0.001  0.000  0.004  0.005
    9  0.000  0.000  0.004  0.004
   10  0.025  0.001  0.020  0.046
   11  0.001  0.001  0.022  0.024
   12  0.007  0.001  0.037  0.045
   13  0.001  0.001  0.024  0.026
   14  0.004  0.000  0.038  0.042
   15  0.002  0.000  0.076  0.078
   16  0.005  0.001  0.039  0.045
   17  0.003  0.000  0.069  0.072
   18  0.010  0.001  0.009  0.020
   19  0.003  0.001  0.019  0.023
   20  0.017  0.001  0.007  0.025
   21  0.005  0.000  0.050  0.055
   22  0.000  0.001  0.040  0.041
   23  0.004  0.000  0.054  0.058
   24  0.000  0.000  0.027  0.027
   25  0.014  0.001  0.026  0.041
   26  0.004  0.001  0.020  0.025
   27  0.000  0.001  0.042  0.042
   28  0.000  0.000  0.005  0.005
   29  0.000  0.000  0.003  0.003
   30  0.001  0.000  0.004  0.006
   31  0.000  0.000  0.003  0.003
   32  0.000  0.000  0.002  0.002
   33  0.001  0.000  0.004  0.006
   34  0.000  0.000  0.002  0.003
   35  0.000  0.000  0.001  0.001
   36  0.000  0.000  0.001  0.001
   37  0.000  0.000  0.000  0.000
   38  0.000  0.000  0.000  0.000
tot    0.112  0.015  0.682  0.810
 
band    11 # energy   -4.83246167 # occ.  2.00000000
 
ion      s      p      d    tot
    1  0.000  0.000  0.008  0.009
    2  0.000  0.000  0.003  0.003
    3  0.001  0.000  0.005  0.007
    4  0.000  0.000  0.003  0.003
    5  0.000  0.000  0.002  0.002
    6  0.001  0.000  0.003  0.004
    7  0.001  0.001  0.005  0.007
    8  0.001  0.000  0.004  0.005
    9  0.000  0.000  0.004  0.004
   10  0.000  0.001  0.045  0.045
   11  0.003  0.000  0.034  0.037
   12  0.018  0.001  0.027  0.046
   13  0.003  0.001  0.032  0.036
   14  0.000  0.001  0.018  0.020
   15  0.008  0.000  0.027  0.035
   16  0.020  0.001  0.025  0.046
   17  0.007  0.000  0.033  0.041
   18  0.000  0.000  0.094  0.094
   19  0.011  0.001  0.024  0.036
   20  0.000  0.000  0.067  0.067
   21  0.012  0.001  0.024  0.037
   22  0.000  0.000  0.032  0.033
   23  0.013  0.001  0.020  0.034
   24  0.000  0.001  0.045  0.046
   25  0.000  0.001  0.017  0.018
   26  0.010  0.001  0.024  0.034
   27  0.000  0.000  0.031  0.031
   28  0.000  0.000  0.005  0.005
   29  0.001  0.000  0.003  0.004
   30  0.000  0.000  0.002  0.002
   31  0.001  0.000  0.004  0.005
   32  0.001  0.000  0.004  0.005
   33  0.000  0.000  0.002  0.002
   34  0.001  0.000  0.004  0.005
   35  0.000  0.000  0.001  0.001
   36  0.000  0.000  0.001  0.001
   37  0.000  0.000  0.000  0.000
   38  0.000  0.000  0.000  0.000
tot    0.112  0.015  0.682  0.810
 
band    12 # energy   -4.82180912 # occ.  2.00000000
 
ion      s      p      d    tot
    1  0.000  0.001  0.017  0.019
    2  0.001  0.000  0.009  0.010
    3  0.001  0.000  0.009  0.010
    4  0.001  0.000  0.009  0.010
    5  0.000  0.000  0.002  0.002
    6  0.001  0.000  0.009  0.010
    7  0.001  0.000  0.009  0.010
    8  0.001  0.000  0.009  0.010
    9  0.008  0.000  0.004  0.013
   10  0.009  0.000  0.031  0.039
   11  0.000  0.000  0.063  0.063
   12  0.009  0.000  0.030  0.039
   13  0.000  0.000  0.063  0.063
   14  0.000  0.000  0.063  0.063
   15  0.002  0.000  0.018  0.020
   16  0.009  0.000  0.030  0.039
   17  0.002  0.000  0.018  0.020
   18  0.002  0.000  0.018  0.020
   19  0.001  0.000  0.007  0.008
   20  0.002  0.000  0.028  0.030
   21  0.002  0.000  0.028  0.030
   22  0.001  0.000  0.043  0.043
   23  0.002  0.000  0.028  0.030
   24  0.001  0.000  0.043  0.044
   25  0.001  0.000  0.007  0.008
   26  0.001  0.000  0.007  0.008
   27  0.001  0.000  0.043  0.043
   28  0.008  0.000  0.001  0.009
   29  0.002  0.000  0.014  0.016
   30  0.002  0.000  0.014  0.016
   31  0.002  0.000  0.014  0.016
   32  0.002  0.000  0.014  0.016
   33  0.002  0.000  0.014  0.016
   34  0.002  0.000  0.014  0.016
   35  0.003  0.000  0.017  0.021
   36  0.001  0.000  0.000  0.001
   37  0.000  0.000  0.000  0.000
   38  0.000  0.000  0.000  0.000
tot    0.077  0.008  0.747  0.832
 
band    13 # energy   -4.79739989 # occ.  2.00000000
 
ion      s      p      d    tot
    1  0.000  0.000  0.019  0.019
    2  0.003  0.000  0.005  0.008
    3  0.001  0.000  0.008  0.009
    4  0.003  0.000  0.005  0.008
    5  0.000  0.000  0.004  0.005
    6  0.000  0.000  0.007  0.008
    7  0.001  0.000  0.008  0.009
    8  0.000  0.000  0.007  0.008
    9  0.000  0.000  0.008  0.009
   10  0.000  0.000  0.036  0.036
   11  0.001  0.000  0.026  0.027
   12  0.001  0.000  0.035  0.036
   13  0.001  0.000  0.026  0.027
   14  0.000  0.000  0.013  0.014
   15  0.003  0.000  0.021  0.024
   16  0.001  0.000  0.035  0.036
   17  0.003  0.000  0.021  0.024
   18  0.000  0.000  0.059  0.059
   19  0.009  0.000  0.037  0.046
   20  0.000  0.000  0.086  0.086
   21  0.005  0.000  0.029  0.034
   22  0.001  0.000  0.037  0.037
   23  0.005  0.000  0.029  0.035
   24  0.000  0.000  0.008  0.008
   25  0.000  0.000  0.077  0.077
   26  0.009  0.000  0.036  0.046
   27  0.001  0.000  0.036  0.037
   28  0.000  0.000  0.014  0.014
   29  0.000  0.000  0.010  0.010
   30  0.002  0.000  0.006  0.008
   31  0.000  0.000  0.010  0.010
   32  0.002  0.001  0.005  0.008
   33  0.002  0.000  0.006  0.008
   34  0.002  0.001  0.005  0.008
   35  0.000  0.000  0.007  0.007
   36  0.000  0.000  0.000  0.001
   37  0.000  0.000  0.000  0.000
   38  0.000  0.000  0.000  0.000
tot    0.054  0.008  0.783  0.845
 
band    14 # energy   -4.79737999 # occ.  2.00000000
 
ion      s      p      d    tot
    1  0.000  0.000  0.019  0.019
    2  0.000  0.000  0.008  0.008
    3  0.002  0.000  0.006  0.008
    4  0.000  0.000  0.008  0.008
    5  0.000  0.000  0.004  0.005
    6  0.002  0.000  0.007  0.009
    7  0.002  0.000  0.006  0.008
    8  0.002  0.000  0.007  0.009
    9  0.000  0.000  0.008  0.009
   10  0.001  0.000  0.034  0.036
   11  0.000  0.000  0.018  0.018
   12  0.000  0.000  0.036  0.036
   13  0.000  0.000  0.018  0.018
   14  0.001  0.000  0.030  0.031
   15  0.001  0.000  0.046  0.047
   16  0.000  0.000  0.036  0.036
   17  0.001  0.000  0.046  0.048
   18  0.004  0.000  0.008  0.012
   19  0.003  0.000  0.064  0.067
   20  0.007  0.000  0.010  0.017
   21  0.002  0.000  0.067  0.069
   22  0.000  0.000  0.017  0.018
   23  0.002  0.000  0.067  0.069
   24  0.001  0.000  0.046  0.047
   25  0.012  0.000  0.023  0.035
   26  0.003  0.000  0.064  0.067
   27  0.000  0.000  0.018  0.018
   28  0.000  0.000  0.014  0.014
   29  0.002  0.000  0.004  0.007
   30  0.001  0.001  0.008  0.009
   31  0.002  0.000  0.004  0.007
   32  0.000  0.000  0.009  0.009
   33  0.001  0.001  0.008  0.009
   34  0.000  0.000  0.009  0.009
   35  0.000  0.000  0.007  0.007
   36  0.000  0.000  0.000  0.001
   37  0.000  0.000  0.000  0.000
   38  0.000  0.000  0.000  0.000
tot    0.054  0.008  0.783  0.845
 
band    15 # energy   -4.79508554 # occ.  2.00000000
 
ion      s      p      d    tot
    1  0.006  0.000  0.004  0.011
    2  0.000  0.000  0.011  0.011
    3  0.000  0.000  0.011  0.011
    4  0.000  0.000  0.011  0.011
    5  0.003  0.001  0.003  0.006
    6  0.000  0.000  0.011  0.011
    7  0.000  0.000  0.011  0.011
    8  0.000  0.000  0.011  0.011
    9  0.000  0.000  0.006  0.006
   10  0.001  0.000  0.040  0.041
   11  0.004  0.000  0.013  0.017
   12  0.001  0.000  0.040  0.041
   13  0.004  0.000  0.013  0.017
   14  0.004  0.000  0.013  0.017
   15  0.000  0.000  0.044  0.044
   16  0.001  0.000  0.040  0.041
   17  0.000  0.000  0.044  0.044
   18  0.000  0.000  0.044  0.044
   19  0.000  0.000  0.068  0.068
   20  0.004  0.000  0.028  0.033
   21  0.005  0.000  0.028  0.033
   22  0.004  0.000  0.017  0.021
   23  0.005  0.000  0.028  0.033
   24  0.004  0.000  0.017  0.022
   25  0.000  0.000  0.068  0.069
   26  0.000  0.000  0.068  0.068
   27  0.004  0.000  0.017  0.021
   28  0.002  0.000  0.013  0.015
   29  0.000  0.000  0.009  0.010
   30  0.000  0.000  0.009  0.010
   31  0.000  0.000  0.009  0.010
   32  0.000  0.000  0.009  0.010
   33  0.000  0.000  0.009  0.010
   34  0.000  0.000  0.009  0.010
   35  0.003  0.001  0.000  0.004
   36  0.002  0.002  0.000  0.004
   37  0.000  0.001  0.000  0.001
   38  0.000  0.000  0.000  0.000
tot    0.060  0.010  0.774  0.844
 
band    16 # energy   -4.78495020 # occ.  2.00000000
 
ion      s      p      d    tot
    1  0.000  0.000  0.006  0.006
    2  0.000  0.000  0.011  0.012
    3  0.002  0.001  0.007  0.010
    4  0.000  0.000  0.012  0.012
    5  0.000  0.000  0.017  0.017
    6  0.002  0.000  0.008  0.011
    7  0.003  0.001  0.006  0.010
    8  0.003  0.000  0.007  0.011
    9  0.000  0.000  0.014  0.014
   10  0.000  0.000  0.077  0.077
   11  0.008  0.000  0.031  0.040
   12  0.006  0.000  0.033  0.039
   13  0.006  0.000  0.039  0.046
   14  0.000  0.000  0.066  0.067
   15  0.000  0.000  0.044  0.044
   16  0.007  0.000  0.020  0.028
   17  0.000  0.000  0.037  0.038
   18  0.000  0.000  0.013  0.014
   19  0.002  0.000  0.022  0.024
   20  0.000  0.000  0.022  0.023
   21  0.001  0.000  0.032  0.033
   22  0.005  0.000  0.030  0.036
   23  0.001  0.000  0.035  0.037
   24  0.000  0.000  0.070  0.071
   25  0.000  0.000  0.033  0.033
   26  0.001  0.000  0.025  0.026
   27  0.007  0.000  0.019  0.026
   28  0.000  0.000  0.003  0.003
   29  0.002  0.000  0.003  0.004
   30  0.001  0.000  0.006  0.007
   31  0.001  0.000  0.002  0.004
   32  0.000  0.000  0.003  0.004
   33  0.000  0.000  0.007  0.007
   34  0.000  0.000  0.004  0.004
   35  0.000  0.000  0.006  0.006
   36  0.000  0.000  0.001  0.001
   37  0.000  0.000  0.000  0.000
   38  0.000  0.000  0.000  0.000
tot    0.060  0.008  0.775  0.843
 
band    17 # energy   -4.78494948 # occ.  2.00000000
 
ion      s      p      d    tot
    1  0.000  0.000  0.006  0.006
    2  0.003  0.000  0.006  0.010
    3  0.001  0.000  0.010  0.012
    4  0.003  0.001  0.006  0.010
    5  0.000  0.000  0.017  0.017
    6  0.001  0.001  0.009  0.011
    7  0.001  0.000  0.011  0.012
    8  0.001  0.000  0.010  0.011
    9  0.000  0.000  0.014  0.014
   10  0.009  0.000  0.010  0.019
   11  0.002  0.000  0.060  0.062
   12  0.003  0.000  0.054  0.057
   13  0.003  0.000  0.052  0.056
   14  0.010  0.000  0.025  0.035
   15  0.000  0.000  0.019  0.019
   16  0.001  0.000  0.067  0.069
   17  0.000  0.000  0.026  0.026
   18  0.000  0.000  0.050  0.050
   19  0.000  0.000  0.031  0.031
   20  0.001  0.000  0.037  0.039
   21  0.001  0.000  0.028  0.028
   22  0.003  0.000  0.049  0.052
   23  0.000  0.000  0.025  0.025
   24  0.008  0.000  0.009  0.017
   25  0.002  0.000  0.020  0.022
   26  0.001  0.000  0.029  0.029
   27  0.001  0.000  0.061  0.062
   28  0.000  0.000  0.003  0.003
   29  0.000  0.000  0.006  0.006
   30  0.001  0.000  0.002  0.003
   31  0.000  0.000  0.006  0.007
   32  0.001  0.000  0.005  0.007
   33  0.001  0.000  0.002  0.003
   34  0.001  0.000  0.004  0.006
   35  0.000  0.000  0.006  0.006
   36  0.000  0.000  0.001  0.001
   37  0.000  0.000  0.000  0.000
   38  0.000  0.000  0.000  0.000
tot    0.060  0.008  0.775  0.843
 
band    18 # energy   -4.74930034 # occ.  2.00000000
 
ion      s      p      d    tot
    1  0.004  0.000  0.001  0.005
    2  0.002  0.000  0.010  0.012
    3  0.002  0.000  0.010  0.012
    4  0.002  0.000  0.010  0.012
    5  0.004  0.000  0.014  0.018
    6  0.002  0.000  0.010  0.012
    7  0.002  0.000  0.010  0.012
    8  0.002  0.000  0.010  0.012
    9  0.000  0.000  0.011  0.011
   10  0.000  0.000  0.011  0.011
   11  0.002  0.000  0.023  0.025
   12  0.000  0.000  0.011  0.011
   13  0.002  0.000  0.023  0.025
   14  0.002  0.000  0.023  0.025
   15  0.004  0.000  0.012  0.016
   16  0.000  0.000  0.011  0.011
   17  0.004  0.000  0.012  0.016
   18  0.004  0.000  0.012  0.016
   19  0.002  0.000  0.013  0.015
   20  0.001  0.001  0.027  0.029
   21  0.001  0.001  0.027  0.029
   22  0.000  0.001  0.016  0.017
   23  0.001  0.001  0.027  0.029
   24  0.000  0.001  0.016  0.017
   25  0.002  0.000  0.013  0.015
   26  0.002  0.000  0.013  0.015
   27  0.000  0.001  0.016  0.017
   28  0.009  0.000  0.031  0.041
   29  0.012  0.000  0.028  0.041
   30  0.012  0.000  0.028  0.041
   31  0.012  0.000  0.028  0.041
   32  0.012  0.000  0.028  0.041
   33  0.012  0.000  0.028  0.041
   34  0.012  0.000  0.028  0.041
   35  0.020  0.000  0.025  0.045
   36  0.005  0.001  0.008  0.013
   37  0.001  0.002  0.000  0.003
   38  0.001  0.000  0.000  0.001
tot    0.153  0.011  0.624  0.788
 
band    19 # energy   -4.63873322 # occ.  2.00000000
 
ion      s      p      d    tot
    1  0.002  0.001  0.005  0.008
    2  0.000  0.000  0.010  0.010
    3  0.000  0.000  0.010  0.010
    4  0.000  0.000  0.010  0.010
    5  0.003  0.000  0.002  0.006
    6  0.000  0.000  0.010  0.010
    7  0.000  0.000  0.010  0.010
    8  0.000  0.000  0.010  0.010
    9  0.000  0.000  0.010  0.010
   10  0.000  0.000  0.038  0.039
   11  0.000  0.000  0.022  0.022
   12  0.000  0.000  0.038  0.038
   13  0.000  0.000  0.022  0.022
   14  0.000  0.000  0.022  0.022
   15  0.001  0.001  0.057  0.059
   16  0.000  0.000  0.038  0.038
   17  0.001  0.001  0.057  0.059
   18  0.001  0.001  0.057  0.059
   19  0.001  0.000  0.026  0.027
   20  0.000  0.000  0.025  0.025
   21  0.000  0.000  0.025  0.025
   22  0.001  0.001  0.060  0.062
   23  0.000  0.000  0.025  0.025
   24  0.001  0.001  0.060  0.062
   25  0.001  0.000  0.025  0.027
   26  0.001  0.000  0.026  0.027
   27  0.001  0.001  0.060  0.062
   28  0.003  0.000  0.004  0.007
   29  0.000  0.000  0.010  0.010
   30  0.000  0.000  0.010  0.010
   31  0.000  0.000  0.010  0.010
   32  0.000  0.000  0.009  0.010
   33  0.000  0.000  0.010  0.010
   34  0.000  0.000  0.009  0.010
   35  0.002  0.000  0.006  0.009
   36  0.002  0.002  0.000  0.004
   37  0.000  0.000  0.000  0.000
   38  0.000  0.000  0.000  0.000
tot    0.026  0.016  0.822  0.864
 
band    20 # energy   -4.62982669 # occ.  2.00000000
 
ion      s      p      d    tot
    1  0.001  0.000  0.004  0.005
    2  0.000  0.000  0.011  0.011
    3  0.000  0.000  0.010  0.011
    4  0.000  0.000  0.011  0.011
    5  0.001  0.001  0.013  0.014
    6  0.000  0.000  0.010  0.011
    7  0.000  0.000  0.010  0.011
    8  0.000  0.000  0.010  0.011
    9  0.004  0.001  0.000  0.005
   10  0.002  0.000  0.036  0.039
   11  0.000  0.001  0.055  0.056
   12  0.002  0.000  0.036  0.038
   13  0.000  0.001  0.055  0.056
   14  0.000  0.001  0.054  0.055
   15  0.000  0.000  0.020  0.021
   16  0.002  0.000  0.036  0.038
   17  0.000  0.000  0.020  0.021
   18  0.000  0.000  0.020  0.021
   19  0.001  0.001  0.053  0.054
   20  0.001  0.000  0.053  0.054
   21  0.001  0.000  0.052  0.053
   22  0.000  0.000  0.014  0.014
   23  0.001  0.000  0.052  0.053
   24  0.000  0.000  0.013  0.013
   25  0.001  0.001  0.053  0.054
   26  0.001  0.001  0.053  0.054
   27  0.000  0.000  0.014  0.014
   28  0.003  0.001  0.004  0.009
   29  0.000  0.000  0.009  0.009
   30  0.000  0.000  0.009  0.009
   31  0.000  0.000  0.009  0.009
   32  0.000  0.000  0.009  0.009
   33  0.000  0.000  0.009  0.009
   34  0.000  0.000  0.009  0.009
   35  0.001  0.001  0.001  0.002
   36  0.000  0.000  0.002  0.002
   37  0.000  0.000  0.000  0.000
   38  0.000  0.000  0.000  0.000
tot    0.025  0.015  0.825  0.865
 
band    21 # energy   -4.62725937 # occ.  2.00000000
 
ion      s      p      d    tot
    1  0.000  0.000  0.012  0.012
    2  0.000  0.000  0.010  0.010
    3  0.001  0.000  0.005  0.006
    4  0.000  0.000  0.010  0.010
    5  0.000  0.000  0.000  0.000
    6  0.001  0.001  0.008  0.010
    7  0.001  0.000  0.005  0.006
    8  0.001  0.001  0.008  0.010
    9  0.000  0.001  0.018  0.019
   10  0.002  0.001  0.043  0.046
   11  0.000  0.000  0.029  0.030
   12  0.001  0.000  0.019  0.020
   13  0.000  0.000  0.029  0.030
   14  0.000  0.001  0.022  0.024
   15  0.001  0.000  0.082  0.082
   16  0.001  0.000  0.018  0.019