PROCAR new format
# of k-points:   10         # of bands:  252         # of ions:   37

 k-point     1 :    0.00000000 0.00000000 0.00000000     weight = 0.01562500

band     1 # energy   -8.75186632 # occ.  2.00000000
 
ion      s      p      d    tot
    1  0.007  0.001  0.000  0.008
    2  0.007  0.001  0.000  0.008
    3  0.007  0.001  0.000  0.008
    4  0.007  0.001  0.000  0.008
    5  0.007  0.001  0.000  0.008
    6  0.007  0.001  0.000  0.008
    7  0.007  0.001  0.000  0.008
    8  0.007  0.001  0.000  0.008
    9  0.007  0.001  0.000  0.008
   10  0.026  0.000  0.000  0.026
   11  0.025  0.000  0.000  0.026
   12  0.026  0.000  0.000  0.026
   13  0.025  0.000  0.000  0.026
   14  0.025  0.000  0.000  0.026
   15  0.025  0.000  0.000  0.026
   16  0.026  0.000  0.000  0.026
   17  0.025  0.000  0.000  0.026
   18  0.025  0.000  0.000  0.026
   19  0.024  0.000  0.000  0.025
   20  0.024  0.000  0.000  0.024
   21  0.024  0.000  0.000  0.024
   22  0.024  0.000  0.000  0.024
   23  0.024  0.000  0.000  0.024
   24  0.024  0.000  0.000  0.024
   25  0.024  0.000  0.000  0.025
   26  0.024  0.000  0.000  0.025
   27  0.024  0.000  0.000  0.024
   28  0.006  0.001  0.000  0.007
   29  0.006  0.001  0.000  0.007
   30  0.006  0.001  0.000  0.007
   31  0.006  0.001  0.000  0.007
   32  0.006  0.001  0.000  0.007
   33  0.006  0.001  0.000  0.007
   34  0.006  0.001  0.000  0.007
   35  0.006  0.001  0.000  0.007
   36  0.009  0.001  0.000  0.010
   37  0.000  0.000  0.000  0.000
tot    0.567  0.017  0.001  0.584
 
band     2 # energy   -7.43577742 # occ.  2.00000000
 
ion      s      p      d    tot
    1  0.018  0.001  0.001  0.019
    2  0.018  0.001  0.001  0.019
    3  0.018  0.001  0.001  0.019
    4  0.018  0.001  0.001  0.019
    5  0.018  0.001  0.001  0.019
    6  0.018  0.001  0.001  0.019
    7  0.018  0.001  0.001  0.019
    8  0.018  0.001  0.001  0.019
    9  0.018  0.001  0.001  0.019
   10  0.009  0.002  0.001  0.012
   11  0.009  0.002  0.000  0.012
   12  0.009  0.002  0.001  0.012
   13  0.009  0.002  0.000  0.012
   14  0.009  0.002  0.000  0.012
   15  0.009  0.002  0.001  0.012
   16  0.009  0.002  0.001  0.012
   17  0.009  0.002  0.001  0.012
   18  0.009  0.002  0.001  0.012
   19  0.012  0.002  0.001  0.015
   20  0.010  0.002  0.001  0.012
   21  0.010  0.002  0.001  0.012
   22  0.012  0.002  0.001  0.015
   23  0.010  0.002  0.001  0.012
   24  0.012  0.002  0.001  0.015
   25  0.012  0.002  0.001  0.015
   26  0.012  0.002  0.001  0.015
   27  0.012  0.002  0.001  0.015
   28  0.020  0.001  0.000  0.021
   29  0.018  0.001  0.000  0.019
   30  0.018  0.001  0.000  0.019
   31  0.018  0.001  0.000  0.019
   32  0.018  0.001  0.000  0.019
   33  0.018  0.001  0.000  0.019
   34  0.018  0.001  0.000  0.019
   35  0.019  0.001  0.000  0.021
   36  0.022  0.001  0.000  0.023
   37  0.001  0.000  0.000  0.001
tot    0.515  0.054  0.019  0.588
 
band     3 # energy   -5.83537972 # occ.  2.00000000
 
ion      s      p      d    tot
    1  0.016  0.000  0.005  0.021
    2  0.013  0.000  0.006  0.020
    3  0.013  0.000  0.006  0.020
    4  0.013  0.000  0.006  0.020
    5  0.003  0.001  0.007  0.011
    6  0.013  0.000  0.006  0.020
    7  0.013  0.000  0.006  0.020
    8  0.013  0.000  0.006  0.020
    9  0.026  0.000  0.003  0.030
   10  0.003  0.003  0.004  0.010
   11  0.016  0.005  0.001  0.023
   12  0.003  0.003  0.004  0.010
   13  0.016  0.005  0.001  0.023
   14  0.016  0.005  0.001  0.023
   15  0.000  0.002  0.005  0.008
   16  0.003  0.003  0.004  0.010
   17  0.000  0.002  0.005  0.008
   18  0.000  0.002  0.005  0.008
   19  0.000  0.003  0.005  0.008
   20  0.020  0.005  0.002  0.027
   21  0.020  0.005  0.002  0.027
   22  0.000  0.004  0.003  0.008
   23  0.020  0.005  0.002  0.027
   24  0.000  0.004  0.003  0.008
   25  0.000  0.003  0.005  0.008
   26  0.000  0.003  0.005  0.008
   27  0.000  0.004  0.003  0.008
   28  0.021  0.000  0.004  0.025
   29  0.014  0.000  0.006  0.021
   30  0.014  0.000  0.006  0.021
   31  0.014  0.000  0.006  0.021
   32  0.014  0.000  0.006  0.021
   33  0.014  0.000  0.006  0.021
   34  0.014  0.000  0.006  0.021
   35  0.026  0.000  0.004  0.031
   36  0.002  0.002  0.018  0.022
   37  0.000  0.000  0.000  0.000
tot    0.380  0.076  0.179  0.634
 
band     4 # energy   -5.77768837 # occ.  2.00000000
 
ion      s      p      d    tot
    1  0.000  0.003  0.006  0.009
    2  0.009  0.002  0.003  0.014
    3  0.005  0.002  0.002  0.009
    4  0.009  0.002  0.003  0.014
    5  0.000  0.001  0.003  0.004
    6  0.001  0.001  0.002  0.004
    7  0.005  0.002  0.002  0.009
    8  0.001  0.001  0.002  0.004
    9  0.000  0.000  0.004  0.004
   10  0.061  0.003  0.005  0.069
   11  0.002  0.010  0.003  0.015
   12  0.016  0.005  0.010  0.031
   13  0.002  0.010  0.003  0.015
   14  0.008  0.000  0.006  0.015
   15  0.006  0.002  0.011  0.019
   16  0.014  0.005  0.010  0.030
   17  0.006  0.002  0.011  0.020
   18  0.024  0.004  0.002  0.031
   19  0.012  0.008  0.007  0.027
   20  0.047  0.005  0.003  0.055
   21  0.012  0.001  0.013  0.027
   22  0.000  0.008  0.004  0.012
   23  0.011  0.001  0.014  0.026
   24  0.000  0.001  0.005  0.006
   25  0.049  0.002  0.006  0.057
   26  0.013  0.008  0.007  0.028
   27  0.000  0.008  0.004  0.012
   28  0.000  0.003  0.005  0.008
   29  0.008  0.002  0.003  0.013
   30  0.008  0.002  0.003  0.012
   31  0.008  0.002  0.003  0.013
   32  0.000  0.001  0.003  0.003
   33  0.008  0.002  0.003  0.012
   34  0.000  0.001  0.003  0.003
   35  0.000  0.000  0.002  0.003
   36  0.000  0.003  0.011  0.014
   37  0.000  0.000  0.000  0.000
tot    0.345  0.115  0.185  0.645
 
band     5 # energy   -5.77760953 # occ.  2.00000000
 
ion      s      p      d    tot
    1  0.000  0.003  0.006  0.009
    2  0.001  0.001  0.002  0.004
    3  0.005  0.002  0.002  0.009
    4  0.001  0.001  0.002  0.004
    5  0.000  0.001  0.003  0.004
    6  0.009  0.002  0.002  0.014
    7  0.005  0.002  0.002  0.009
    8  0.010  0.002  0.002  0.014
    9  0.000  0.001  0.004  0.004
   10  0.000  0.006  0.012  0.018
   11  0.006  0.003  0.005  0.014
   12  0.045  0.004  0.007  0.056
   13  0.006  0.004  0.005  0.014
   14  0.000  0.013  0.002  0.015
   15  0.019  0.004  0.005  0.027
   16  0.046  0.004  0.007  0.057
   17  0.018  0.003  0.005  0.027
   18  0.000  0.001  0.014  0.016
   19  0.038  0.004  0.006  0.048
   20  0.000  0.000  0.017  0.017
   21  0.034  0.003  0.007  0.045
   22  0.000  0.003  0.005  0.008
   23  0.035  0.004  0.006  0.045
   24  0.000  0.010  0.004  0.014
   25  0.000  0.010  0.007  0.017
   26  0.036  0.004  0.007  0.047
   27  0.000  0.003  0.005  0.008
   28  0.000  0.003  0.005  0.008
   29  0.002  0.001  0.003  0.006
   30  0.003  0.001  0.003  0.006
   31  0.003  0.001  0.003  0.006
   32  0.011  0.003  0.003  0.016
   33  0.003  0.001  0.003  0.007
   34  0.011  0.003  0.003  0.016
   35  0.000  0.000  0.002  0.003
   36  0.000  0.003  0.011  0.014
   37  0.000  0.000  0.000  0.000
tot    0.346  0.115  0.185  0.645
 
band     6 # energy   -5.76065165 # occ.  2.00000000
 
ion      s      p      d    tot
    1  0.022  0.003  0.001  0.026
    2  0.000  0.002  0.004  0.006
    3  0.000  0.002  0.004  0.006
    4  0.000  0.002  0.004  0.006
    5  0.000  0.000  0.000  0.001
    6  0.000  0.002  0.004  0.006
    7  0.000  0.002  0.004  0.006
    8  0.000  0.002  0.004  0.006
    9  0.010  0.002  0.001  0.012
   10  0.028  0.005  0.007  0.040
   11  0.004  0.001  0.011  0.016
   12  0.028  0.005  0.007  0.040
   13  0.004  0.001  0.011  0.016
   14  0.003  0.001  0.011  0.015
   15  0.016  0.009  0.003  0.027
   16  0.028  0.005  0.007  0.040
   17  0.016  0.009  0.003  0.027
   18  0.016  0.009  0.003  0.027
   19  0.019  0.009  0.002  0.030
   20  0.000  0.002  0.011  0.012
   21  0.000  0.002  0.010  0.012
   22  0.027  0.003  0.008  0.039
   23  0.000  0.002  0.010  0.012
   24  0.027  0.003  0.008  0.038
   25  0.019  0.009  0.002  0.030
   26  0.019  0.009  0.002  0.030
   27  0.027  0.003  0.008  0.039
   28  0.019  0.002  0.000  0.021
   29  0.000  0.002  0.004  0.006
   30  0.000  0.002  0.004  0.006
   31  0.000  0.002  0.004  0.006
   32  0.000  0.002  0.004  0.006
   33  0.000  0.002  0.004  0.006
   34  0.000  0.002  0.004  0.006
   35  0.013  0.003  0.002  0.017
   36  0.000  0.000  0.000  0.000
   37  0.000  0.000  0.000  0.000
tot    0.346  0.115  0.177  0.638
 
band     7 # energy   -5.75468288 # occ.  2.00000000
 
ion      s      p      d    tot
    1  0.000  0.000  0.003  0.003
    2  0.010  0.002  0.003  0.015
    3  0.006  0.002  0.002  0.010
    4  0.010  0.002  0.003  0.015
    5  0.000  0.002  0.006  0.008
    6  0.001  0.001  0.002  0.004
    7  0.005  0.002  0.002  0.009
    8  0.000  0.001  0.002  0.004
    9  0.000  0.003  0.004  0.007
   10  0.000  0.008  0.007  0.015
   11  0.043  0.004  0.006  0.053
   12  0.001  0.004  0.005  0.010
   13  0.041  0.004  0.007  0.051
   14  0.000  0.001  0.017  0.018
   15  0.028  0.003  0.006  0.038
   16  0.002  0.003  0.005  0.010
   17  0.027  0.004  0.006  0.037
   18  0.000  0.012  0.004  0.016
   19  0.011  0.003  0.005  0.019
   20  0.000  0.014  0.002  0.016
   21  0.013  0.004  0.005  0.022
   22  0.045  0.004  0.007  0.056
   23  0.014  0.003  0.005  0.023
   24  0.000  0.003  0.014  0.018
   25  0.000  0.003  0.012  0.015
   26  0.010  0.003  0.005  0.019
   27  0.047  0.004  0.006  0.058
   28  0.000  0.000  0.003  0.003
   29  0.008  0.002  0.002  0.013
   30  0.006  0.002  0.003  0.011
   31  0.008  0.002  0.002  0.012
   32  0.000  0.001  0.002  0.003
   33  0.006  0.002  0.003  0.010
   34  0.000  0.001  0.002  0.003
   35  0.000  0.003  0.006  0.009
   36  0.000  0.003  0.007  0.010
   37  0.000  0.000  0.000  0.000
tot    0.343  0.117  0.181  0.642
 
band     8 # energy   -5.75460594 # occ.  2.00000000
 
ion      s      p      d    tot
    1  0.000  0.000  0.003  0.003
    2  0.001  0.001  0.002  0.004
    3  0.005  0.002  0.002  0.009
    4  0.001  0.001  0.002  0.004
    5  0.000  0.002  0.006  0.008
    6  0.010  0.002  0.002  0.015
    7  0.005  0.002  0.002  0.009
    8  0.010  0.002  0.003  0.015
    9  0.000  0.003  0.004  0.007
   10  0.002  0.002  0.004  0.008
   11  0.013  0.002  0.014  0.028
   12  0.000  0.006  0.006  0.013
   13  0.015  0.002  0.013  0.030
   14  0.056  0.005  0.003  0.064
   15  0.009  0.010  0.005  0.023
   16  0.000  0.006  0.007  0.013
   17  0.010  0.009  0.005  0.024
   18  0.037  0.001  0.007  0.044
   19  0.003  0.003  0.010  0.016
   20  0.018  0.000  0.007  0.025
   21  0.005  0.010  0.003  0.018
   22  0.016  0.004  0.011  0.031
   23  0.004  0.011  0.003  0.018
   24  0.062  0.004  0.004  0.070
   25  0.014  0.003  0.003  0.020
   26  0.004  0.003  0.009  0.016
   27  0.014  0.004  0.012  0.029
   28  0.000  0.000  0.003  0.003
   29  0.001  0.001  0.003  0.005
   30  0.004  0.001  0.002  0.007
   31  0.001  0.001  0.003  0.005
   32  0.009  0.003  0.003  0.014
   33  0.004  0.001  0.002  0.007
   34  0.009  0.003  0.003  0.014
   35  0.000  0.003  0.006  0.009
   36  0.000  0.003  0.007  0.010
   37  0.000  0.000  0.000  0.000
tot    0.343  0.117  0.181  0.642
 
band     9 # energy   -5.69874445 # occ.  2.00000000
 
ion      s      p      d    tot
    1  0.000  0.001  0.002  0.002
    2  0.003  0.002  0.006  0.011
    3  0.003  0.002  0.006  0.011
    4  0.003  0.002  0.006  0.011
    5  0.041  0.003  0.000  0.044
    6  0.003  0.002  0.006  0.011
    7  0.003  0.002  0.006  0.011
    8  0.003  0.002  0.006  0.011
    9  0.001  0.002  0.005  0.007
   10  0.006  0.005  0.007  0.018
   11  0.017  0.008  0.005  0.030
   12  0.006  0.005  0.007  0.018
   13  0.017  0.008  0.005  0.030
   14  0.017  0.008  0.005  0.030
   15  0.024  0.002  0.010  0.036
   16  0.006  0.005  0.007  0.018
   17  0.024  0.002  0.010  0.036
   18  0.024  0.002  0.010  0.036
   19  0.012  0.002  0.008  0.022
   20  0.015  0.005  0.005  0.025
   21  0.016  0.005  0.005  0.025
   22  0.006  0.006  0.005  0.016
   23  0.016  0.005  0.005  0.025
   24  0.006  0.006  0.005  0.016
   25  0.012  0.002  0.008  0.022
   26  0.012  0.002  0.008  0.022
   27  0.006  0.006  0.005  0.016
   28  0.000  0.001  0.004  0.005
   29  0.004  0.001  0.003  0.007
   30  0.004  0.001  0.003  0.007
   31  0.004  0.001  0.003  0.007
   32  0.004  0.001  0.003  0.007
   33  0.004  0.001  0.003  0.007
   34  0.004  0.001  0.003  0.007
   35  0.000  0.000  0.002  0.003
   36  0.035  0.001  0.001  0.038
   37  0.003  0.000  0.000  0.003
tot    0.366  0.104  0.185  0.655
 
band    10 # energy   -5.02064794 # occ.  2.00000000
 
ion      s      p      d    tot
    1  0.005  0.000  0.008  0.014
    2  0.003  0.001  0.010  0.014
    3  0.007  0.001  0.009  0.016
    4  0.003  0.001  0.009  0.014
    5  0.000  0.002  0.009  0.011
    6  0.003  0.001  0.009  0.013
    7  0.007  0.001  0.009  0.016
    8  0.003  0.001  0.009  0.013
    9  0.017  0.000  0.006  0.023
   10  0.009  0.000  0.024  0.033
   11  0.011  0.001  0.021  0.032
   12  0.005  0.000  0.025  0.030
   13  0.011  0.001  0.021  0.032
   14  0.013  0.001  0.018  0.032
   15  0.002  0.000  0.020  0.023
   16  0.005  0.000  0.025  0.030
   17  0.002  0.000  0.020  0.023
   18  0.000  0.001  0.020  0.020
   19  0.004  0.000  0.019  0.023
   20  0.013  0.001  0.024  0.038
   21  0.012  0.001  0.026  0.039
   22  0.001  0.000  0.020  0.022
   23  0.012  0.001  0.026  0.039
   24  0.004  0.000  0.020  0.024
   25  0.002  0.000  0.020  0.021
   26  0.004  0.000  0.019  0.023
   27  0.001  0.000  0.020  0.022
   28  0.004  0.000  0.006  0.011
   29  0.003  0.001  0.008  0.011
   30  0.007  0.001  0.008  0.015
   31  0.003  0.001  0.008  0.011
   32  0.003  0.001  0.008  0.011
   33  0.007  0.001  0.008  0.015
   34  0.002  0.001  0.008  0.011
   35  0.013  0.000  0.006  0.019
   36  0.001  0.002  0.029  0.031
   37  0.002  0.000  0.000  0.002
tot    0.204  0.022  0.553  0.779
 
band    11 # energy   -5.02040669 # occ.  2.00000000
 
ion      s      p      d    tot
    1  0.000  0.004  0.011  0.015
    2  0.018  0.003  0.005  0.026
    3  0.000  0.002  0.005  0.007
    4  0.018  0.003  0.005  0.026
    5  0.000  0.000  0.011  0.011
    6  0.013  0.003  0.005  0.022
    7  0.000  0.002  0.005  0.007
    8  0.013  0.003  0.005  0.022
    9  0.000  0.005  0.008  0.013
   10  0.000  0.004  0.023  0.026
   11  0.002  0.002  0.010  0.014
   12  0.007  0.002  0.010  0.018
   13  0.003  0.002  0.010  0.014
   14  0.000  0.002  0.014  0.016
   15  0.017  0.004  0.010  0.031
   16  0.006  0.002  0.010  0.018
   17  0.017  0.004  0.010  0.031
   18  0.000  0.000  0.022  0.022
   19  0.013  0.004  0.010  0.027
   20  0.000  0.003  0.015  0.018
   21  0.001  0.001  0.011  0.013
   22  0.009  0.003  0.010  0.021
   23  0.000  0.001  0.011  0.013
   24  0.000  0.002  0.027  0.030
   25  0.000  0.000  0.018  0.018
   26  0.012  0.004  0.010  0.027
   27  0.009  0.003  0.010  0.021
   28  0.000  0.004  0.008  0.012
   29  0.019  0.003  0.006  0.029
   30  0.000  0.002  0.007  0.009
   31  0.019  0.003  0.006  0.029
   32  0.017  0.003  0.006  0.026
   33  0.000  0.002  0.007  0.009
   34  0.017  0.003  0.006  0.026
   35  0.000  0.005  0.010  0.015
   36  0.000  0.000  0.025  0.025
   37  0.000  0.000  0.000  0.000
tot    0.230  0.093  0.383  0.706
 
band    12 # energy   -5.02038442 # occ.  2.00000000
 
ion      s      p      d    tot
    1  0.000  0.004  0.011  0.015
    2  0.004  0.002  0.005  0.011
    3  0.018  0.004  0.006  0.027
    4  0.004  0.002  0.005  0.011
    5  0.000  0.000  0.011  0.011
    6  0.009  0.002  0.005  0.016
    7  0.018  0.004  0.006  0.027
    8  0.009  0.002  0.005  0.016
    9  0.000  0.005  0.008  0.013
   10  0.007  0.001  0.007  0.014
   11  0.002  0.002  0.012  0.016
   12  0.003  0.003  0.018  0.025
   13  0.002  0.002  0.012  0.016
   14  0.002  0.001  0.011  0.014
   15  0.005  0.001  0.018  0.024
   16  0.003  0.003  0.018  0.025
   17  0.005  0.001  0.018  0.024
   18  0.024  0.005  0.006  0.035
   19  0.003  0.001  0.016  0.020
   20  0.000  0.001  0.012  0.013
   21  0.001  0.002  0.013  0.016
   22  0.004  0.002  0.021  0.027
   23  0.001  0.002  0.013  0.016
   24  0.010  0.003  0.004  0.016
   25  0.018  0.006  0.007  0.031
   26  0.003  0.001  0.016  0.020
   27  0.004  0.002  0.021  0.027
   28  0.000  0.004  0.008  0.012
   29  0.006  0.002  0.007  0.015
   30  0.021  0.003  0.007  0.031
   31  0.006  0.002  0.007  0.015
   32  0.009  0.002  0.006  0.017
   33  0.021  0.003  0.007  0.031
   34  0.009  0.002  0.006  0.017
   35  0.000  0.005  0.010  0.015
   36  0.000  0.000  0.025  0.025
   37  0.000  0.000  0.000  0.000
tot    0.229  0.092  0.387  0.708
 
band    13 # energy   -4.99786087 # occ.  2.00000000
 
ion      s      p      d    tot
    1  0.036  0.003  0.000  0.039
    2  0.000  0.003  0.010  0.013
    3  0.000  0.003  0.010  0.013
    4  0.000  0.003  0.010  0.013
    5  0.000  0.000  0.001  0.001
    6  0.000  0.003  0.010  0.013
    7  0.000  0.003  0.010  0.013
    8  0.000  0.003  0.010  0.013
    9  0.027  0.004  0.001  0.032
   10  0.007  0.004  0.011  0.021
   11  0.002  0.000  0.015  0.017
   12  0.007  0.004  0.011  0.021
   13  0.002  0.000  0.015  0.017
   14  0.002  0.000  0.015  0.017
   15  0.007  0.003  0.018  0.028
   16  0.007  0.004  0.011  0.021
   17  0.007  0.003  0.018  0.028
   18  0.007  0.003  0.018  0.028
   19  0.004  0.004  0.018  0.026
   20  0.000  0.000  0.014  0.015
   21  0.000  0.000  0.014  0.015
   22  0.013  0.003  0.010  0.027
   23  0.000  0.000  0.014  0.015
   24  0.013  0.003  0.010  0.027
   25  0.004  0.004  0.018  0.026
   26  0.004  0.004  0.018  0.026
   27  0.013  0.003  0.010  0.027
   28  0.038  0.003  0.000  0.041
   29  0.000  0.003  0.010  0.013
   30  0.000  0.003  0.010  0.013
   31  0.000  0.003  0.010  0.013
   32  0.000  0.003  0.010  0.013
   33  0.000  0.003  0.010  0.013
   34  0.000  0.003  0.010  0.013
   35  0.026  0.004  0.002  0.032
   36  0.000  0.000  0.000  0.000
   37  0.000  0.000  0.000  0.000
tot    0.229  0.092  0.385  0.706
 
band    14 # energy   -4.97244648 # occ.  2.00000000
 
ion      s      p      d    tot
    1  0.000  0.002  0.010  0.012
    2  0.019  0.004  0.006  0.029
    3  0.000  0.002  0.005  0.007
    4  0.019  0.004  0.006  0.028
    5  0.000  0.006  0.009  0.015
    6  0.013  0.003  0.006  0.021
    7  0.001  0.002  0.005  0.008
    8  0.013  0.003  0.006  0.022
    9  0.000  0.001  0.014  0.014
   10  0.013  0.005  0.010  0.028
   11  0.004  0.002  0.023  0.030
   12  0.003  0.001  0.015  0.020
   13  0.004  0.002  0.024  0.030
   14  0.017  0.004  0.005  0.026
   15  0.000  0.002  0.017  0.020
   16  0.003  0.001  0.015  0.020
   17  0.000  0.003  0.018  0.020
   18  0.000  0.000  0.009  0.009
   19  0.001  0.003  0.017  0.020
   20  0.023  0.005  0.004  0.032
   21  0.005  0.002  0.023  0.031
   22  0.002  0.001  0.015  0.018
   23  0.006  0.002  0.023  0.031
   24  0.010  0.003  0.009  0.022
   25  0.003  0.000  0.008  0.011
   26  0.001  0.003  0.017  0.021
   27  0.003  0.002  0.014  0.019
   28  0.000  0.002  0.011  0.013
   29  0.015  0.003  0.006  0.024
   30  0.000  0.001  0.005  0.006
   31  0.014  0.003  0.006  0.024
   32  0.012  0.003  0.006  0.021
   33  0.000  0.001  0.005  0.006
   34  0.013  0.003  0.006  0.022
   35  0.000  0.001  0.009  0.010
   36  0.000  0.009  0.015  0.024
   37  0.000  0.000  0.000  0.000
tot    0.220  0.096  0.401  0.716
 
band    15 # energy   -4.97240159 # occ.  2.00000000
 
ion      s      p      d    tot
    1  0.000  0.002  0.010  0.012
    2  0.003  0.002  0.006  0.010
    3  0.021  0.004  0.006  0.031
    4  0.003  0.002  0.006  0.010
    5  0.000  0.006  0.009  0.015
    6  0.009  0.002  0.005  0.017
    7  0.021  0.004  0.006  0.031
    8  0.009  0.002  0.005  0.016
    9  0.000  0.001  0.014  0.014
   10  0.000  0.000  0.017  0.017
   11  0.013  0.004  0.011  0.028
   12  0.010  0.004  0.012  0.025
   13  0.013  0.004  0.011  0.027
   14  0.000  0.002  0.030  0.032
   15  0.000  0.001  0.012  0.013
   16  0.010  0.004  0.012  0.025
   17  0.000  0.001  0.011  0.012
   18  0.000  0.003  0.020  0.024
   19  0.002  0.001  0.011  0.014
   20  0.000  0.001  0.029  0.030
   21  0.018  0.004  0.010  0.032
   22  0.008  0.003  0.010  0.021
   23  0.017  0.004  0.011  0.032
   24  0.000  0.001  0.016  0.017
   25  0.000  0.004  0.020  0.024
   26  0.002  0.001  0.011  0.014
   27  0.008  0.003  0.011  0.021
   28  0.000  0.002  0.011  0.013
   29  0.003  0.002  0.005  0.010
   30  0.018  0.004  0.007  0.028
   31  0.004  0.002  0.005  0.010
   32  0.006  0.002  0.005  0.013
   33  0.018  0.004  0.007  0.028
   34  0.005  0.002  0.005  0.013
   35  0.000  0.001  0.009  0.010
   36  0.000  0.009  0.015  0.024
   37  0.000  0.000  0.000  0.000
tot    0.220  0.096  0.401  0.716
 
band    16 # energy   -4.88663955 # occ.  2.00000000
 
ion      s      p      d    tot
    1  0.009  0.002  0.001  0.012
    2  0.000  0.003  0.011  0.013
    3  0.000  0.003  0.011  0.013
    4  0.000  0.003  0.011  0.013
    5  0.044  0.003  0.000  0.047
    6  0.000  0.003  0.011  0.013
    7  0.000  0.003  0.011  0.013
    8  0.000  0.003  0.011  0.013
    9  0.004  0.001  0.002  0.007
   10  0.002  0.001  0.023  0.026
   11  0.003  0.004  0.019  0.025
   12  0.002  0.001  0.023  0.026
   13  0.003  0.004  0.019  0.025
   14  0.003  0.004  0.019  0.025
   15  0.005  0.001  0.011  0.018
   16  0.002  0.001  0.023  0.026
   17  0.005  0.001  0.011  0.018
   18  0.005  0.001  0.011  0.018
   19  0.012  0.001  0.020  0.034
   20  0.007  0.004  0.013  0.024
   21  0.007  0.004  0.013  0.024
   22  0.003  0.001  0.017  0.022
   23  0.007  0.004  0.013  0.024
   24  0.003  0.001  0.017  0.022
   25  0.012  0.001  0.020  0.034
   26  0.012  0.001  0.020  0.034
   27  0.003  0.001  0.017  0.022
   28  0.002  0.002  0.007  0.011
   29  0.002  0.002  0.007  0.010
   30  0.002  0.002  0.007  0.010
   31  0.002  0.002  0.007  0.010
   32  0.002  0.002  0.007  0.010
   33  0.002  0.002  0.007  0.010
   34  0.002  0.002  0.007  0.010
   35  0.001  0.001  0.003  0.006
   36  0.065  0.001  0.007  0.073
   37  0.010  0.000  0.000  0.010
tot    0.247  0.074  0.434  0.754
 
band    17 # energy   -4.35593945 # occ.  2.00000000
 
ion      s      p      d    tot
    1  0.000  0.001  0.032  0.033
    2  0.014  0.001  0.009  0.025
    3  0.007  0.001  0.008  0.017
    4  0.014  0.001  0.009  0.025
    5  0.000  0.001  0.014  0.015
    6  0.001  0.001  0.009  0.011
    7  0.007  0.001  0.008  0.017
    8  0.001  0.001  0.009  0.011
    9  0.000  0.003  0.004  0.007
   10  0.000  0.000  0.061  0.061
   11  0.000  0.003  0.017  0.021
   12  0.000  0.000  0.019  0.020
   13  0.000  0.003  0.017  0.021
   14  0.000  0.000  0.010  0.010
   15  0.001  0.005  0.016  0.021
   16  0.000  0.000  0.019  0.019
   17  0.001  0.005  0.016  0.021
   18  0.000  0.000  0.028  0.028
   19  0.002  0.004  0.015  0.021
   20  0.000  0.000  0.059  0.059
   21  0.000  0.000  0.023  0.023
   22  0.001  0.003  0.016  0.020
   23  0.000  0.000  0.022  0.023
   24  0.000  0.000  0.028  0.028
   25  0.000  0.000  0.012  0.012
   26  0.002  0.004  0.015  0.021
   27  0.001  0.003  0.016  0.020
   28  0.000  0.001  0.007  0.008
   29  0.011  0.001  0.015  0.026
   30  0.000  0.001  0.013  0.014
   31  0.011  0.001  0.015  0.026
   32  0.012  0.001  0.013  0.026
   33  0.000  0.001  0.013  0.014
   34  0.012  0.001  0.013  0.026
   35  0.000  0.002  0.009  0.011
   36  0.000  0.000  0.051  0.051
   37  0.000  0.000  0.000  0.000
tot    0.099  0.048  0.661  0.809
 
band    18 # energy   -4.35587623 # occ.  2.00000000
 
ion      s      p      d    tot
    1  0.000  0.001  0.032  0.033
    2  0.001  0.001  0.008  0.010
    3  0.008  0.001  0.009  0.018
    4  0.001  0.001  0.008  0.010
    5  0.000  0.001  0.014  0.015
    6  0.014  0.001  0.009  0.024
    7  0.008  0.001  0.009  0.018
    8  0.014  0.001  0.009  0.024
    9  0.000  0.003  0.004  0.007
   10  0.000  0.000  0.005  0.005
   11  0.000  0.001  0.012  0.013
   12  0.000  0.000  0.047  0.047
   13  0.000  0.001  0.012  0.014
   14  0.000  0.005  0.020  0.024
   15  0.000  0.002  0.024  0.026
   16  0.000  0.000  0.047  0.047
   17  0.000  0.002  0.024  0.025
   18  0.001  0.006  0.012  0.019
   19  0.001  0.001  0.013  0.015
   20  0.000  0.000  0.011  0.011
   21  0.000  0.000  0.047  0.047
   22  0.000  0.001  0.024  0.025
   23  0.000  0.000  0.047  0.047
   24  0.002  0.004  0.012  0.018
   25  0.002  0.005  0.017  0.024
   26  0.001  0.001  0.013  0.015
   27  0.000  0.001  0.024  0.025
   28  0.000  0.001  0.007  0.008
   29  0.004  0.001  0.013  0.018
   30  0.015  0.000  0.014  0.030
   31  0.004  0.001  0.013  0.018
   32  0.003  0.001  0.014  0.018
   33  0.015  0.000  0.014  0.030
   34  0.004  0.001  0.014  0.018
   35  0.000  0.002  0.009  0.011
   36  0.000  0.000  0.051  0.051
   37  0.000  0.000  0.000  0.000
tot    0.099  0.048  0.661  0.809
 
band    19 # energy   -4.30540841 # occ.  2.00000000
 
ion      s      p      d    tot
    1  0.008  0.000  0.002  0.010
    2  0.000  0.001  0.017  0.018
    3  0.000  0.001  0.017  0.018
    4  0.000  0.001  0.017  0.018
    5  0.006  0.000  0.000  0.006
    6  0.000  0.001  0.017  0.018
    7  0.000  0.001  0.017  0.018
    8  0.000  0.001  0.017  0.018
    9  0.028  0.001  0.001  0.030
   10  0.001  0.002  0.018  0.020
   11  0.000  0.000  0.009  0.009
   12  0.001  0.002  0.018  0.020
   13  0.000  0.000  0.009  0.009
   14  0.000  0.000  0.009  0.009
   15  0.000  0.003  0.037  0.041
   16  0.001  0.002  0.018  0.020
   17  0.000  0.003  0.037  0.041
   18  0.000  0.003  0.038  0.041
   19  0.000  0.002  0.036  0.039
   20  0.000  0.000  0.011  0.012
   21  0.000  0.000  0.011  0.012
   22  0.001  0.003  0.028  0.032
   23  0.000  0.000  0.011  0.012
   24  0.001  0.003  0.028  0.032
   25  0.000  0.002  0.036  0.039
   26  0.000  0.002  0.036  0.039
   27  0.001  0.003  0.028  0.032
   28  0.025  0.001  0.001  0.027
   29  0.000  0.002  0.018  0.019
   30  0.000  0.002  0.018  0.019
   31  0.000  0.002  0.018  0.019
   32  0.000  0.002  0.018  0.019
   33  0.000  0.002  0.018  0.019
   34  0.000  0.002  0.018  0.019
   35  0.021  0.001  0.003  0.024
   36  0.003  0.000  0.011  0.014
   37  0.004  0.000  0.000  0.004
tot    0.102  0.053  0.646  0.801
 
band    20 # energy   -4.28286690 # occ.  2.00000000
 
ion      s      p      d    tot
    1  0.000  0.002  0.001  0.004
    2  0.014  0.001  0.011  0.026
    3  0.008  0.001  0.010  0.019
    4  0.014  0.001  0.011  0.026
    5  0.000  0.002  0.023  0.024
    6  0.001  0.001  0.010  0.012
    7  0.008  0.001  0.010  0.019
    8  0.001  0.001  0.010  0.012
    9  0.000  0.000  0.034  0.034
   10  0.001  0.007  0.021  0.030
   11  0.000  0.001  0.040  0.040
   12  0.000  0.002  0.013  0.015
   13  0.000  0.000  0.040  0.041
   14  0.001  0.002  0.005  0.008
   15  0.000  0.000  0.032  0.032
   16  0.000  0.002  0.013  0.015
   17  0.000  0.000  0.032  0.033
   18  0.000  0.001  0.012  0.013
   19  0.000  0.000  0.049  0.050
   20  0.001  0.007  0.020  0.028
   21  0.000  0.002  0.014  0.016
   22  0.000  0.001  0.022  0.023
   23  0.000  0.002  0.014  0.016
   24  0.000  0.003  0.016  0.019
   25  0.000  0.001  0.002  0.004
   26  0.000  0.000  0.050  0.050
   27  0.000  0.001  0.022  0.023
   28  0.000  0.002  0.031  0.032
   29  0.012  0.001  0.011  0.024
   30  0.000  0.001  0.009  0.009
   31  0.012  0.001  0.011  0.024
   32  0.011  0.001  0.010  0.022
   33  0.000  0.001  0.009  0.009
   34  0.011  0.001  0.010  0.022
   35  0.000  0.000  0.026  0.027
   36  0.000  0.004  0.001  0.005
   37  0.000  0.000  0.000  0.000
tot    0.096  0.053  0.654  0.804
 
band    21 # energy   -4.28277527 # occ.  2.00000000
 
ion      s      p      d    tot
    1  0.000  0.002  0.001  0.004
    2  0.001  0.001  0.010  0.012
    3  0.007  0.001  0.011  0.019
    4  0.001  0.001  0.010  0.012
    5  0.000  0.002  0.023  0.024
    6  0.014  0.001  0.010  0.026
    7  0.007  0.001  0.011  0.019
    8  0.014  0.001  0.010  0.026
    9  0.000  0.000  0.034  0.034
   10  0.000  0.000  0.010  0.010
   11  0.001  0.001  0.017  0.019
   12  0.001  0.005  0.019  0.025
   13  0.001  0.001  0.017  0.019
   14  0.000  0.000  0.051  0.051
   15  0.000  0.001  0.019  0.020
   16  0.001  0.005  0.019  0.025
   17  0.000  0.001  0.019  0.020
   18  0.000  0.000  0.039  0.039
   19  0.000  0.001  0.018  0.020
   20  0.000  0.000  0.013  0.013
   21  0.001  0.005  0.018  0.024
   22  0.000  0.002  0.018  0.020
   23  0.001  0.005  0.018  0.024
   24  0.000  0.000  0.024  0.024
   25  0.000  0.000  0.065  0.065
   26  0.000  0.001  0.018  0.019
   27  0.000  0.002  0.018  0.020
   28  0.000  0.002  0.031  0.032
   29  0.003  0.001  0.009  0.013
   30  0.015  0.001  0.011  0.027
   31  0.003  0.001  0.009  0.013
   32  0.005  0.001  0.009  0.015
   33  0.015  0.001  0.011  0.027
   34  0.004  0.001  0.009  0.015
   35  0.000  0.000  0.026  0.027
   36  0.000  0.004  0.001  0.005