 vasp.6.2.0 18Jan21 (build Jun 12 2021 23:27:24) complex                        
  
 executed on             LinuxIFC date 2022.05.26  20:03:33
 running on   28 total cores
 distrk:  each k-point on   28 cores,    1 groups
 distr:  one band on NCORE=   1 cores,   28 groups


--------------------------------------------------------------------------------------------------------


 INCAR:
   ISMEAR = -5
   SIGMA = 0.1
   ISPIN = 1
   EDIFF = 1.d-5
   EDIFFG = -0.01
   NSW = 0
   NELM = 150
   ENCUT = 500
   ISIF = 2
   IBRION = 2
   LREAL = Auto
   ALGO = Fast
   ICHARG = 11
   LORBIT = 10
   LCHARG = .F.
   LWAVE = .F.

 POTCAR:    PAW_PBE Cu 22Jun2005                  
 POTCAR:    PAW_PBE Nb_sv 25May2007               
 POTCAR:    PAW_PBE O 08Apr2002                   
 -----------------------------------------------------------------------------
|                                                                             |
|           W    W    AA    RRRRR   N    N  II  N    N   GGGG   !!!           |
|           W    W   A  A   R    R  NN   N  II  NN   N  G    G  !!!           |
|           W    W  A    A  R    R  N N  N  II  N N  N  G       !!!           |
|           W WW W  AAAAAA  RRRRR   N  N N  II  N  N N  G  GGG   !            |
|           WW  WW  A    A  R   R   N   NN  II  N   NN  G    G                |
|           W    W  A    A  R    R  N    N  II  N    N   GGGG   !!!           |
|                                                                             |
|     For optimal performance we recommend to set                             |
|       NCORE = 2 up to number-of-cores-per-socket                            |
|     NCORE specifies how many cores store one orbital (NPAR=cpu/NCORE).      |
|     This setting can greatly improve the performance of VASP for DFT.       |
|     The default, NCORE=1 might be grossly inefficient on modern             |
|     multi-core architectures or massively parallel machines. Do your        |
|     own testing! More info at https://www.vasp.at/wiki/index.php/NCORE      |
|     Unfortunately you need to use the default for GW and RPA                |
|     calculations (for HF NCORE is supported but not extensively tested      |
|     yet).                                                                   |
|                                                                             |
 -----------------------------------------------------------------------------

 POTCAR:    PAW_PBE Cu 22Jun2005                  
   VRHFIN =Cu: d10 p1                                                                               
   LEXCH  = PE                                                                                      
   EATOM  =  1390.9808 eV,  102.2342 Ry                                                             
                                                                                                    
   TITEL  = PAW_PBE Cu 22Jun2005                                                                    
   LULTRA =        F    use ultrasoft PP ?                                                          
   IUNSCR =        1    unscreen: 0-lin 1-nonlin 2-no                                               
   RPACOR =    2.000    partial core radius                                                         
   POMASS =   63.546; ZVAL   =   11.000    mass and valenz                                          
   RCORE  =    2.300    outmost cutoff radius                                                       
   RWIGS  =    2.200; RWIGS  =    1.164    wigner-seitz radius (au A)                               
   ENMAX  =  295.446; ENMIN  =  221.585 eV                                                          
   ICORE  =        3    local potential                                                             
   LCOR   =        T    correct aug charges                                                         
   LPAW   =        T    paw PP                                                                      
   EAUG   =  586.980                                                                                
   DEXC   =    0.000                                                                                
   RMAX   =    2.344    core radius for proj-oper                                                   
   RAUG   =    1.300    factor for augmentation sphere                                              
   RDEP   =    2.302    radius for radial grids                                                     
   RDEPT  =    1.771    core radius for aug-charge                                                  
                                                                                                    
   Atomic configuration                                                                             
    9 entries                                                                                       
     n  l   j            E        occ.                                                              
     1  0  0.50     -8850.2468   2.0000                                                             
     2  0  0.50     -1062.3498   2.0000                                                             
     2  1  1.50      -916.8226   6.0000                                                             
     3  0  0.50      -114.6929   2.0000                                                             
     3  1  1.50       -72.1325   6.0000                                                             
     3  2  2.50        -5.0394  10.0000                                                             
     4  0  0.50        -4.6097   1.0000                                                             
     4  1  0.50        -4.0817   0.0000                                                             
     4  3  2.50        -1.3606   0.0000                                                             
   Description                                                                                      
     l       E           TYP  RCUT    TYP  RCUT                                                     
     2     -5.0393973     23  2.200                                                                 
     2     10.8846608     23  2.200                                                                 
     0     -4.6097109     23  2.200                                                                 
     0      8.2520465     23  2.200                                                                 
     1     -2.7211652     23  2.200                                                                 
     1     21.7055443     23  2.200                                                                 
     3      2.7211652     23  2.300                                                                 
  local pseudopotential read in
  partial core-charges read in
  partial kinetic energy density read in
  atomic valenz-charges read in
  non local Contribution for L=           2  read in
    real space projection operators read in
  non local Contribution for L=           2  read in
    real space projection operators read in
  non local Contribution for L=           0  read in
    real space projection operators read in
  non local Contribution for L=           0  read in
    real space projection operators read in
  non local Contribution for L=           1  read in
    real space projection operators read in
  non local Contribution for L=           1  read in
    real space projection operators read in
    PAW grid and wavefunctions read in
 
   number of l-projection  operators is LMAX  =           6
   number of lm-projection operators is LMMAX =          18
 
 POTCAR:    PAW_PBE Nb_sv 25May2007               
   VRHFIN =Nb: 4p5s4d                                                                               
   LEXCH  = PE                                                                                      
   EATOM  =  1555.1913 eV,  114.3033 Ry                                                             
                                                                                                    
   TITEL  = PAW_PBE Nb_sv 25May2007                                                                 
   LULTRA =        F    use ultrasoft PP ?                                                          
   IUNSCR =        1    unscreen: 0-lin 1-nonlin 2-no                                               
   RPACOR =    1.800    partial core radius                                                         
   POMASS =   92.910; ZVAL   =   13.000    mass and valenz                                          
   RCORE  =    2.400    outmost cutoff radius                                                       
   RWIGS  =    2.400; RWIGS  =    1.270    wigner-seitz radius (au A)                               
   ENMAX  =  293.235; ENMIN  =  219.927 eV                                                          
   ICORE  =        3    local potential                                                             
   LCOR   =        T    correct aug charges                                                         
   LPAW   =        T    paw PP                                                                      
   EAUG   =  455.659                                                                                
   DEXC   =    0.000                                                                                
   RMAX   =    2.456    core radius for proj-oper                                                   
   RAUG   =    1.300    factor for augmentation sphere                                              
   RDEP   =    2.451    radius for radial grids                                                     
   RDEPT  =    1.956    core radius for aug-charge                                                  
                                                                                                    
   Atomic configuration                                                                             
   11 entries                                                                                       
     n  l   j            E        occ.                                                              
     1  0  0.50    -18805.2457   2.0000                                                             
     2  0  0.50     -2630.2869   2.0000                                                             
     2  1  1.50     -2348.4046   6.0000                                                             
     3  0  0.50      -438.8757   2.0000                                                             
     3  1  1.50      -346.7588   6.0000                                                             
     3  2  2.50      -196.2560  10.0000                                                             
     4  0  0.50       -58.3859   2.0000                                                             
     5  0  0.50        -3.9816   1.0000                                                             
     4  1  1.50       -34.5141   6.0000                                                             
     4  2  2.50        -3.0408   4.0000                                                             
     4  3  2.50        -1.3606   0.0000                                                             
   Description                                                                                      
     l       E           TYP  RCUT    TYP  RCUT                                                     
     0    -58.3859094     23  2.200                                                                 
     0     -3.9816262     23  2.200                                                                 
     1    -34.5140738     23  2.200                                                                 
     1     13.6058260     23  2.200                                                                 
     2     -3.0408010     23  2.200                                                                 
     2     -0.1283038     23  2.200                                                                 
     3     -1.3605826     23  2.400                                                                 
  local pseudopotential read in
  partial core-charges read in
  partial kinetic energy density read in
  atomic valenz-charges read in
  non local Contribution for L=           0  read in
    real space projection operators read in
  non local Contribution for L=           0  read in
    real space projection operators read in
  non local Contribution for L=           1  read in
    real space projection operators read in
  non local Contribution for L=           1  read in
    real space projection operators read in
  non local Contribution for L=           2  read in
    real space projection operators read in
  non local Contribution for L=           2  read in
    real space projection operators read in
    PAW grid and wavefunctions read in
 
   number of l-projection  operators is LMAX  =           6
   number of lm-projection operators is LMMAX =          18
 
 POTCAR:    PAW_PBE O 08Apr2002                   
   VRHFIN =O: s2p4                                                                                  
   LEXCH  = PE                                                                                      
   EATOM  =   432.3788 eV,   31.7789 Ry                                                             
                                                                                                    
   TITEL  = PAW_PBE O 08Apr2002                                                                     
   LULTRA =        F    use ultrasoft PP ?                                                          
   IUNSCR =        1    unscreen: 0-lin 1-nonlin 2-no                                               
   RPACOR =    1.200    partial core radius                                                         
   POMASS =   16.000; ZVAL   =    6.000    mass and valenz                                          
   RCORE  =    1.520    outmost cutoff radius                                                       
   RWIGS  =    1.550; RWIGS  =    0.820    wigner-seitz radius (au A)                               
   ENMAX  =  400.000; ENMIN  =  300.000 eV                                                          
   ICORE  =        2    local potential                                                             
   LCOR   =        T    correct aug charges                                                         
   LPAW   =        T    paw PP                                                                      
   EAUG   =  605.392                                                                                
   DEXC   =    0.000                                                                                
   RMAX   =    1.553    core radius for proj-oper                                                   
   RAUG   =    1.300    factor for augmentation sphere                                              
   RDEP   =    1.550    radius for radial grids                                                     
   RDEPT  =    1.329    core radius for aug-charge                                                  
                                                                                                    
   Atomic configuration                                                                             
    4 entries                                                                                       
     n  l   j            E        occ.                                                              
     1  0  0.50      -514.6923   2.0000                                                             
     2  0  0.50       -23.9615   2.0000                                                             
     2  1  0.50        -9.0305   4.0000                                                             
     3  2  1.50        -9.5241   0.0000                                                             
   Description                                                                                      
     l       E           TYP  RCUT    TYP  RCUT                                                     
     0    -23.9615318     23  1.200                                                                 
     0     -9.5240782     23  1.200                                                                 
     1     -9.0304911     23  1.520                                                                 
     1      8.1634956     23  1.520                                                                 
     2     -9.5240782      7  1.500                                                                 
  local pseudopotential read in
  partial core-charges read in
  partial kinetic energy density read in
  kinetic energy density of atom read in
  atomic valenz-charges read in
  non local Contribution for L=           0  read in
    real space projection operators read in
  non local Contribution for L=           0  read in
    real space projection operators read in
  non local Contribution for L=           1  read in
    real space projection operators read in
  non local Contribution for L=           1  read in
    real space projection operators read in
    PAW grid and wavefunctions read in
 
   number of l-projection  operators is LMAX  =           4
   number of lm-projection operators is LMMAX =           8
 
 Optimization of the real space projectors (new method)

 maximal supplied QI-value         = 16.25
 optimisation between [QCUT,QGAM] = [ 11.38, 22.75] = [ 36.24,144.96] Ry 
 Optimized for a Real-space Cutoff    1.52 Angstroem

   l    n(q)    QCUT    max X(q) W(low)/X(q) W(high)/X(q)  e(spline) 
   2      9    11.376     4.610    0.21E-03    0.10E-03    0.26E-06
   2      9    11.376     8.522    0.33E-03    0.16E-03    0.37E-06
   0     10    11.376    51.609    0.62E-04    0.20E-04    0.13E-06
   0     10    11.376    27.747    0.54E-04    0.20E-04    0.13E-06
   1     10    11.376    20.408    0.13E-04    0.99E-04    0.19E-06
   1     10    11.376    13.425    0.12E-04    0.87E-04    0.17E-06
 Optimization of the real space projectors (new method)

 maximal supplied QI-value         = 15.68
 optimisation between [QCUT,QGAM] = [ 11.45, 22.90] = [ 36.71,146.85] Ry 
 Optimized for a Real-space Cutoff    1.56 Angstroem

   l    n(q)    QCUT    max X(q) W(low)/X(q) W(high)/X(q)  e(spline) 
   0     11    11.450    10.201    0.21E-04    0.96E-05    0.78E-07
   0     11    11.450     8.174    0.31E-04    0.18E-04    0.14E-06
   1     10    11.450     3.488    0.27E-04    0.12E-04    0.96E-07
   1     10    11.450     4.917    0.11E-03    0.11E-03    0.37E-06
   2     10    11.450   153.744    0.37E-03    0.81E-03    0.10E-05
   2     10    11.450   126.342    0.37E-03    0.81E-03    0.10E-05
 Optimization of the real space projectors (new method)

 maximal supplied QI-value         = 24.76
 optimisation between [QCUT,QGAM] = [ 11.39, 22.77] = [ 36.31,145.25] Ry 
 Optimized for a Real-space Cutoff    1.00 Angstroem

   l    n(q)    QCUT    max X(q) W(low)/X(q) W(high)/X(q)  e(spline) 
   0      7    11.387    20.381    0.39E-03    0.13E-02    0.15E-06
   0      7    11.387    15.268    0.42E-03    0.14E-02    0.17E-06
   1      6    11.387     5.964    0.41E-03    0.11E-02    0.17E-06
   1      6    11.387     5.382    0.39E-03    0.87E-03    0.15E-06
  PAW_PBE Cu 22Jun2005                  :
 energy of atom  1       EATOM=-1390.9808
 kinetic energy error for atom=    0.0043 (will be added to EATOM!!)
  PAW_PBE Nb_sv 25May2007               :
 energy of atom  2       EATOM=-1555.1913
 kinetic energy error for atom=    0.0069 (will be added to EATOM!!)
  PAW_PBE O 08Apr2002                   :
 energy of atom  3       EATOM= -432.3788
 kinetic energy error for atom=    0.0224 (will be added to EATOM!!)
 
 
 POSCAR: Cu-Nb-O
  positions in direct lattice
  velocities in cartesian coordinates
 exchange correlation table for  LEXCH =        8
   RHO(1)=    0.500       N(1)  =     2000
   RHO(2)=  100.500       N(2)  =     4000

 VTST: version 3.2, (02/03/18)

 CHAIN: initializing optimizer
 
 OPT: Using VASP Conjugate-Gradient optimizer
 CHAIN: Read ICHAIN            0
 
 POSCAR: Cu-Nb-O
  positions in direct lattice
  velocities in cartesian coordinates
 


--------------------------------------------------------------------------------------------------------


 ion  position               nearest neighbor table
   1  0.000  0.000  0.252-   7 2.57   3 2.57   4 2.57   2 2.57   6 2.57   8 2.57  12 2.57  10 2.57
                            16 2.57
   2  0.333  0.000  0.252-   8 2.57   9 2.57   5 2.57   1 2.57   3 2.57  11 2.57   4 2.57  10 2.57
                            17 2.57
   3  0.667  0.000  0.252-   1 2.57   7 2.57   6 2.57   9 2.57   2 2.57  12 2.57   5 2.57  18 2.57
                            11 2.57
   4  0.000  0.333  0.252-   5 2.57   6 2.57   1 2.57   7 2.57   2 2.57  13 2.57   9 2.57  10 2.57
                            15 2.57
   5  0.333  0.333  0.252-   4 2.57   2 2.57   7 2.57  13 2.57   8 2.57   6 2.57   3 2.57  11 2.57
                            14 2.57
   6  0.667  0.333  0.252-   4 2.57   9 2.57  15 2.57   3 2.57   1 2.57   8 2.57  14 2.57   5 2.57
                            12 2.57
   7  0.000  0.667  0.252-   1 2.57   3 2.57  16 2.57  18 2.57   4 2.57   5 2.57   8 2.57   9 2.57
                            13 2.57
   8  0.333  0.667  0.252-   9 2.57   2 2.57  17 2.57   6 2.57   1 2.57   7 2.57   5 2.57  14 2.57
                            16 2.57
   9  0.667  0.667  0.252-   8 2.57   6 2.57   2 2.57  17 2.57   3 2.57   7 2.57   4 2.57  15 2.57
                            18 2.57
  10  0.111  0.111  0.351-  26 2.55  19 2.55  11 2.57  12 2.57  13 2.57   1 2.57   2 2.57   4 2.57
                            15 2.57  16 2.57  17 2.57  20 2.57
  11  0.444  0.111  0.351-  20 2.57  21 2.57  10 2.57  13 2.57   2 2.57  17 2.57  14 2.57  12 2.57
                             5 2.57   3 2.57  18 2.57  27 2.57
  12  0.778  0.111  0.351-  19 2.55  25 2.55  15 2.57  10 2.57  14 2.57  18 2.57   3 2.57   1 2.57
                            16 2.57  11 2.57   6 2.57  21 2.57
  13  0.111  0.444  0.351-  23 2.57  20 2.57  16 2.57  18 2.57  10 2.57  11 2.57  14 2.57   5 2.57
                             4 2.57   7 2.57  15 2.57  22 2.57
  14  0.444  0.444  0.351-  21 2.57  23 2.57  15 2.57  17 2.57  12 2.57  16 2.57  13 2.57  11 2.57
                             6 2.57   8 2.57   5 2.57  24 2.57
  15  0.778  0.444  0.351-  19 2.55  14 2.57  17 2.57  12 2.57   6 2.57  18 2.57  10 2.57   9 2.57
                            13 2.57   4 2.57  24 2.57  22 2.57
  16  0.111  0.778  0.351-  25 2.55  26 2.55  18 2.57  13 2.57   7 2.57  14 2.57  17 2.57  12 2.57
                            10 2.57   8 2.57   1 2.57  23 2.57
  17  0.444  0.778  0.351-  26 2.55  14 2.57  15 2.57   8 2.57   9 2.57  11 2.57  16 2.57  18 2.57
                            10 2.57   2 2.57  27 2.57  24 2.57
  18  0.778  0.778  0.351-  25 2.55  16 2.57  13 2.57   7 2.57  15 2.57  12 2.57  17 2.57   9 2.57
                             3 2.57  11 2.57  22 2.57  27 2.57
  19  0.889  0.222  0.448-  12 2.55  10 2.55  15 2.55  25 2.56  26 2.56  21 2.57  20 2.57  22 2.57
                            24 2.57  28 2.57  32 2.58  31 2.58
  20  0.222  0.222  0.449-  23 2.56  21 2.56  11 2.57  13 2.57  10 2.57  26 2.57  19 2.57  27 2.57
                            22 2.57  29 2.59  31 2.59  36 2.66
  21  0.555  0.222  0.449-  20 2.56  23 2.56  14 2.57  11 2.57  12 2.57  19 2.57  25 2.57  24 2.57
                            27 2.57  32 2.59  30 2.59  36 2.66
  22  0.889  0.556  0.449-  24 2.56  27 2.56  18 2.57  15 2.57  23 2.57  20 2.57  19 2.57  25 2.57
                            13 2.57  35 2.57  31 2.57  33 2.57
  23  0.222  0.555  0.449-  20 2.56  21 2.56  13 2.57  14 2.57  16 2.57  25 2.57  26 2.57  22 2.57
                            24 2.57  33 2.59  34 2.59  36 2.66
  24  0.556  0.556  0.449-  22 2.56  27 2.56  15 2.57  17 2.57  21 2.57  23 2.57  19 2.57  26 2.57
                            14 2.57  35 2.57  32 2.57  34 2.57
  25  0.889  0.889  0.448-  12 2.55  16 2.55  18 2.55  19 2.56  26 2.56  21 2.57  23 2.57  22 2.57
                            27 2.57  28 2.57  33 2.58  30 2.58
  26  0.222  0.889  0.448-  10 2.55  16 2.55  17 2.55  25 2.56  19 2.56  20 2.57  23 2.57  27 2.57
                            24 2.57  28 2.57  29 2.58  34 2.58
  27  0.556  0.889  0.449-  24 2.56  22 2.56  17 2.57  18 2.57  20 2.57  21 2.57  26 2.57  25 2.57
                            11 2.57  35 2.57  29 2.57  30 2.57
  28  0.000  0.000  0.547-  33 2.55  30 2.55  31 2.55  29 2.55  32 2.55  34 2.55  25 2.57  19 2.57
                            26 2.57
  29  0.334  0.996  0.548-  34 2.51  35 2.55  28 2.55  27 2.57  26 2.58  20 2.59  30 2.59  36 2.60
                            31 2.60
  30  0.670  0.996  0.548-  33 2.51  35 2.55  28 2.55  27 2.57  25 2.58  21 2.59  29 2.59  36 2.60
                            32 2.60
  31  0.996  0.334  0.548-  32 2.51  35 2.55  28 2.55  22 2.57  19 2.58  20 2.59  33 2.59  36 2.60
                            29 2.60
  32  0.670  0.334  0.548-  31 2.51  35 2.55  28 2.55  24 2.57  19 2.58  21 2.59  34 2.59  36 2.60
                            30 2.60
  33  0.996  0.670  0.548-  30 2.51  35 2.55  28 2.55  22 2.57  25 2.58  23 2.59  31 2.59  36 2.60
                            34 2.60
  34  0.334  0.670  0.548-  29 2.51  35 2.55  28 2.55  24 2.57  26 2.58  23 2.59  32 2.59  36 2.60
                            33 2.60
  35  0.667  0.667  0.548-  34 2.55  32 2.55  29 2.55  30 2.55  33 2.55  31 2.55  24 2.57  27 2.57
                            22 2.57
  36  0.333  0.333  0.553-  37 1.74  31 2.60  29 2.60  33 2.60  32 2.60  34 2.60  30 2.60  23 2.66
                            20 2.66  21 2.66
  37  0.333  0.333  0.635-  36 1.74
 
  LATTYP: Found a hexagonal cell.
 ALAT       =     7.6967864036
 C/A-ratio  =     2.7653617908
  
  Lattice vectors:
  
 A1 = (  -3.8483927580,  -6.6656128093,   0.0000000000)
 A2 = (   7.6967864037,   0.0000000000,   0.0000000000)
 A3 = (   0.0000000000,   0.0000000000,  21.2843990326)


Analysis of symmetry for initial positions (statically):
=====================================================================
 Subroutine PRICEL returns:
 Original cell was already a primitive cell.
 

 Routine SETGRP: Setting up the symmetry group for a 
 hexagonal supercell.


 Subroutine GETGRP returns: Found  6 space group operations
 (whereof  6 operations were pure point group operations)
 out of a pool of 24 trial point group operations.


The static configuration has the point symmetry C_3v.


Analysis of symmetry for dynamics (positions and initial velocities):
=====================================================================
 Subroutine PRICEL returns:
 Original cell was already a primitive cell.
 

 Routine SETGRP: Setting up the symmetry group for a 
 hexagonal supercell.


 Subroutine GETGRP returns: Found  6 space group operations
 (whereof  6 operations were pure point group operations)
 out of a pool of 24 trial point group operations.


The dynamic configuration has the point symmetry C_3v.


Analysis of constrained symmetry for selective dynamics:
=====================================================================
 Subroutine PRICEL returns:
 Original cell was already a primitive cell.
 

 Routine SETGRP: Setting up the symmetry group for a 
 hexagonal supercell.


 Subroutine GETGRP returns: Found  6 space group operations
 (whereof  6 operations were pure point group operations)
 out of a pool of 24 trial point group operations.


The constrained configuration has the point symmetry C_3v.


 Subroutine INISYM returns: Found  6 space group operations
 (whereof  6 operations are pure point group operations),
 and found     1 'primitive' translations


----------------------------------------------------------------------------------------

                                     Primitive cell                                     

  volume of cell :    1091.9705

  direct lattice vectors                    reciprocal lattice vectors
     7.696786404  0.000000000  0.000000000     0.129924354 -0.075011849  0.000000000
     3.848392758  6.665612809  0.000000000     0.000000000  0.150023716  0.000000000
     0.000000000  0.000000000 21.284399033     0.000000000  0.000000000  0.046982769

  length of vectors
     7.696786404  7.696786404 21.284399033     0.150023716  0.150023716  0.046982769

  position of ions in fractional coordinates (direct lattice)
     0.000000000  0.000000000  0.252370745
     0.333333343  0.000000000  0.252370745
     0.666666687  0.000000000  0.252370745
     1.000000000  0.333333343  0.252370745
     0.333333313  0.333333343  0.252370745
     0.666666687  0.333333343  0.252370745
     1.000000000  0.666666687  0.252370745
     0.333333373  0.666666687  0.252370745
     0.666666627  0.666666687  0.252370745
     0.111111119  0.111111112  0.350790262
     0.444444418  0.111111112  0.350790262
     0.777777791  0.111111112  0.350790262
     0.111111119  0.444444448  0.350790262
     0.444444478  0.444444448  0.350790262
     0.777777731  0.444444448  0.350790262
     0.111111112  0.777777731  0.350790262
     0.444444478  0.777777731  0.350790262
     0.777777851  0.777777731  0.350790262
     0.889090897  0.221818223  0.448310066
     0.222349378  0.222349363  0.449218249
     0.555301304  0.222349363  0.449218249
     0.888569748  0.555715096  0.449302056
     0.222349348  0.555301244  0.449218249
     0.555715156  0.555715096  0.449302056
     0.889090897  0.889090897  0.448310066
     0.221818238  0.889090897  0.448310066
     0.555715096  0.888569748  0.449302056
     0.000000000  0.000000000  0.547065294
     0.333604747  0.995966759  0.548152183
     0.670428523  0.995966759  0.548152183
     0.995966759  0.333604747  0.548152183
     0.670428523  0.333604747  0.548152183
     0.995966759  0.670428523  0.548152183
     0.333604777  0.670428523  0.548152183
     0.666666627  0.666666687  0.548113043
     0.333333313  0.333333343  0.553205439
     0.333333313  0.333333343  0.634887182

  ion indices of the primitive-cell ions
   primitive index   ion index
                 1           1
                 2           2
                 3           3
                 4           4
                 5           5
                 6           6
                 7           7
                 8           8
                 9           9
                10          10
                11          11
                12          12
                13          13
                14          14
                15          15
                16          16
                17          17
                18          18
                19          19
                20          20
                21          21
                22          22
                23          23
                24          24
                25          25
                26          26
                27          27
                28          28
                29          29
                30          30
                31          31
                32          32
                33          33
                34          34
                35          35
                36          36
                37          37

----------------------------------------------------------------------------------------

 
 
 KPOINTS: Automatic mesh                          

Automatic generation of k-mesh.
 Grid dimensions read from file:
 generate k-points for:    8    8    1

 Generating k-lattice:

  Cartesian coordinates                     Fractional coordinates (reciprocal lattice)
     0.016240544 -0.009376481  0.000000000     0.125000000 -0.000000000  0.000000000
     0.000000000  0.018752964  0.000000000     0.000000000  0.125000000  0.000000000
     0.000000000  0.000000000  0.046982769     0.000000000  0.000000000  1.000000000

  Length of vectors
     0.018752964  0.018752964  0.046982769

  Shift w.r.t. Gamma in fractional coordinates (k-lattice)
     0.000000000  0.000000000  0.000000000

 TETIRR: Found     36 inequivalent tetrahedra from      384
 
 Subroutine IBZKPT returns following result:
 ===========================================
 
 Found     10 irreducible k-points:
 
 Following reciprocal coordinates:
            Coordinates               Weight
  0.000000  0.000000  0.000000      1.000000
  0.125000 -0.000000  0.000000      6.000000
  0.250000 -0.000000  0.000000      6.000000
  0.375000 -0.000000  0.000000      6.000000
  0.500000 -0.000000  0.000000      3.000000
  0.250000  0.125000  0.000000      6.000000
  0.375000  0.125000  0.000000     12.000000
  0.500000  0.125000  0.000000     12.000000
  0.500000  0.250000  0.000000      6.000000
 -0.375000  0.250000  0.000000      6.000000
 
 Following cartesian coordinates:
            Coordinates               Weight
  0.000000  0.000000  0.000000      1.000000
  0.016241 -0.009376  0.000000      6.000000
  0.032481 -0.018753  0.000000      6.000000
  0.048722 -0.028129  0.000000      6.000000
  0.064962 -0.037506  0.000000      3.000000
  0.032481  0.000000  0.000000      6.000000
  0.048722 -0.009376  0.000000     12.000000
  0.064962 -0.018753  0.000000     12.000000
  0.064962  0.000000  0.000000      6.000000
 -0.048722  0.065635  0.000000      6.000000
 


--------------------------------------------------------------------------------------------------------




 Dimension of arrays:
   k-points           NKPTS =     10   k-points in BZ     NKDIM =     10   number of bands    NBANDS=    252
   number of dos      NEDOS =    301   number of ions     NIONS =     37
   non local maximal  LDIM  =      6   non local SUM 2l+1 LMDIM =     18
   total plane-waves  NPLWV = 211680
   max r-space proj   IRMAX =   3157   max aug-charges    IRDMAX=   8408
   dimension x,y,z NGX =    42 NGY =   42 NGZ =  120
   dimension x,y,z NGXF=    84 NGYF=   84 NGZF=  240
   support grid    NGXF=    84 NGYF=   84 NGZF=  240
   ions per type =              35   1   1
   NGX,Y,Z   is equivalent  to a cutoff of   9.07,  9.07,  9.37 a.u.
   NGXF,Y,Z  is equivalent  to a cutoff of  18.14, 18.14, 18.75 a.u.

 SYSTEM =  unknown system                          
 POSCAR =  Cu-Nb-O                                 

 Startparameter for this run:
   NWRITE =      2    write-flag & timer
   PREC   = normal    normal or accurate (medium, high low for compatibility)
   ISTART =      0    job   : 0-new  1-cont  2-samecut
   ICHARG =     11    charge: 1-file 2-atom 10-const
   ISPIN  =      1    spin polarized calculation?
   LNONCOLLINEAR =      F non collinear calculations
   LSORBIT =      F    spin-orbit coupling
   INIWAV =      1    electr: 0-lowe 1-rand  2-diag
   LASPH  =      F    aspherical Exc in radial PAW
   METAGGA=      F    non-selfconsistent MetaGGA calc.

 Electronic Relaxation 1
   ENCUT  =  500.0 eV  36.75 Ry    6.06 a.u.  14.03 14.03 38.81*2*pi/ulx,y,z
   ENINI  =  500.0     initial cutoff
   ENAUG  =  605.4 eV  augmentation charge cutoff
   NELM   =    150;   NELMIN=  2; NELMDL= -5     # of ELM steps 
   EDIFF  = 0.1E-04   stopping-criterion for ELM
   LREAL  =      T    real-space projection
   NLSPLINE    = F    spline interpolate recip. space projectors
   LCOMPAT=      F    compatible to vasp.4.4
   GGA_COMPAT  = T    GGA compatible to vasp.4.4-vasp.4.6
   LMAXPAW     = -100 max onsite density
   LMAXMIX     =    2 max onsite mixed and CHGCAR
   VOSKOWN=      0    Vosko Wilk Nusair interpolation
   ROPT   =   -0.00050  -0.00050  -0.00050
 Ionic relaxation
   EDIFFG = -.1E-01   stopping-criterion for IOM
   NSW    =      0    number of steps for IOM
   NBLOCK =      1;   KBLOCK =      1    inner block; outer block 
   IBRION =     -1    ionic relax: 0-MD 1-quasi-New 2-CG
   NFREE  =      1    steps in history (QN), initial steepest desc. (CG)
   ISIF   =      2    stress and relaxation
   IWAVPR =     10    prediction:  0-non 1-charg 2-wave 3-comb
   ISYM   =      2    0-nonsym 1-usesym 2-fastsym
   LCORR  =      T    Harris-Foulkes like correction to forces

   POTIM  = 0.5000    time-step for ionic-motion
   TEIN   =    0.0    initial temperature
   TEBEG  =    0.0;   TEEND  =   0.0 temperature during run
   SMASS  =  -3.00    Nose mass-parameter (am)
   estimated Nose-frequenzy (Omega)   =  0.10E-29 period in steps = 0.13E+47 mass=  -0.135E-26a.u.
   SCALEE = 1.0000    scale energy and forces
   NPACO  =    256;   APACO  = 16.0  distance and # of slots for P.C.
   PSTRESS=    0.0 pullay stress

  Mass of Ions in am
   POMASS =  63.55 92.91 16.00
  Ionic Valenz
   ZVAL   =  11.00 13.00  6.00
  Atomic Wigner-Seitz radii
   RWIGS  =  -1.00 -1.00 -1.00
  virtual crystal weights 
   VCA    =   1.00  1.00  1.00
   NELECT =     404.0000    total number of electrons
   NUPDOWN=      -1.0000    fix difference up-down

 DOS related values:
   EMIN   =  10.00;   EMAX   =-10.00  energy-range for DOS
   EFERMI =   0.00
   ISMEAR =    -5;   SIGMA  =   0.10  broadening in eV -4-tet -1-fermi 0-gaus

 Electronic relaxation 2 (details)
   IALGO  =     68    algorithm
   LDIAG  =      T    sub-space diagonalisation (order eigenvalues)
   LSUBROT=      F    optimize rotation matrix (better conditioning)
   TURBO    =      0    0=normal 1=particle mesh
   IRESTART =      0    0=no restart 2=restart with 2 vectors
   NREBOOT  =      0    no. of reboots
   NMIN     =      0    reboot dimension
   EREF     =   0.00    reference energy to select bands
   IMIX   =      4    mixing-type and parameters
     AMIX     =   0.40;   BMIX     =  1.00
     AMIX_MAG =   1.60;   BMIX_MAG =  1.00
     AMIN     =   0.10
     WC   =   100.;   INIMIX=   1;  MIXPRE=   1;  MAXMIX= -45

 Intra band minimization:
   WEIMIN = 0.0000     energy-eigenvalue tresh-hold
   EBREAK =  0.99E-08  absolut break condition
   DEPER  =   0.30     relativ break condition  

   TIME   =   0.40     timestep for ELM

  volume/ion in A,a.u.               =      29.51       199.16
  Fermi-wavevector in a.u.,A,eV,Ry     =   1.175254  2.220908 18.792658  1.381221
  Thomas-Fermi vector in A             =   2.311637
 
 Write flags
   LWAVE        =      F    write WAVECAR
   LDOWNSAMPLE  =      F    k-point downsampling of WAVECAR
   LCHARG       =      F    write CHGCAR
   LVTOT        =      F    write LOCPOT, total local potential
   LVHAR        =      F    write LOCPOT, Hartree potential only
   LELF         =      F    write electronic localiz. function (ELF)
   LORBIT       =     10    0 simple, 1 ext, 2 COOP (PROOUT), +10 PAW based schemes


 Dipole corrections
   LMONO  =      F    monopole corrections only (constant potential shift)
   LDIPOL =      F    correct potential (dipole corrections)
   IDIPOL =      0    1-x, 2-y, 3-z, 4-all directions 
   EPSILON=  1.0000000 bulk dielectric constant

 Exchange correlation treatment:
   GGA     =    --    GGA type
   LEXCH   =     8    internal setting for exchange type
   VOSKOWN=      0    Vosko Wilk Nusair interpolation
   LHFCALC =     F    Hartree Fock is set to
   LHFONE  =     F    Hartree Fock one center treatment
   AEXX    =    0.0000 exact exchange contribution

 Linear response parameters
   LEPSILON=     F    determine dielectric tensor
   LRPA    =     F    only Hartree local field effects (RPA)
   LNABLA  =     F    use nabla operator in PAW spheres
   LVEL    =     F    velocity operator in full k-point grid
   LINTERFAST=   F  fast interpolation
   KINTER  =     0    interpolate to denser k-point grid
   CSHIFT  =0.1000    complex shift for real part using Kramers Kronig
   OMEGAMAX=  -1.0    maximum frequency
   DEG_THRESHOLD= 0.2000000E-02 threshold for treating states as degnerate
   RTIME   =   -0.100 relaxation time in fs
  (WPLASMAI=    0.000 imaginary part of plasma frequency in eV, 0.658/RTIME)
   DFIELD  = 0.0000000 0.0000000 0.0000000 field for delta impulse in time
 
 Orbital magnetization related:
   ORBITALMAG=     F  switch on orbital magnetization
   LCHIMAG   =     F  perturbation theory with respect to B field
   DQ        =  0.001000  dq finite difference perturbation B field
   LLRAUG    =     F  two centre corrections for induced B field



--------------------------------------------------------------------------------------------------------


 Static calculation
 charge density and potential remain constant during run
 non-spin polarized calculation
 RMM-DIIS sequential band-by-band and
  variant of blocked Davidson during initial phase
 perform sub-space diagonalisation
    before iterative eigenvector-optimisation
 no mixing
 using additional bands           50
 real space projection scheme for non local part
 use partial core corrections
 calculate Harris-corrections to forces 
   (improved forces if not selfconsistent)
 use gradient corrections 
 WARNING: stress and forces are not correct
  (second derivative of E(xc) not defined)
 use of overlap-Matrix (Vanderbilt PP)
 Fermi weights with tetrahedron method with Bloechl corrections


--------------------------------------------------------------------------------------------------------


  energy-cutoff  :      500.00
  volume of cell :     1091.97
      direct lattice vectors                 reciprocal lattice vectors
     7.696786404  0.000000000  0.000000000     0.129924354 -0.075011849  0.000000000
     3.848392758  6.665612809  0.000000000     0.000000000  0.150023716  0.000000000
     0.000000000  0.000000000 21.284399033     0.000000000  0.000000000  0.046982769

  length of vectors
     7.696786404  7.696786404 21.284399033     0.150023716  0.150023716  0.046982769


 
 k-points in units of 2pi/SCALE and weight: Automatic mesh                          
   0.00000000  0.00000000  0.00000000       0.016
   0.01624054 -0.00937648  0.00000000       0.094
   0.03248109 -0.01875296  0.00000000       0.094
   0.04872163 -0.02812944  0.00000000       0.094
   0.06496218 -0.03750592  0.00000000       0.047
   0.03248109  0.00000000  0.00000000       0.094
   0.04872163 -0.00937648  0.00000000       0.188
   0.06496218 -0.01875296  0.00000000       0.188
   0.06496218  0.00000000  0.00000000       0.094
  -0.04872163  0.06563537  0.00000000       0.094
 
 k-points in reciprocal lattice and weights: Automatic mesh                          
   0.00000000  0.00000000  0.00000000       0.016
   0.12500000 -0.00000000  0.00000000       0.094
   0.25000000 -0.00000000  0.00000000       0.094
   0.37500000 -0.00000000  0.00000000       0.094
   0.50000000 -0.00000000  0.00000000       0.047
   0.25000000  0.12500000  0.00000000       0.094
   0.37500000  0.12500000  0.00000000       0.188
   0.50000000  0.12500000  0.00000000       0.188
   0.50000000  0.25000000  0.00000000       0.094
  -0.37500000  0.25000000  0.00000000       0.094
 
 position of ions in fractional coordinates (direct lattice) 
   0.00000000  0.00000000  0.25237075
   0.33333334  0.00000000  0.25237075
   0.66666669  0.00000000  0.25237075
   0.00000000  0.33333334  0.25237075
   0.33333331  0.33333334  0.25237075
   0.66666669  0.33333334  0.25237075
   0.00000000  0.66666669  0.25237075
   0.33333337  0.66666669  0.25237075
   0.66666663  0.66666669  0.25237075
   0.11111112  0.11111111  0.35079026
   0.44444442  0.11111111  0.35079026
   0.77777779  0.11111111  0.35079026
   0.11111112  0.44444445  0.35079026
   0.44444448  0.44444445  0.35079026
   0.77777773  0.44444445  0.35079026
   0.11111111  0.77777773  0.35079026
   0.44444448  0.77777773  0.35079026
   0.77777785  0.77777773  0.35079026
   0.88909090  0.22181822  0.44831007
   0.22234938  0.22234936  0.44921825
   0.55530130  0.22234936  0.44921825
   0.88856975  0.55571510  0.44930206
   0.22234935  0.55530124  0.44921825
   0.55571516  0.55571510  0.44930206
   0.88909090  0.88909090  0.44831007
   0.22181824  0.88909090  0.44831007
   0.55571510  0.88856975  0.44930206
   0.00000000  0.00000000  0.54706529
   0.33360475  0.99596676  0.54815218
   0.67042852  0.99596676  0.54815218
   0.99596676  0.33360475  0.54815218
   0.67042852  0.33360475  0.54815218
   0.99596676  0.67042852  0.54815218
   0.33360478  0.67042852  0.54815218
   0.66666663  0.66666669  0.54811304
   0.33333331  0.33333334  0.55320544
   0.33333331  0.33333334  0.63488718
 
 position of ions in cartesian coordinates  (Angst):
   0.00000000  0.00000000  5.37155964
   2.56559554  0.00000000  5.37155964
   5.13119109  0.00000000  5.37155964
   1.28279762  2.22187100  5.37155964
   3.84839293  2.22187100  5.37155964
   6.41398872  2.22187100  5.37155964
   2.56559525  4.44374201  5.37155964
   5.13119102  4.44374201  5.37155964
   7.69678588  4.44374201  5.37155964
   1.28279775  0.74062365  7.46635991
   3.84839295  0.74062365  7.46635991
   6.41398873  0.74062365  7.46635991
   2.56559535  2.96249461  7.46635991
   5.13119101  2.96249461  7.46635991
   7.69678586  2.96249461  7.46635991
   3.84839268  5.18436521  7.46635991
   6.41398840  5.18436521  7.46635991
   8.97958418  5.18436521  7.46635991
   7.69678637  1.47855439  9.54201033
   2.56706335  1.48209476  9.56134047
   5.12972320  1.48209476  9.56134047
   8.97774150  3.70418166  9.56312425
   3.84839272  3.70142308  9.56134047
   6.41583081  3.70418166  9.56312425
  10.26471369  5.92633567  9.54201033
   5.12885856  5.92633567  9.54201033
   7.69678578  5.92286189  9.56312425
   0.00000000  0.00000000 11.64395601
   6.40055575  6.63872879 11.66708979
   8.99301641  6.63872879 11.66708979
   8.94958550  2.22368008 11.66708979
   6.44398724  2.22368008 11.66708979
  10.24581568  4.46881695 11.66708979
   5.14775699  4.46881695 11.66708979
   7.69678588  4.44374201 11.66625673
   3.84839293  2.22187100 11.77464531
   3.84839293  2.22187100 13.51319213
 


--------------------------------------------------------------------------------------------------------


 k-point   1 :   0.0000 0.0000 0.0000  plane waves:   27671
 k-point   2 :   0.1250-0.0000 0.0000  plane waves:   27649
 k-point   3 :   0.2500-0.0000 0.0000  plane waves:   27714
 k-point   4 :   0.3750-0.0000 0.0000  plane waves:   27740
 k-point   5 :   0.5000-0.0000 0.0000  plane waves:   27782
 k-point   6 :   0.2500 0.1250 0.0000  plane waves:   27698
 k-point   7 :   0.3750 0.1250 0.0000  plane waves:   27702
 k-point   8 :   0.5000 0.1250 0.0000  plane waves:   27747
 k-point   9 :   0.5000 0.2500 0.0000  plane waves:   27734
 k-point  10 :  -0.3750 0.2500 0.0000  plane waves:   27782

 maximum and minimum number of plane-waves per node :     27782    27649

 maximum number of plane-waves:     27782
 maximum index in each direction: 
   IXMAX=   14   IYMAX=   14   IZMAX=   38
   IXMIN=  -14   IYMIN=  -14   IZMIN=  -38


 serial   3D FFT for wavefunctions
 parallel 3D FFT for charge:
    minimum data exchange during FFTs selected (reduces bandwidth)


 total amount of memory used by VASP MPI-rank0   104716. kBytes
=======================================================================

   base      :      30000. kBytes
   nonlr-proj:      17830. kBytes
   fftplans  :       2916. kBytes
   grid      :      12390. kBytes
   one-center:        575. kBytes
   wavefun   :      41005. kBytes
 
     INWAV:  cpu time    0.0000: real time    0.0000
 initial charge density was supplied:
 number of electron     404.0000326 magnetization 
 keeping initial charge density in first step


--------------------------------------------------------------------------------------------------------


 Maximum index for non-local projection operator         3006
 Maximum index for augmentation-charges          444 (set IRDMAX)


--------------------------------------------------------------------------------------------------------


 First call to EWALD:  gamma=   0.172
 Maximum number of real-space cells 4x 4x 2
 Maximum number of reciprocal cells 2x 2x 5

    FEWALD:  cpu time    0.0016: real time    0.0016


--------------------------------------- Iteration      1(   1)  ---------------------------------------


    POTLOK:  cpu time    0.0285: real time    0.0289
    SETDIJ:  cpu time    0.0040: real time    0.0041
     EDDAV:  cpu time    5.7596: real time    5.7610
 BZINTS: Fermi energy:   14.291073;  404.000000 electrons
         Band energy: 0.254940E+04;  BLOECHL correction:   -0.037691
       DOS:  cpu time    0.0104: real time    0.0105
    --------------------------------------------
      LOOP:  cpu time    5.8025: real time    5.8045

 eigenvalue-minimisations  :  5040
 total energy-change (2. order) : 0.3850176E+04  (-0.1756533E+05)
 number of electron     404.0000326 magnetization 
 augmentation part      404.0000326 magnetization 

 Free energy of the ion-electron system (eV)
  ---------------------------------------------------
  alpha Z        PSCENC =       911.89913522
  Ewald energy   TEWEN  =    148455.97618779
  -Hartree energ DENC   =   -196633.62677980
  -exchange      EXHF   =         0.00000000
  -V(xc)+E(xc)   XCENC  =      1642.26696427
  PAW double counting   =     47805.99274510   -51553.45485996
  entropy T*S    EENTRO =         0.00000000
  eigenvalues    EBANDS =      2549.40295722
  atomic energy  EATOM  =     50671.71996576
  Solvation  Ediel_sol  =         0.00000000
  ---------------------------------------------------
  free energy    TOTEN  =      3850.17631559 eV

  energy without entropy =     3850.17631559  energy(sigma->0) =     3850.17631559


--------------------------------------------------------------------------------------------------------




--------------------------------------- Iteration      1(   2)  ---------------------------------------


     EDDAV:  cpu time    5.9382: real time    5.9414
 BZINTS: Fermi energy:    3.413161;  404.000000 electrons
         Band energy:-0.877786E+03;  BLOECHL correction:   -0.032977
       DOS:  cpu time    0.0105: real time    0.0105
    --------------------------------------------
      LOOP:  cpu time    5.9487: real time    5.9519

 eigenvalue-minimisations  :  5236
 total energy-change (2. order) :-0.3427189E+04  (-0.3294371E+04)
 number of electron     404.0000326 magnetization 
 augmentation part      404.0000326 magnetization 

 Free energy of the ion-electron system (eV)
  ---------------------------------------------------
  alpha Z        PSCENC =       911.89913522
  Ewald energy   TEWEN  =    148455.97618779
  -Hartree energ DENC   =   -196633.62677980
  -exchange      EXHF   =         0.00000000
  -V(xc)+E(xc)   XCENC  =      1642.26696427
  PAW double counting   =     47805.99274510   -51553.45485996
  entropy T*S    EENTRO =         0.00000000
  eigenvalues    EBANDS =      -877.78643523
  atomic energy  EATOM  =     50671.71996576
  Solvation  Ediel_sol  =         0.00000000
  ---------------------------------------------------
  free energy    TOTEN  =       422.98692314 eV

  energy without entropy =      422.98692314  energy(sigma->0) =      422.98692314


--------------------------------------------------------------------------------------------------------




--------------------------------------- Iteration      1(   3)  ---------------------------------------


     EDDAV:  cpu time    6.2084: real time    6.2086
 BZINTS: Fermi energy:    0.380357;  404.000000 electrons
         Band energy:-0.139554E+04;  BLOECHL correction:   -0.075655
       DOS:  cpu time    0.0099: real time    0.0099
    --------------------------------------------
      LOOP:  cpu time    6.2183: real time    6.2185

 eigenvalue-minimisations  :  5516
 total energy-change (2. order) :-0.5177507E+03  (-0.4904521E+03)
 number of electron     404.0000326 magnetization 
 augmentation part      404.0000326 magnetization 

 Free energy of the ion-electron system (eV)
  ---------------------------------------------------
  alpha Z        PSCENC =       911.89913522
  Ewald energy   TEWEN  =    148455.97618779
  -Hartree energ DENC   =   -196633.62677980
  -exchange      EXHF   =         0.00000000
  -V(xc)+E(xc)   XCENC  =      1642.26696427
  PAW double counting   =     47805.99274510   -51553.45485996
  entropy T*S    EENTRO =         0.00000000
  eigenvalues    EBANDS =     -1395.53715315
  atomic energy  EATOM  =     50671.71996576
  Solvation  Ediel_sol  =         0.00000000
  ---------------------------------------------------
  free energy    TOTEN  =       -94.76379477 eV

  energy without entropy =      -94.76379477  energy(sigma->0) =      -94.76379477


--------------------------------------------------------------------------------------------------------




--------------------------------------- Iteration      1(   4)  ---------------------------------------


     EDDAV:  cpu time    8.4825: real time    8.4828
 BZINTS: Fermi energy:    0.111545;  404.000000 electrons
         Band energy:-0.143861E+04;  BLOECHL correction:   -0.047186
       DOS:  cpu time    0.0106: real time    0.0106
    --------------------------------------------
      LOOP:  cpu time    8.4931: real time    8.4934

 eigenvalue-minimisations  :  8008
 total energy-change (2. order) :-0.4307409E+02  (-0.4195436E+02)
 number of electron     404.0000326 magnetization 
 augmentation part      404.0000326 magnetization 

 Free energy of the ion-electron system (eV)
  ---------------------------------------------------
  alpha Z        PSCENC =       911.89913522
  Ewald energy   TEWEN  =    148455.97618779
  -Hartree energ DENC   =   -196633.62677980
  -exchange      EXHF   =         0.00000000
  -V(xc)+E(xc)   XCENC  =      1642.26696427
  PAW double counting   =     47805.99274510   -51553.45485996
  entropy T*S    EENTRO =         0.00000000
  eigenvalues    EBANDS =     -1438.61124694
  atomic energy  EATOM  =     50671.71996576
  Solvation  Ediel_sol  =         0.00000000
  ---------------------------------------------------
  free energy    TOTEN  =      -137.83788857 eV

  energy without entropy =     -137.83788857  energy(sigma->0) =     -137.83788857


--------------------------------------------------------------------------------------------------------




--------------------------------------- Iteration      1(   5)  ---------------------------------------


     EDDAV:  cpu time    9.0208: real time    9.0210
 BZINTS: Fermi energy:    0.091786;  404.000000 electrons
         Band energy:-0.144014E+04;  BLOECHL correction:   -0.044385
       DOS:  cpu time    0.0103: real time    0.0103
    --------------------------------------------
      LOOP:  cpu time    9.0311: real time    9.0313

 eigenvalue-minimisations  :  8568
 total energy-change (2. order) :-0.1528260E+01  (-0.1522113E+01)
 number of electron     404.0000326 magnetization 
 augmentation part      404.0000326 magnetization 

 Free energy of the ion-electron system (eV)
  ---------------------------------------------------
  alpha Z        PSCENC =       911.89913522
  Ewald energy   TEWEN  =    148455.97618779
  -Hartree energ DENC   =   -196633.62677980
  -exchange      EXHF   =         0.00000000
  -V(xc)+E(xc)   XCENC  =      1642.26696427
  PAW double counting   =     47805.99274510   -51553.45485996
  entropy T*S    EENTRO =         0.00000000
  eigenvalues    EBANDS =     -1440.13950664
  atomic energy  EATOM  =     50671.71996576
  Solvation  Ediel_sol  =         0.00000000
  ---------------------------------------------------
  free energy    TOTEN  =      -139.36614827 eV

  energy without entropy =     -139.36614827  energy(sigma->0) =     -139.36614827


--------------------------------------------------------------------------------------------------------




--------------------------------------- Iteration      1(   6)  ---------------------------------------


    EDDIAG:  cpu time    1.1120: real time    1.1123
  RMM-DIIS:  cpu time    3.3091: real time    3.3091
    ORTHCH:  cpu time    0.2075: real time    0.2075
 BZINTS: Fermi energy:    0.091425;  404.000000 electrons
         Band energy:-0.144017E+04;  BLOECHL correction:   -0.044368
       DOS:  cpu time    0.0105: real time    0.0105
    --------------------------------------------
      LOOP:  cpu time    4.6390: real time    4.6395

 eigenvalue-minimisations  :  5787
 total energy-change (2. order) :-0.2890496E-01  (-0.2892100E-01)
 number of electron     404.0000326 magnetization 
 augmentation part      404.0000326 magnetization 

 Free energy of the ion-electron system (eV)
  ---------------------------------------------------
  alpha Z        PSCENC =       911.89913522
  Ewald energy   TEWEN  =    148455.97618779
  -Hartree energ DENC   =   -196633.62677980
  -exchange      EXHF   =         0.00000000
  -V(xc)+E(xc)   XCENC  =      1642.26696427
  PAW double counting   =     47805.99274510   -51553.45485996
  entropy T*S    EENTRO =         0.00000000
  eigenvalues    EBANDS =     -1440.16841159
  atomic energy  EATOM  =     50671.71996576
  Solvation  Ediel_sol  =         0.00000000
  ---------------------------------------------------
  free energy    TOTEN  =      -139.39505322 eV

  energy without entropy =     -139.39505322  energy(sigma->0) =     -139.39505322


--------------------------------------------------------------------------------------------------------




--------------------------------------- Iteration      1(   7)  ---------------------------------------


    EDDIAG:  cpu time    1.1128: real time    1.1130
  RMM-DIIS:  cpu time    5.5456: real time    5.5457
    ORTHCH:  cpu time    0.2083: real time    0.2083
 BZINTS: Fermi energy:    0.091135;  404.000000 electrons
         Band energy:-0.144018E+04;  BLOECHL correction:   -0.044362
       DOS:  cpu time    0.0105: real time    0.0105
    --------------------------------------------
      LOOP:  cpu time    6.8773: real time    6.8776

 eigenvalue-minimisations  :  9485
 total energy-change (2. order) :-0.1445937E-01  (-0.1423362E-01)
 number of electron     404.0000326 magnetization 
 augmentation part      404.0000326 magnetization 

 Free energy of the ion-electron system (eV)
  ---------------------------------------------------
  alpha Z        PSCENC =       911.89913522
  Ewald energy   TEWEN  =    148455.97618779
  -Hartree energ DENC   =   -196633.62677980
  -exchange      EXHF   =         0.00000000
  -V(xc)+E(xc)   XCENC  =      1642.26696427
  PAW double counting   =     47805.99274510   -51553.45485996
  entropy T*S    EENTRO =         0.00000000
  eigenvalues    EBANDS =     -1440.18287097
  atomic energy  EATOM  =     50671.71996576
  Solvation  Ediel_sol  =         0.00000000
  ---------------------------------------------------
  free energy    TOTEN  =      -139.40951259 eV

  energy without entropy =     -139.40951259  energy(sigma->0) =     -139.40951259


--------------------------------------------------------------------------------------------------------




--------------------------------------- Iteration      1(   8)  ---------------------------------------


    EDDIAG:  cpu time    1.1158: real time    1.1159
  RMM-DIIS:  cpu time    5.6337: real time    5.6338
    ORTHCH:  cpu time    0.2077: real time    0.2077
 BZINTS: Fermi energy:    0.091068;  404.000000 electrons
         Band energy:-0.144019E+04;  BLOECHL correction:   -0.044359
       DOS:  cpu time    0.0097: real time    0.0097
    --------------------------------------------
      LOOP:  cpu time    6.9669: real time    6.9671

 eigenvalue-minimisations  :  9874
 total energy-change (2. order) :-0.3668899E-02  (-0.3566041E-02)
 number of electron     404.0000326 magnetization 
 augmentation part      404.0000326 magnetization 

 Free energy of the ion-electron system (eV)
  ---------------------------------------------------
  alpha Z        PSCENC =       911.89913522
  Ewald energy   TEWEN  =    148455.97618779
  -Hartree energ DENC   =   -196633.62677980
  -exchange      EXHF   =         0.00000000
  -V(xc)+E(xc)   XCENC  =      1642.26696427
  PAW double counting   =     47805.99274510   -51553.45485996
  entropy T*S    EENTRO =         0.00000000
  eigenvalues    EBANDS =     -1440.18653987
  atomic energy  EATOM  =     50671.71996576
  Solvation  Ediel_sol  =         0.00000000
  ---------------------------------------------------
  free energy    TOTEN  =      -139.41318149 eV

  energy without entropy =     -139.41318149  energy(sigma->0) =     -139.41318149


--------------------------------------------------------------------------------------------------------




--------------------------------------- Iteration      1(   9)  ---------------------------------------


    EDDIAG:  cpu time    1.1155: real time    1.1156
  RMM-DIIS:  cpu time    5.2524: real time    5.2525
    ORTHCH:  cpu time    0.2076: real time    0.2076
 BZINTS: Fermi energy:    0.091028;  404.000000 electrons
         Band energy:-0.144019E+04;  BLOECHL correction:   -0.044359
       DOS:  cpu time    0.0106: real time    0.0106
    --------------------------------------------
      LOOP:  cpu time    6.5860: real time    6.5862

 eigenvalue-minimisations  :  9137
 total energy-change (2. order) :-0.1773897E-02  (-0.1719463E-02)
 number of electron     404.0000326 magnetization 
 augmentation part      404.0000326 magnetization 

 Free energy of the ion-electron system (eV)
  ---------------------------------------------------
  alpha Z        PSCENC =       911.89913522
  Ewald energy   TEWEN  =    148455.97618779
  -Hartree energ DENC   =   -196633.62677980
  -exchange      EXHF   =         0.00000000
  -V(xc)+E(xc)   XCENC  =      1642.26696427
  PAW double counting   =     47805.99274510   -51553.45485996
  entropy T*S    EENTRO =         0.00000000
  eigenvalues    EBANDS =     -1440.18831376
  atomic energy  EATOM  =     50671.71996576
  Solvation  Ediel_sol  =         0.00000000
  ---------------------------------------------------
  free energy    TOTEN  =      -139.41495539 eV

  energy without entropy =     -139.41495539  energy(sigma->0) =     -139.41495539


--------------------------------------------------------------------------------------------------------




--------------------------------------- Iteration      1(  10)  ---------------------------------------


    EDDIAG:  cpu time    1.1144: real time    1.1145
  RMM-DIIS:  cpu time    4.8135: real time    4.8136
    ORTHCH:  cpu time    0.2077: real time    0.2077
 BZINTS: Fermi energy:    0.091006;  404.000000 electrons
         Band energy:-0.144019E+04;  BLOECHL correction:   -0.044359
       DOS:  cpu time    0.0105: real time    0.0105
    --------------------------------------------
      LOOP:  cpu time    6.1461: real time    6.1462

 eigenvalue-minimisations  :  8243
 total energy-change (2. order) :-0.8924064E-03  (-0.8811915E-03)
 number of electron     404.0000326 magnetization 
 augmentation part      404.0000326 magnetization 

 Free energy of the ion-electron system (eV)
  ---------------------------------------------------
  alpha Z        PSCENC =       911.89913522
  Ewald energy   TEWEN  =    148455.97618779
  -Hartree energ DENC   =   -196633.62677980
  -exchange      EXHF   =         0.00000000
  -V(xc)+E(xc)   XCENC  =      1642.26696427
  PAW double counting   =     47805.99274510   -51553.45485996
  entropy T*S    EENTRO =         0.00000000
  eigenvalues    EBANDS =     -1440.18920617
  atomic energy  EATOM  =     50671.71996576
  Solvation  Ediel_sol  =         0.00000000
  ---------------------------------------------------
  free energy    TOTEN  =      -139.41584780 eV

  energy without entropy =     -139.41584780  energy(sigma->0) =     -139.41584780


--------------------------------------------------------------------------------------------------------




--------------------------------------- Iteration      1(  11)  ---------------------------------------


    EDDIAG:  cpu time    1.1178: real time    1.1179
  RMM-DIIS:  cpu time    4.7883: real time    4.7883
    ORTHCH:  cpu time    0.2079: real time    0.2079
 BZINTS: Fermi energy:    0.090993;  404.000000 electrons
         Band energy:-0.144019E+04;  BLOECHL correction:   -0.044360
       DOS:  cpu time    0.0106: real time    0.0106
    --------------------------------------------
      LOOP:  cpu time    6.1245: real time    6.1247

 eigenvalue-minimisations  :  8107
 total energy-change (2. order) :-0.4742500E-03  (-0.4756768E-03)
 number of electron     404.0000326 magnetization 
 augmentation part      404.0000326 magnetization 

 Free energy of the ion-electron system (eV)
  ---------------------------------------------------
  alpha Z        PSCENC =       911.89913522
  Ewald energy   TEWEN  =    148455.97618779
  -Hartree energ DENC   =   -196633.62677980
  -exchange      EXHF   =         0.00000000
  -V(xc)+E(xc)   XCENC  =      1642.26696427
  PAW double counting   =     47805.99274510   -51553.45485996
  entropy T*S    EENTRO =         0.00000000
  eigenvalues    EBANDS =     -1440.18968042
  atomic energy  EATOM  =     50671.71996576
  Solvation  Ediel_sol  =         0.00000000
  ---------------------------------------------------
  free energy    TOTEN  =      -139.41632205 eV

  energy without entropy =     -139.41632205  energy(sigma->0) =     -139.41632205


--------------------------------------------------------------------------------------------------------




--------------------------------------- Iteration      1(  12)  ---------------------------------------


    EDDIAG:  cpu time    1.1152: real time    1.1153
  RMM-DIIS:  cpu time    4.5178: real time    4.5179
    ORTHCH:  cpu time    0.2080: real time    0.2080
 BZINTS: Fermi energy:    0.090986;  404.000000 electrons
         Band energy:-0.144019E+04;  BLOECHL correction:   -0.044361
       DOS:  cpu time    0.0097: real time    0.0097
    --------------------------------------------
      LOOP:  cpu time    5.8507: real time    5.8510

 eigenvalue-minimisations  :  7501
 total energy-change (2. order) :-0.2530625E-03  (-0.2566509E-03)
 number of electron     404.0000326 magnetization 
 augmentation part      404.0000326 magnetization 

 Free energy of the ion-electron system (eV)
  ---------------------------------------------------
  alpha Z        PSCENC =       911.89913522
  Ewald energy   TEWEN  =    148455.97618779
  -Hartree energ DENC   =   -196633.62677980
  -exchange      EXHF   =         0.00000000
  -V(xc)+E(xc)   XCENC  =      1642.26696427
  PAW double counting   =     47805.99274510   -51553.45485996
  entropy T*S    EENTRO =         0.00000000
  eigenvalues    EBANDS =     -1440.18993348
  atomic energy  EATOM  =     50671.71996576
  Solvation  Ediel_sol  =         0.00000000
  ---------------------------------------------------
  free energy    TOTEN  =      -139.41657511 eV

  energy without entropy =     -139.41657511  energy(sigma->0) =     -139.41657511


--------------------------------------------------------------------------------------------------------




--------------------------------------- Iteration      1(  13)  ---------------------------------------


    EDDIAG:  cpu time    1.1104: real time    1.1106
  RMM-DIIS:  cpu time    4.2120: real time    4.2120
    ORTHCH:  cpu time    0.2078: real time    0.2079
 BZINTS: Fermi energy:    0.090982;  404.000000 electrons
         Band energy:-0.144019E+04;  BLOECHL correction:   -0.044361
       DOS:  cpu time    0.0106: real time    0.0106
    --------------------------------------------
      LOOP:  cpu time    5.5408: real time    5.5410

 eigenvalue-minimisations  :  7055
 total energy-change (2. order) :-0.1395753E-03  (-0.1422932E-03)
 number of electron     404.0000326 magnetization 
 augmentation part      404.0000326 magnetization 

 Free energy of the ion-electron system (eV)
  ---------------------------------------------------
  alpha Z        PSCENC =       911.89913522
  Ewald energy   TEWEN  =    148455.97618779
  -Hartree energ DENC   =   -196633.62677980
  -exchange      EXHF   =         0.00000000
  -V(xc)+E(xc)   XCENC  =      1642.26696427
  PAW double counting   =     47805.99274510   -51553.45485996
  entropy T*S    EENTRO =         0.00000000
  eigenvalues    EBANDS =     -1440.19007306
  atomic energy  EATOM  =     50671.71996576
  Solvation  Ediel_sol  =         0.00000000
  ---------------------------------------------------
  free energy    TOTEN  =      -139.41671468 eV

  energy without entropy =     -139.41671468  energy(sigma->0) =     -139.41671468


--------------------------------------------------------------------------------------------------------




--------------------------------------- Iteration      1(  14)  ---------------------------------------


    EDDIAG:  cpu time    1.1126: real time    1.1127
  RMM-DIIS:  cpu time    3.8179: real time    3.8180
    ORTHCH:  cpu time    0.2082: real time    0.2082
 BZINTS: Fermi energy:    0.090979;  404.000000 electrons
         Band energy:-0.144019E+04;  BLOECHL correction:   -0.044362
       DOS:  cpu time    0.0106: real time    0.0106
    --------------------------------------------
      LOOP:  cpu time    5.1493: real time    5.1495

 eigenvalue-minimisations  :  6374
 total energy-change (2. order) :-0.7765018E-04  (-0.7956277E-04)
 number of electron     404.0000326 magnetization 
 augmentation part      404.0000326 magnetization 

 Free energy of the ion-electron system (eV)
  ---------------------------------------------------
  alpha Z        PSCENC =       911.89913522
  Ewald energy   TEWEN  =    148455.97618779
  -Hartree energ DENC   =   -196633.62677980
  -exchange      EXHF   =         0.00000000
  -V(xc)+E(xc)   XCENC  =      1642.26696427
  PAW double counting   =     47805.99274510   -51553.45485996
  entropy T*S    EENTRO =         0.00000000
  eigenvalues    EBANDS =     -1440.19015071
  atomic energy  EATOM  =     50671.71996576
  Solvation  Ediel_sol  =         0.00000000
  ---------------------------------------------------
  free energy    TOTEN  =      -139.41679234 eV

  energy without entropy =     -139.41679234  energy(sigma->0) =     -139.41679234


--------------------------------------------------------------------------------------------------------




--------------------------------------- Iteration      1(  15)  ---------------------------------------


    EDDIAG:  cpu time    1.1108: real time    1.1109
  RMM-DIIS:  cpu time    3.5806: real time    3.5807
    ORTHCH:  cpu time    0.2083: real time    0.2083
 BZINTS: Fermi energy:    0.090978;  404.000000 electrons
         Band energy:-0.144019E+04;  BLOECHL correction:   -0.044362
       DOS:  cpu time    0.0103: real time    0.0103
    --------------------------------------------
      LOOP:  cpu time    4.9101: real time    4.9103

 eigenvalue-minimisations  :  5853
 total energy-change (2. order) :-0.4467860E-04  (-0.4627161E-04)
 number of electron     404.0000326 magnetization 
 augmentation part      404.0000326 magnetization 

 Free energy of the ion-electron system (eV)
  ---------------------------------------------------
  alpha Z        PSCENC =       911.89913522
  Ewald energy   TEWEN  =    148455.97618779
  -Hartree energ DENC   =   -196633.62677980
  -exchange      EXHF   =         0.00000000
  -V(xc)+E(xc)   XCENC  =      1642.26696427
  PAW double counting   =     47805.99274510   -51553.45485996
  entropy T*S    EENTRO =         0.00000000
  eigenvalues    EBANDS =     -1440.19019539
  atomic energy  EATOM  =     50671.71996576
  Solvation  Ediel_sol  =         0.00000000
  ---------------------------------------------------
  free energy    TOTEN  =      -139.41683701 eV

  energy without entropy =     -139.41683701  energy(sigma->0) =     -139.41683701


--------------------------------------------------------------------------------------------------------




--------------------------------------- Iteration      1(  16)  ---------------------------------------


    EDDIAG:  cpu time    1.1152: real time    1.1154
  RMM-DIIS:  cpu time    3.2673: real time    3.2674
    ORTHCH:  cpu time    0.2077: real time    0.2077
 BZINTS: Fermi energy:    0.090977;  404.000000 electrons
         Band energy:-0.144019E+04;  BLOECHL correction:   -0.044362
       DOS:  cpu time    0.0105: real time    0.0105
    --------------------------------------------
      LOOP:  cpu time    4.6008: real time    4.6011

 eigenvalue-minimisations  :  5318
 total energy-change (2. order) :-0.2619863E-04  (-0.2738598E-04)
 number of electron     404.0000326 magnetization 
 augmentation part      404.0000326 magnetization 

 Free energy of the ion-electron system (eV)
  ---------------------------------------------------
  alpha Z        PSCENC =       911.89913522
  Ewald energy   TEWEN  =    148455.97618779
  -Hartree energ DENC   =   -196633.62677980
  -exchange      EXHF   =         0.00000000
  -V(xc)+E(xc)   XCENC  =      1642.26696427
  PAW double counting   =     47805.99274510   -51553.45485996
  entropy T*S    EENTRO =         0.00000000
  eigenvalues    EBANDS =     -1440.19022158
  atomic energy  EATOM  =     50671.71996576
  Solvation  Ediel_sol  =         0.00000000
  ---------------------------------------------------
  free energy    TOTEN  =      -139.41686321 eV

  energy without entropy =     -139.41686321  energy(sigma->0) =     -139.41686321


--------------------------------------------------------------------------------------------------------




--------------------------------------- Iteration      1(  17)  ---------------------------------------


    EDDIAG:  cpu time    1.1142: real time    1.1143
  RMM-DIIS:  cpu time    3.0913: real time    3.0914
    ORTHCH:  cpu time    0.2075: real time    0.2075
 BZINTS: Fermi energy:    0.090977;  404.000000 electrons
         Band energy:-0.144019E+04;  BLOECHL correction:   -0.044362
       DOS:  cpu time    0.0104: real time    0.0104
    --------------------------------------------
      LOOP:  cpu time    4.4234: real time    4.4236

 eigenvalue-minimisations  :  5002
 total energy-change (2. order) :-0.1621139E-04  (-0.1713349E-04)
 number of electron     404.0000326 magnetization 
 augmentation part      404.0000326 magnetization 

 Free energy of the ion-electron system (eV)
  ---------------------------------------------------
  alpha Z        PSCENC =       911.89913522
  Ewald energy   TEWEN  =    148455.97618779
  -Hartree energ DENC   =   -196633.62677980
  -exchange      EXHF   =         0.00000000
  -V(xc)+E(xc)   XCENC  =      1642.26696427
  PAW double counting   =     47805.99274510   -51553.45485996
  entropy T*S    EENTRO =         0.00000000
  eigenvalues    EBANDS =     -1440.19023780
  atomic energy  EATOM  =     50671.71996576
  Solvation  Ediel_sol  =         0.00000000
  ---------------------------------------------------
  free energy    TOTEN  =      -139.41687942 eV

  energy without entropy =     -139.41687942  energy(sigma->0) =     -139.41687942


--------------------------------------------------------------------------------------------------------




--------------------------------------- Iteration      1(  18)  ---------------------------------------


    EDDIAG:  cpu time    1.1110: real time    1.1112
  RMM-DIIS:  cpu time    2.9207: real time    2.9207
    ORTHCH:  cpu time    0.2077: real time    0.2077
 BZINTS: Fermi energy:    0.090977;  404.000000 electrons
         Band energy:-0.144019E+04;  BLOECHL correction:   -0.044363
       DOS:  cpu time    0.0099: real time    0.0099
    --------------------------------------------
      LOOP:  cpu time    4.2492: real time    4.2495

 eigenvalue-minimisations  :  4601
 total energy-change (2. order) :-0.1050663E-04  (-0.1114321E-04)
 number of electron     404.0000326 magnetization 
 augmentation part      404.0000326 magnetization 

 Free energy of the ion-electron system (eV)
  ---------------------------------------------------
  alpha Z        PSCENC =       911.89913522
  Ewald energy   TEWEN  =    148455.97618779
  -Hartree energ DENC   =   -196633.62677980
  -exchange      EXHF   =         0.00000000
  -V(xc)+E(xc)   XCENC  =      1642.26696427
  PAW double counting   =     47805.99274510   -51553.45485996
  entropy T*S    EENTRO =         0.00000000
  eigenvalues    EBANDS =     -1440.19024830
  atomic energy  EATOM  =     50671.71996576
  Solvation  Ediel_sol  =         0.00000000
  ---------------------------------------------------
  free energy    TOTEN  =      -139.41688993 eV

  energy without entropy =     -139.41688993  energy(sigma->0) =     -139.41688993


--------------------------------------------------------------------------------------------------------




--------------------------------------- Iteration      1(  19)  ---------------------------------------


    EDDIAG:  cpu time    1.1103: real time    1.1106
  RMM-DIIS:  cpu time    2.8051: real time    2.8051
    ORTHCH:  cpu time    0.2080: real time    0.2080
 BZINTS: Fermi energy:    0.090976;  404.000000 electrons
         Band energy:-0.144019E+04;  BLOECHL correction:   -0.044363
       DOS:  cpu time    0.0099: real time    0.0099
    --------------------------------------------
      LOOP:  cpu time    4.1333: real time    4.1336

 eigenvalue-minimisations  :  4344
 total energy-change (2. order) :-0.7080904E-05  (-0.7615562E-05)
 number of electron     404.0000326 magnetization 
 augmentation part      404.0000326 magnetization 

 Free energy of the ion-electron system (eV)
  ---------------------------------------------------
  alpha Z        PSCENC =       911.89913522
  Ewald energy   TEWEN  =    148455.97618779
  -Hartree energ DENC   =   -196633.62677980
  -exchange      EXHF   =         0.00000000
  -V(xc)+E(xc)   XCENC  =      1642.26696427
  PAW double counting   =     47805.99274510   -51553.45485996
  entropy T*S    EENTRO =         0.00000000
  eigenvalues    EBANDS =     -1440.19025538
  atomic energy  EATOM  =     50671.71996576
  Solvation  Ediel_sol  =         0.00000000
  ---------------------------------------------------
  free energy    TOTEN  =      -139.41689701 eV

[...]
  0.000   0.000   0.000   0.000   0.000   0.000   0.000   0.000   0.000   0.000   0.000   0.000   0.000   0.000   0.000   0.000
  0.000   0.000   0.000   0.000   0.000   0.000   0.000   0.000   0.000   0.000   0.000   0.000   0.000   0.000   0.000   0.000
  0.000   0.000   0.000   0.000   0.000   0.000   0.000   0.000   0.000   0.000   0.000   0.000   0.000   0.000   0.000   0.000
  0.000   0.000   0.000   0.000   0.000   0.000   0.000   0.000   0.000   0.000   0.000   0.000   0.000   0.000   0.000   0.000
  0.000   0.000   0.000   0.000   0.000   0.000   0.000   0.000   0.000   0.000   0.000   0.000   0.000   0.000   0.000   0.000
  0.000   0.000   0.000   0.000   0.000   0.000   0.000   0.000   0.000   0.000   1.000   0.000   0.000   0.000   0.000   0.000
  0.000   0.000   0.000   0.000   0.000   0.000   0.000   0.000   0.000   0.000   0.000   0.000   0.000   0.000   0.000   0.000
  0.000   0.000   0.000   0.000   0.000   0.000   0.000   0.000   0.000   0.000   0.000   0.000   0.000   0.000   0.000   0.000
  0.000   0.000   0.000   0.000   0.000   0.000   0.000   0.000   0.000   0.000   0.000   0.000   0.000   0.000   0.000   0.000
  0.000   0.000   0.000   0.000   0.000   0.000   0.000   0.000   0.000   0.000   0.000   0.000   0.000   0.000   0.000   0.000
  0.000   0.000   0.000   0.000   0.000   0.000   0.000   0.000   0.000   0.000   0.000   0.000   0.000   0.000   0.000   0.000
  0.000   0.000   0.000   0.000   0.000   0.000   0.000   0.000   0.000   0.000   0.000   0.000   0.000   0.000   0.000   0.000
  0.000   0.000   0.000   0.000   0.000   0.000   0.000   0.000   0.000   0.000   0.000   0.000   0.000   0.000   0.000   0.000


------------------------ aborting loop because EDIFF is reached ----------------------------------------





 total charge

# of ion       s       p       d       tot
------------------------------------------
    1        0.450   0.283   9.188   9.921
    2        0.449   0.285   9.186   9.920
    3        0.449   0.285   9.186   9.920
    4        0.449   0.285   9.186   9.920
    5        0.446   0.286   9.185   9.917
    6        0.449   0.285   9.186   9.920
    7        0.449   0.285   9.186   9.920
    8        0.449   0.285   9.186   9.920
    9        0.448   0.284   9.188   9.920
   10        0.442   0.370   9.178   9.990
   11        0.440   0.367   9.182   9.988
   12        0.442   0.370   9.178   9.990
   13        0.440   0.367   9.182   9.988
   14        0.440   0.367   9.182   9.988
   15        0.438   0.370   9.177   9.986
   16        0.442   0.370   9.178   9.990
   17        0.438   0.370   9.177   9.986
   18        0.438   0.370   9.177   9.986
   19        0.444   0.367   9.183   9.994
   20        0.461   0.386   9.169  10.017
   21        0.461   0.386   9.169  10.017
   22        0.434   0.374   9.177   9.984
   23        0.461   0.386   9.169  10.017
   24        0.434   0.374   9.177   9.984
   25        0.444   0.367   9.183   9.994
   26        0.444   0.367   9.183   9.994
   27        0.434   0.374   9.177   9.984
   28        0.449   0.295   9.181   9.925
   29        0.477   0.311   9.172   9.961
   30        0.477   0.311   9.172   9.961
   31        0.477   0.311   9.172   9.961
   32        0.477   0.311   9.172   9.961
   33        0.477   0.311   9.172   9.961
   34        0.477   0.311   9.172   9.961
   35        0.449   0.301   9.178   9.927
   36        2.247   6.051   2.540  10.838
   37        1.612   3.321   0.000   4.933
--------------------------------------------------
tot         19.632  21.098 323.805 364.535
 
    CHARGE:  cpu time    0.2121: real time    0.2122
    FORLOC:  cpu time    0.0074: real time    0.0074
    FORNL :  cpu time    1.1858: real time    1.1859
    STRESS:  cpu time    3.5200: real time    3.5202
    FORCOR:  cpu time    0.0279: real time    0.0280
    FORHAR:  cpu time    0.0115: real time    0.0115
    OFIELD:  cpu time    0.0001: real time    0.0001

  FORCE on cell =-STRESS in cart. coord.  units (eV):
  Direction    XX          YY          ZZ          XY          YZ          ZX
  --------------------------------------------------------------------------------------
  Alpha Z   911.89914   911.89914   911.89914
  Ewald  174926.84188174926.84136************     0.00042     0.00012     0.00022
  Hartree188209.93013188209.93007************     0.00005     0.00006     0.00008
  E(xc)   -2336.13253 -2336.13206 -2340.05485    -0.00041    -0.00004    -0.00006
  Local  ************************376523.93108     0.01862    -0.00060    -0.00102
  n-local  -790.33243  -778.63616  -802.99274     6.62578    -0.33877     0.41580
  augment  3329.67660  3329.69656  3353.29334    -0.01728     0.00022     0.00046
  Kinetic  3512.78448  3515.23821  3538.76935     1.56718     2.08370    -1.40532
  Fock        0.00000     0.00000     0.00000     0.00000     0.00000     0.00000
  -------------------------------------------------------------------------------------
  Total      -1.92187    -1.92187     0.92723     0.00000     0.00000    -0.00000
  in kB      -2.81984    -2.81984     1.36047     0.00000     0.00000    -0.00000
  external pressure =       -1.43 kB  Pullay stress =        0.00 kB


 VOLUME and BASIS-vectors are now :
 -----------------------------------------------------------------------------
  energy-cutoff  :      500.00
  volume of cell :     1091.97
      direct lattice vectors                 reciprocal lattice vectors
     7.696786404  0.000000000  0.000000000     0.129924354 -0.075011849  0.000000000
     3.848392758  6.665612809  0.000000000     0.000000000  0.150023716  0.000000000
     0.000000000  0.000000000 21.284399033     0.000000000  0.000000000  0.046982769

  length of vectors
     7.696786404  7.696786404 21.284399033     0.150023716  0.150023716  0.046982769


 FORCES acting on ions
    electron-ion (+dipol)            ewald-force                    non-local-force                 convergence-correction
 -----------------------------------------------------------------------------------------------
   -.412E-04 0.351E-06 0.352E+04   0.578E-04 -.436E-05 -.352E+04   -.857E-17 0.321E-17 -.208E+01   -.336E-03 -.161E-03 0.354E-01
   -.405E+00 0.114E+00 0.352E+04   0.396E+00 -.562E-01 -.352E+04   -.746E-02 0.190E-01 -.195E+01   0.140E-01 -.725E-01 0.115E-01
   0.405E+00 0.114E+00 0.352E+04   -.396E+00 -.562E-01 -.352E+04   0.746E-02 0.190E-01 -.195E+01   -.132E-01 -.699E-01 0.124E-01
   -.103E+00 -.407E+00 0.352E+04   0.149E+00 0.371E+00 -.352E+04   0.128E-01 -.160E-01 -.195E+01   -.557E-01 0.484E-01 0.115E-01
   -.657E-04 -.570E-05 0.352E+04   0.116E-03 -.101E-04 -.352E+04   0.345E-17 -.203E-17 -.209E+01   0.122E-01 0.749E-02 -.315E-01
   0.103E+00 -.407E+00 0.352E+04   -.149E+00 0.371E+00 -.352E+04   -.128E-01 -.160E-01 -.195E+01   0.540E-01 0.496E-01 0.129E-01
   0.301E+00 0.293E+00 0.352E+04   -.247E+00 -.315E+00 -.352E+04   0.202E-01 -.306E-02 -.195E+01   -.671E-01 0.235E-01 0.126E-01
   -.301E+00 0.293E+00 0.352E+04   0.246E+00 -.315E+00 -.352E+04   -.202E-01 -.306E-02 -.195E+01   0.707E-01 0.220E-01 0.129E-01
   -.144E-03 -.328E-04 0.352E+04   0.263E-03 0.205E-04 -.352E+04   0.141E-18 0.671E-18 -.204E+01   -.133E-01 -.685E-02 -.316E-01
   -.285E+01 -.165E+01 0.124E+04   0.306E+01 0.177E+01 -.124E+04   -.214E+00 -.124E+00 -.735E+00   0.936E-02 0.539E-02 -.189E+00
   -.906E-04 0.662E+00 0.123E+04   0.190E-03 -.891E+00 -.123E+04   -.158E-07 0.237E+00 -.546E+00   0.118E-01 -.407E-01 -.235E+00
   0.285E+01 -.165E+01 0.124E+04   -.306E+01 0.177E+01 -.124E+04   0.214E+00 -.124E+00 -.735E+00   -.114E-01 0.746E-02 -.188E+00
   0.573E+00 -.331E+00 0.123E+04   -.772E+00 0.445E+00 -.123E+04   0.205E+00 -.119E+00 -.546E+00   -.289E-01 0.314E-01 -.235E+00
   -.573E+00 -.331E+00 0.123E+04   0.771E+00 0.445E+00 -.123E+04   -.205E+00 -.119E+00 -.546E+00   0.534E-01 0.304E-01 -.235E+00
   -.143E-03 -.332E+01 0.123E+04   0.298E-03 0.324E+01 -.123E+04   -.493E-08 0.741E-01 -.778E+00   -.407E-02 0.283E-01 -.208E+00
   -.909E-04 0.329E+01 0.124E+04   0.185E-03 -.353E+01 -.124E+04   -.165E-07 0.247E+00 -.735E+00   -.151E-03 -.148E-01 -.189E+00
   -.288E+01 0.166E+01 0.123E+04   0.280E+01 -.162E+01 -.123E+04   0.641E-01 -.370E-01 -.778E+00   0.232E-01 -.177E-01 -.208E+00
   0.288E+01 0.166E+01 0.123E+04   -.280E+01 -.162E+01 -.123E+04   -.641E-01 -.370E-01 -.778E+00   -.224E-01 -.146E-01 -.207E+00
   -.668E-04 -.192E+01 -.106E+04   0.636E-04 0.188E+01 0.106E+04   0.337E-09 -.506E-02 0.115E+01   -.236E-02 0.147E-01 -.419E+00
   0.930E+01 0.537E+01 -.106E+04   -.901E+01 -.520E+01 0.106E+04   -.529E+00 -.305E+00 0.441E+00   -.428E-01 -.249E-01 -.412E+00
   -.930E+01 0.537E+01 -.106E+04   0.901E+01 -.520E+01 0.106E+04   0.529E+00 -.305E+00 0.441E+00   0.669E-01 -.230E-01 -.411E+00
   0.284E+01 -.164E+01 -.108E+04   -.307E+01 0.177E+01 0.108E+04   0.338E+00 -.195E+00 0.104E+01   -.571E-01 0.322E-01 -.437E+00
   -.583E-04 -.107E+02 -.106E+04   0.141E-03 0.104E+02 0.106E+04   -.407E-07 0.611E+00 0.441E+00   0.123E-01 0.682E-01 -.412E+00
   -.284E+01 -.164E+01 -.108E+04   0.307E+01 0.177E+01 0.108E+04   -.338E+00 -.195E+00 0.104E+01   0.543E-01 0.305E-01 -.437E+00
   0.166E+01 0.960E+00 -.106E+04   -.163E+01 -.942E+00 0.106E+04   0.438E-02 0.253E-02 0.115E+01   -.114E-01 -.659E-02 -.420E+00
   -.166E+01 0.960E+00 -.106E+04   0.163E+01 -.942E+00 0.106E+04   -.438E-02 0.253E-02 0.115E+01   0.119E-01 -.921E-02 -.419E+00
   -.131E-03 0.328E+01 -.108E+04   0.244E-03 -.354E+01 0.108E+04   -.260E-07 0.391E+00 0.104E+01   -.705E-03 -.656E-01 -.437E+00
   -.268E-04 0.233E-04 -.340E+04   0.330E-04 -.342E-04 0.339E+04   0.158E-17 -.115E-18 0.163E+01   0.121E-02 0.746E-03 -.583E-02
   0.306E+02 0.439E+02 -.338E+04   -.303E+02 -.441E+02 0.338E+04   -.305E+00 -.124E+00 0.199E+01   -.535E-01 0.421E-01 -.327E-01
   -.306E+02 0.439E+02 -.338E+04   0.303E+02 -.441E+02 0.338E+04   0.305E+00 -.124E+00 0.199E+01   0.327E-01 0.449E-01 -.327E-01
   0.533E+02 0.449E+01 -.338E+04   -.534E+02 -.421E+01 0.338E+04   -.260E+00 -.202E+00 0.199E+01   0.977E-02 -.674E-01 -.327E-01
   -.533E+02 0.449E+01 -.338E+04   0.534E+02 -.421E+01 0.338E+04   0.260E+00 -.202E+00 0.199E+01   -.336E-01 -.664E-01 -.336E-01
   0.228E+02 -.484E+02 -.338E+04   -.230E+02 0.483E+02 0.338E+04   0.453E-01 0.326E+00 0.199E+01   0.552E-01 0.586E-02 -.327E-01
   -.228E+02 -.484E+02 -.338E+04   0.230E+02 0.483E+02 0.338E+04   -.453E-01 0.326E+00 0.199E+01   -.736E-01 0.409E-02 -.335E-01
   -.151E-03 -.185E-04 -.341E+04   0.262E-03 0.232E-05 0.341E+04   0.145E-16 0.103E-16 0.194E+01   -.118E-01 -.598E-02 0.317E-02
   0.164E-03 -.179E-03 -.376E+04   0.151E-03 0.344E-04 0.377E+04   0.108E-17 0.160E-17 -.448E+01   0.885E-02 0.531E-02 0.114E-01
   0.191E-03 -.887E-04 -.232E+04   0.149E-04 0.714E-05 0.235E+04   -.962E-18 -.381E-18 -.281E+02   0.367E-02 0.223E-02 0.230E-01
 -----------------------------------------------------------------------------------------------
   0.126E-03 -.233E-03 0.390E+02   0.157E-12 0.119E-12 -.136E-10   0.840E-16 0.670E-16 -.332E+02   0.199E-02 -.169E-02 -.582E+01
 
 
 POSITION                                       TOTAL-FORCE (eV/Angst)
 -----------------------------------------------------------------------------------
      0.00000      0.00000      5.37156         0.000000      0.000000      0.008977
      2.56560      0.00000      5.37156        -0.001609      0.005531      0.054228
      5.13119      0.00000      5.37156         0.001609      0.005531      0.054228
      1.28280      2.22187      5.37156         0.003986     -0.004159      0.054228
      3.84839      2.22187      5.37156         0.000000      0.000000      0.063173
      6.41399      2.22187      5.37156        -0.003986     -0.004159      0.054228
      2.56560      4.44374      5.37156         0.005594     -0.001372      0.054228
      5.13119      4.44374      5.37156        -0.005594     -0.001372      0.054228
      7.69679      4.44374      5.37156         0.000000      0.000000      0.026202
      1.28280      0.74062      7.46636         0.004749      0.002742     -0.095325
      3.84839      0.74062      7.46636         0.000000     -0.039468     -0.023797
      6.41399      0.74062      7.46636        -0.004749      0.002742     -0.095325
      2.56560      2.96249      7.46636        -0.034180      0.019734     -0.023797
      5.13119      2.96249      7.46636         0.034180      0.019734     -0.023797
      7.69679      2.96249      7.46636        -0.000000      0.014495      0.015915
      3.84839      5.18437      7.46636         0.000000     -0.005484     -0.095325
      6.41399      5.18437      7.46636         0.012553     -0.007248      0.015915
      8.97958      5.18437      7.46636        -0.012553     -0.007248      0.015915
      7.69679      1.47855      9.54201         0.000000     -0.026391      0.021317
      2.56706      1.48209      9.56134        -0.290612     -0.167785     -0.369692
      5.12972      1.48209      9.56134         0.290612     -0.167785     -0.369692
      8.97774      3.70418      9.56312         0.058598     -0.033832      0.028210
      3.84839      3.70142      9.56134        -0.000000      0.335569     -0.369692
      6.41583      3.70418      9.56312        -0.058598     -0.033832      0.028210
     10.26471      5.92634      9.54201         0.022855      0.013195      0.021317
      5.12886      5.92634      9.54201        -0.022855      0.013195      0.021317
      7.69679      5.92286      9.56312        -0.000000      0.067663      0.028210
      0.00000      0.00000     11.64396         0.000000      0.000000     -0.051717
      6.40056      6.63873     11.66709        -0.123998     -0.232919     -0.177195
      8.99302      6.63873     11.66709         0.123998     -0.232919     -0.177195
      8.94959      2.22368     11.66709        -0.263713      0.009074     -0.177195
      6.44399      2.22368     11.66709         0.263713      0.009074     -0.177195
     10.24582      4.46882     11.66709        -0.139715      0.223845     -0.177195
      5.14776      4.46882     11.66709         0.139715      0.223845     -0.177195
      7.69679      4.44374     11.66626         0.000000      0.000000     -0.038090
      3.84839      2.22187     11.77465         0.000000      0.000000      2.001355
      3.84839      2.22187     13.51319         0.000000      0.000000     -0.001983
 -----------------------------------------------------------------------------------
    total drift:                                0.002117     -0.001924     -0.025040


--------------------------------------------------------------------------------------------------------



  FREE ENERGIE OF THE ION-ELECTRON SYSTEM (eV)
  ---------------------------------------------------
  free  energy   TOTEN  =      -139.41689701 eV

  energy  without entropy=     -139.41689701  energy(sigma->0) =     -139.41689701
 


--------------------------------------------------------------------------------------------------------


    POTLOK:  cpu time    0.0284: real time    0.0284


--------------------------------------------------------------------------------------------------------


 stress matrix after NEB project (eV)
     -1.92187      0.00000     -0.00000
      0.00000     -1.92187      0.00000
      0.00000      0.00000      0.92723
  FORCES: max atom, RMS     0.001983    0.000326
  FORCE total and by dimension    0.001983    0.001983
  Stress total and by dimension    2.871750    1.921873
     LOOP+:  cpu time  116.7326: real time  116.7485
 -----------------------------------------------------------------------------
|                                                                             |
|           W    W    AA    RRRRR   N    N  II  N    N   GGGG   !!!           |
|           W    W   A  A   R    R  NN   N  II  NN   N  G    G  !!!           |
|           W    W  A    A  R    R  N N  N  II  N N  N  G       !!!           |
|           W WW W  AAAAAA  RRRRR   N  N N  II  N  N N  G  GGG   !            |
|           WW  WW  A    A  R   R   N   NN  II  N   NN  G    G                |
|           W    W  A    A  R    R  N    N  II  N    N   GGGG   !!!           |
|                                                                             |
|     Tetrahedron method does not include variations of the Fermi             |
|     occupations, so forces and stress will be inaccurate. We suggest        |
|     using a different smearing scheme ISMEAR = 1 or 2 for metals in         |
|     relaxations.                                                            |
|                                                                             |
 -----------------------------------------------------------------------------

    4ORBIT:  cpu time    0.0000: real time    0.0000



 total charge

# of ion       s       p       d       tot
------------------------------------------
    1        0.450   0.283   9.188   9.921
    2        0.449   0.285   9.186   9.920
    3        0.449   0.285   9.186   9.920
    4        0.449   0.285   9.186   9.920
    5        0.446   0.286   9.185   9.917
    6        0.449   0.285   9.186   9.920
    7        0.449   0.285   9.186   9.920
    8        0.449   0.285   9.186   9.920
    9        0.448   0.284   9.188   9.920
   10        0.442   0.370   9.178   9.990
   11        0.440   0.367   9.182   9.988
   12        0.442   0.370   9.178   9.990
   13        0.440   0.367   9.182   9.988
   14        0.440   0.367   9.182   9.988
   15        0.438   0.370   9.177   9.986
   16        0.442   0.370   9.178   9.990
   17        0.438   0.370   9.177   9.986
   18        0.438   0.370   9.177   9.986
   19        0.444   0.367   9.183   9.994
   20        0.461   0.386   9.169  10.017
   21        0.461   0.386   9.169  10.017
   22        0.434   0.374   9.177   9.984
   23        0.461   0.386   9.169  10.017
   24        0.434   0.374   9.177   9.984
   25        0.444   0.367   9.183   9.994
   26        0.444   0.367   9.183   9.994
   27        0.434   0.374   9.177   9.984
   28        0.449   0.295   9.181   9.925
   29        0.477   0.311   9.172   9.961
   30        0.477   0.311   9.172   9.961
   31        0.477   0.311   9.172   9.961
   32        0.477   0.311   9.172   9.961
   33        0.477   0.311   9.172   9.961
   34        0.477   0.311   9.172   9.961
   35        0.449   0.301   9.178   9.927
   36        2.247   6.051   2.540  10.838
   37        1.612   3.321   0.000   4.933
--------------------------------------------------
tot         19.632  21.098 323.805 364.535
 
 BZINTS: Fermi energy:    0.090976;  404.000000 electrons
         Band energy:-0.144019E+04;  BLOECHL correction:   -0.044363

 total amount of memory used by VASP MPI-rank0   104716. kBytes
=======================================================================

   base      :      30000. kBytes
   nonlr-proj:      17830. kBytes
   fftplans  :       2916. kBytes
   grid      :      12390. kBytes
   one-center:        575. kBytes
   wavefun   :      41005. kBytes
 
  
  
 General timing and accounting informations for this job:
 ========================================================
  
                  Total CPU time used (sec):      122.659
                            User time (sec):      118.755
                          System time (sec):        3.904
                         Elapsed time (sec):      123.025
  
                   Maximum memory used (kb):      344968.
                   Average memory used (kb):          N/A
  
                          Minor page faults:       114964
                          Major page faults:            0
                 Voluntary context switches:         5422
