PROCAR new format
# of k-points:   10         # of bands:  252         # of ions:   37

 k-point     1 :    0.00000000 0.00000000 0.00000000     weight = 0.01562500

band     1 # energy  -55.15005699 # occ.  2.00000000
 
ion      s      p      d    tot
    1  0.000  0.000  0.000  0.000
    2  0.000  0.000  0.000  0.000
    3  0.000  0.000  0.000  0.000
    4  0.000  0.000  0.000  0.000
    5  0.000  0.000  0.000  0.000
    6  0.000  0.000  0.000  0.000
    7  0.000  0.000  0.000  0.000
    8  0.000  0.000  0.000  0.000
    9  0.000  0.000  0.000  0.000
   10  0.000  0.000  0.000  0.000
   11  0.000  0.000  0.000  0.000
   12  0.000  0.000  0.000  0.000
   13  0.000  0.000  0.000  0.000
   14  0.000  0.000  0.000  0.000
   15  0.000  0.000  0.000  0.000
   16  0.000  0.000  0.000  0.000
   17  0.000  0.000  0.000  0.000
   18  0.000  0.000  0.000  0.000
   19  0.000  0.000  0.000  0.000
   20  0.000  0.000  0.000  0.000
   21  0.000  0.000  0.000  0.000
   22  0.000  0.000  0.000  0.000
   23  0.000  0.000  0.000  0.000
   24  0.000  0.000  0.000  0.000
   25  0.000  0.000  0.000  0.000
   26  0.000  0.000  0.000  0.000
   27  0.000  0.000  0.000  0.000
   28  0.000  0.000  0.000  0.000
   29  0.000  0.000  0.000  0.000
   30  0.000  0.000  0.000  0.000
   31  0.000  0.000  0.000  0.000
   32  0.000  0.000  0.000  0.000
   33  0.000  0.000  0.000  0.000
   34  0.000  0.000  0.000  0.000
   35  0.000  0.000  0.000  0.000
   36  0.991  0.000  0.000  0.991
   37  0.001  0.001  0.000  0.003
tot    0.992  0.001  0.000  0.994
 
band     2 # energy  -31.81119560 # occ.  2.00000000
 
ion      s      p      d    tot
    1  0.000  0.000  0.000  0.000
    2  0.000  0.000  0.000  0.000
    3  0.000  0.000  0.000  0.000
    4  0.000  0.000  0.000  0.000
    5  0.000  0.000  0.000  0.000
    6  0.000  0.000  0.000  0.000
    7  0.000  0.000  0.000  0.000
    8  0.000  0.000  0.000  0.000
    9  0.000  0.000  0.000  0.000
   10  0.000  0.000  0.000  0.000
   11  0.000  0.000  0.000  0.000
   12  0.000  0.000  0.000  0.000
   13  0.000  0.000  0.000  0.000
   14  0.000  0.000  0.000  0.000
   15  0.000  0.000  0.000  0.000
   16  0.000  0.000  0.000  0.000
   17  0.000  0.000  0.000  0.000
   18  0.000  0.000  0.000  0.000
   19  0.000  0.000  0.000  0.000
   20  0.000  0.000  0.000  0.000
   21  0.000  0.000  0.000  0.000
   22  0.000  0.000  0.000  0.000
   23  0.000  0.000  0.000  0.000
   24  0.000  0.000  0.000  0.000
   25  0.000  0.000  0.000  0.000
   26  0.000  0.000  0.000  0.000
   27  0.000  0.000  0.000  0.000
   28  0.000  0.000  0.000  0.000
   29  0.000  0.000  0.000  0.000
   30  0.000  0.000  0.000  0.000
   31  0.000  0.000  0.000  0.000
   32  0.000  0.000  0.000  0.000
   33  0.000  0.000  0.000  0.000
   34  0.000  0.000  0.000  0.000
   35  0.000  0.000  0.000  0.000
   36  0.000  0.934  0.001  0.935
   37  0.032  0.015  0.000  0.047
tot    0.032  0.949  0.002  0.983
 
band     3 # energy  -31.21650364 # occ.  2.00000000
 
ion      s      p      d    tot
    1  0.000  0.000  0.000  0.000
    2  0.000  0.000  0.000  0.000
    3  0.000  0.000  0.000  0.000
    4  0.000  0.000  0.000  0.000
    5  0.000  0.000  0.000  0.000
    6  0.000  0.000  0.000  0.000
    7  0.000  0.000  0.000  0.000
    8  0.000  0.000  0.000  0.000
    9  0.000  0.000  0.000  0.000
   10  0.000  0.000  0.000  0.000
   11  0.000  0.000  0.000  0.000
   12  0.000  0.000  0.000  0.000
   13  0.000  0.000  0.000  0.000
   14  0.000  0.000  0.000  0.000
   15  0.000  0.000  0.000  0.000
   16  0.000  0.000  0.000  0.000
   17  0.000  0.000  0.000  0.000
   18  0.000  0.000  0.000  0.000
   19  0.000  0.000  0.000  0.000
   20  0.000  0.000  0.000  0.000
   21  0.000  0.000  0.000  0.000
   22  0.000  0.000  0.000  0.000
   23  0.000  0.000  0.000  0.000
   24  0.000  0.000  0.000  0.000
   25  0.000  0.000  0.000  0.000
   26  0.000  0.000  0.000  0.000
   27  0.000  0.000  0.000  0.000
   28  0.000  0.000  0.000  0.000
   29  0.000  0.000  0.000  0.000
   30  0.000  0.000  0.000  0.001
   31  0.000  0.000  0.000  0.000
   32  0.000  0.000  0.000  0.000
   33  0.000  0.000  0.000  0.001
   34  0.000  0.000  0.000  0.000
   35  0.000  0.000  0.000  0.000
   36  0.000  0.970  0.000  0.970
   37  0.000  0.000  0.000  0.000
tot    0.001  0.972  0.001  0.974
 
band     4 # energy  -31.21649495 # occ.  2.00000000
 
ion      s      p      d    tot
    1  0.000  0.000  0.000  0.000
    2  0.000  0.000  0.000  0.000
    3  0.000  0.000  0.000  0.000
    4  0.000  0.000  0.000  0.000
    5  0.000  0.000  0.000  0.000
    6  0.000  0.000  0.000  0.000
    7  0.000  0.000  0.000  0.000
    8  0.000  0.000  0.000  0.000
    9  0.000  0.000  0.000  0.000
   10  0.000  0.000  0.000  0.000
   11  0.000  0.000  0.000  0.000
   12  0.000  0.000  0.000  0.000
   13  0.000  0.000  0.000  0.000
   14  0.000  0.000  0.000  0.000
   15  0.000  0.000  0.000  0.000
   16  0.000  0.000  0.000  0.000
   17  0.000  0.000  0.000  0.000
   18  0.000  0.000  0.000  0.000
   19  0.000  0.000  0.000  0.000
   20  0.000  0.000  0.000  0.000
   21  0.000  0.000  0.000  0.000
   22  0.000  0.000  0.000  0.000
   23  0.000  0.000  0.000  0.000
   24  0.000  0.000  0.000  0.000
   25  0.000  0.000  0.000  0.000
   26  0.000  0.000  0.000  0.000
   27  0.000  0.000  0.000  0.000
   28  0.000  0.000  0.000  0.000
   29  0.000  0.000  0.000  0.001
   30  0.000  0.000  0.000  0.000
   31  0.000  0.000  0.000  0.001
   32  0.000  0.000  0.000  0.001
   33  0.000  0.000  0.000  0.000
   34  0.000  0.000  0.000  0.001
   35  0.000  0.000  0.000  0.000
   36  0.000  0.970  0.000  0.970
   37  0.000  0.000  0.000  0.000
tot    0.001  0.972  0.001  0.974
 
band     5 # energy  -17.17181463 # occ.  2.00000000
 
ion      s      p      d    tot
    1  0.000  0.000  0.000  0.000
    2  0.000  0.000  0.000  0.000
    3  0.000  0.000  0.000  0.000
    4  0.000  0.000  0.000  0.000
    5  0.000  0.000  0.000  0.000
    6  0.000  0.000  0.000  0.000
    7  0.000  0.000  0.000  0.000
    8  0.000  0.000  0.000  0.000
    9  0.000  0.000  0.000  0.000
   10  0.000  0.000  0.000  0.000
   11  0.000  0.000  0.000  0.000
   12  0.000  0.000  0.000  0.000
   13  0.000  0.000  0.000  0.000
   14  0.000  0.000  0.000  0.000
   15  0.000  0.000  0.000  0.000
   16  0.000  0.000  0.000  0.000
   17  0.000  0.000  0.000  0.000
   18  0.000  0.000  0.000  0.000
   19  0.000  0.000  0.000  0.000
   20  0.000  0.000  0.000  0.000
   21  0.000  0.000  0.000  0.000
   22  0.000  0.000  0.000  0.000
   23  0.000  0.000  0.000  0.000
   24  0.000  0.000  0.000  0.000
   25  0.000  0.000  0.000  0.000
   26  0.000  0.000  0.000  0.000
   27  0.000  0.000  0.000  0.000
   28  0.000  0.000  0.000  0.000
   29  0.000  0.000  0.000  0.000
   30  0.000  0.000  0.000  0.000
   31  0.000  0.000  0.000  0.000
   32  0.000  0.000  0.000  0.000
   33  0.000  0.000  0.000  0.000
   34  0.000  0.000  0.000  0.000
   35  0.000  0.000  0.000  0.000
   36  0.014  0.048  0.050  0.112
   37  0.752  0.005  0.000  0.757
tot    0.767  0.054  0.050  0.871
 
band     6 # energy   -8.73580139 # occ.  2.00000000
 
ion      s      p      d    tot
    1  0.007  0.001  0.000  0.007
    2  0.006  0.001  0.000  0.007
    3  0.006  0.001  0.000  0.007
    4  0.006  0.001  0.000  0.007
    5  0.006  0.001  0.000  0.007
    6  0.006  0.001  0.000  0.007
    7  0.006  0.001  0.000  0.007
    8  0.006  0.001  0.000  0.007
    9  0.006  0.001  0.000  0.007
   10  0.025  0.000  0.000  0.025
   11  0.024  0.000  0.000  0.024
   12  0.025  0.000  0.000  0.025
   13  0.024  0.000  0.000  0.024
   14  0.024  0.000  0.000  0.024
   15  0.024  0.000  0.000  0.024
   16  0.025  0.000  0.000  0.025
   17  0.024  0.000  0.000  0.024
   18  0.024  0.000  0.000  0.024
   19  0.025  0.000  0.000  0.026
   20  0.025  0.000  0.000  0.025
   21  0.025  0.000  0.000  0.025
   22  0.025  0.000  0.000  0.025
   23  0.025  0.000  0.000  0.025
   24  0.025  0.000  0.000  0.025
   25  0.026  0.000  0.000  0.026
   26  0.025  0.000  0.000  0.026
   27  0.025  0.000  0.000  0.025
   28  0.007  0.001  0.000  0.008
   29  0.007  0.001  0.000  0.008
   30  0.007  0.001  0.000  0.008
   31  0.007  0.001  0.000  0.008
   32  0.007  0.001  0.000  0.008
   33  0.007  0.001  0.000  0.008
   34  0.007  0.001  0.000  0.008
   35  0.007  0.001  0.000  0.008
   36  0.003  0.001  0.000  0.004
   37  0.000  0.000  0.000  0.001
tot    0.560  0.016  0.001  0.577
 
band     7 # energy   -7.44863233 # occ.  2.00000000
 
ion      s      p      d    tot
    1  0.018  0.001  0.000  0.019
    2  0.018  0.001  0.000  0.019
    3  0.018  0.001  0.000  0.019
    4  0.018  0.001  0.000  0.019
    5  0.018  0.001  0.000  0.019
    6  0.018  0.001  0.000  0.019
    7  0.018  0.001  0.000  0.019
    8  0.018  0.001  0.000  0.019
    9  0.018  0.001  0.000  0.019
   10  0.010  0.002  0.001  0.013
   11  0.011  0.002  0.001  0.013
   12  0.010  0.002  0.001  0.013
   13  0.011  0.002  0.001  0.013
   14  0.011  0.002  0.001  0.013
   15  0.010  0.002  0.001  0.013
   16  0.010  0.002  0.001  0.013
   17  0.010  0.002  0.001  0.013
   18  0.010  0.002  0.001  0.013
   19  0.010  0.002  0.000  0.013
   20  0.008  0.002  0.001  0.011
   21  0.008  0.002  0.001  0.011
   22  0.010  0.002  0.000  0.013
   23  0.008  0.002  0.001  0.011
   24  0.010  0.002  0.000  0.013
   25  0.010  0.002  0.000  0.013
   26  0.010  0.002  0.000  0.013
   27  0.010  0.002  0.000  0.013
   28  0.020  0.001  0.001  0.022
   29  0.019  0.001  0.001  0.021
   30  0.019  0.001  0.001  0.021
   31  0.019  0.001  0.001  0.021
   32  0.019  0.001  0.001  0.021
   33  0.019  0.001  0.001  0.021
   34  0.019  0.001  0.001  0.021
   35  0.020  0.001  0.001  0.021
   36  0.007  0.001  0.001  0.009
   37  0.000  0.000  0.000  0.001
tot    0.501  0.054  0.021  0.575
 
band     8 # energy   -5.91120064 # occ.  2.00000000
 
ion      s      p      d    tot
    1  0.014  0.000  0.004  0.018
    2  0.013  0.000  0.004  0.017
    3  0.013  0.000  0.004  0.017
    4  0.013  0.000  0.004  0.017
    5  0.006  0.000  0.005  0.011
    6  0.013  0.000  0.004  0.017
    7  0.013  0.000  0.004  0.017
    8  0.013  0.000  0.004  0.017
    9  0.022  0.000  0.003  0.025
   10  0.002  0.003  0.002  0.007
   11  0.010  0.005  0.001  0.015
   12  0.002  0.003  0.002  0.007
   13  0.010  0.005  0.001  0.015
   14  0.010  0.005  0.001  0.015
   15  0.000  0.002  0.003  0.005
   16  0.002  0.003  0.002  0.007
   17  0.000  0.002  0.003  0.005
   18  0.000  0.002  0.003  0.005
   19  0.001  0.002  0.006  0.010
   20  0.023  0.004  0.004  0.031
   21  0.023  0.004  0.004  0.031
   22  0.001  0.004  0.004  0.008
   23  0.023  0.004  0.004  0.031
   24  0.001  0.004  0.004  0.008
   25  0.001  0.002  0.006  0.010
   26  0.001  0.002  0.006  0.010
   27  0.001  0.004  0.004  0.008
   28  0.021  0.000  0.005  0.026
   29  0.016  0.000  0.008  0.025
   30  0.016  0.000  0.008  0.025
   31  0.016  0.000  0.008  0.025
   32  0.016  0.000  0.008  0.025
   33  0.016  0.000  0.008  0.025
   34  0.016  0.000  0.008  0.025
   35  0.026  0.000  0.006  0.032
   36  0.001  0.000  0.024  0.025
   37  0.000  0.008  0.000  0.008
tot    0.374  0.074  0.185  0.632
 
band     9 # energy   -5.78611716 # occ.  2.00000000
 
ion      s      p      d    tot
    1  0.000  0.003  0.005  0.007
    2  0.008  0.002  0.002  0.012
    3  0.003  0.001  0.002  0.006
    4  0.008  0.002  0.002  0.012
    5  0.000  0.001  0.002  0.003
    6  0.001  0.001  0.002  0.004
    7  0.003  0.001  0.002  0.006
    8  0.001  0.001  0.002  0.004
    9  0.000  0.000  0.003  0.003
   10  0.056  0.003  0.004  0.063
   11  0.003  0.009  0.003  0.015
   12  0.014  0.004  0.010  0.028
   13  0.003  0.009  0.003  0.015
   14  0.011  0.000  0.006  0.016
   15  0.004  0.002  0.009  0.016
   16  0.014  0.004  0.010  0.028
   17  0.004  0.002  0.009  0.016
   18  0.017  0.004  0.002  0.023
   19  0.012  0.009  0.006  0.026
   20  0.055  0.005  0.004  0.063
   21  0.014  0.001  0.016  0.031
   22  0.000  0.007  0.005  0.012
   23  0.014  0.001  0.016  0.031
   24  0.000  0.001  0.005  0.006
   25  0.047  0.001  0.007  0.055
   26  0.012  0.009  0.006  0.026
   27  0.000  0.008  0.005  0.012
   28  0.000  0.004  0.005  0.009
   29  0.011  0.003  0.004  0.017
   30  0.009  0.002  0.004  0.015
   31  0.011  0.003  0.004  0.017
   32  0.000  0.001  0.004  0.005
   33  0.009  0.002  0.004  0.015
   34  0.000  0.001  0.004  0.005
   35  0.000  0.000  0.003  0.003
   36  0.000  0.001  0.010  0.011
   37  0.000  0.001  0.000  0.001
tot    0.342  0.111  0.186  0.639
 
band    10 # energy   -5.78591481 # occ.  2.00000000
 
ion      s      p      d    tot
    1  0.000  0.003  0.005  0.007
    2  0.000  0.001  0.002  0.003
    3  0.005  0.002  0.002  0.008
    4  0.000  0.001  0.002  0.003
    5  0.000  0.001  0.002  0.003
    6  0.007  0.002  0.002  0.011
    7  0.005  0.002  0.002  0.008
    8  0.007  0.002  0.002  0.011
    9  0.000  0.000  0.003  0.003
   10  0.000  0.004  0.012  0.016
   11  0.008  0.003  0.005  0.016
   12  0.042  0.004  0.006  0.051
   13  0.008  0.003  0.005  0.016
   14  0.000  0.012  0.002  0.014
   15  0.013  0.003  0.004  0.021
   16  0.042  0.004  0.006  0.052
   17  0.013  0.003  0.005  0.021
   18  0.000  0.002  0.011  0.013
   19  0.035  0.004  0.006  0.045
   20  0.000  0.000  0.020  0.020
   21  0.041  0.003  0.008  0.052
   22  0.000  0.004  0.005  0.008
   23  0.041  0.003  0.008  0.052
   24  0.000  0.010  0.005  0.014
   25  0.000  0.011  0.005  0.017
   26  0.035  0.004  0.006  0.045
   27  0.000  0.003  0.005  0.008
   28  0.000  0.004  0.005  0.009
   29  0.003  0.001  0.004  0.008
   30  0.004  0.002  0.004  0.010
   31  0.003  0.001  0.004  0.008
   32  0.013  0.003  0.003  0.020
   33  0.004  0.002  0.004  0.010
   34  0.013  0.003  0.003  0.020
   35  0.000  0.000  0.003  0.003
   36  0.000  0.001  0.010  0.011
   37  0.000  0.001  0.000  0.001
tot    0.342  0.111  0.186  0.639
 
band    11 # energy   -5.75000384 # occ.  2.00000000
 
ion      s      p      d    tot
    1  0.000  0.000  0.002  0.002
    2  0.008  0.002  0.002  0.013
    3  0.004  0.001  0.002  0.007
    4  0.008  0.002  0.002  0.013
    5  0.000  0.002  0.005  0.006
    6  0.001  0.001  0.002  0.004
    7  0.004  0.001  0.002  0.007
    8  0.001  0.001  0.002  0.004
    9  0.000  0.003  0.004  0.006
   10  0.000  0.008  0.005  0.013
   11  0.035  0.003  0.006  0.044
   12  0.000  0.003  0.004  0.008
   13  0.035  0.003  0.006  0.044
   14  0.000  0.000  0.015  0.015
   15  0.028  0.003  0.006  0.037
   16  0.000  0.003  0.004  0.008
   17  0.028  0.003  0.006  0.037
   18  0.000  0.010  0.005  0.015
   19  0.015  0.004  0.005  0.023
   20  0.000  0.015  0.001  0.016
   21  0.011  0.004  0.006  0.021
   22  0.048  0.004  0.006  0.059
   23  0.011  0.004  0.006  0.021
   24  0.000  0.004  0.013  0.018
   25  0.000  0.003  0.014  0.016
   26  0.014  0.004  0.005  0.023
   27  0.049  0.004  0.006  0.059
   28  0.000  0.000  0.005  0.005
   29  0.012  0.003  0.003  0.018
   30  0.007  0.002  0.004  0.013
   31  0.012  0.003  0.003  0.018
   32  0.001  0.001  0.004  0.006
   33  0.006  0.002  0.004  0.013
   34  0.001  0.001  0.004  0.006
   35  0.000  0.004  0.006  0.010
   36  0.000  0.001  0.006  0.007
   37  0.000  0.001  0.000  0.001
tot    0.341  0.115  0.179  0.636
 
band    12 # energy   -5.74981733 # occ.  2.00000000
 
ion      s      p      d    tot
    1  0.000  0.000  0.002  0.002
    2  0.000  0.001  0.002  0.003
    3  0.005  0.002  0.002  0.009
    4  0.000  0.001  0.002  0.003
    5  0.000  0.002  0.005  0.006
    6  0.008  0.002  0.002  0.012
    7  0.005  0.002  0.002  0.009
    8  0.008  0.002  0.002  0.012
    9  0.000  0.003  0.004  0.006
   10  0.000  0.002  0.004  0.006
   11  0.012  0.001  0.012  0.025
   12  0.000  0.006  0.005  0.011
   13  0.012  0.001  0.012  0.025
   14  0.046  0.004  0.003  0.053
   15  0.009  0.008  0.005  0.022
   16  0.000  0.006  0.005  0.011
   17  0.009  0.008  0.005  0.022
   18  0.038  0.001  0.006  0.045
   19  0.005  0.003  0.011  0.019
   20  0.015  0.000  0.008  0.023
   21  0.004  0.011  0.002  0.017
   22  0.017  0.004  0.011  0.032
   23  0.004  0.011  0.002  0.017
   24  0.064  0.004  0.004  0.072
   25  0.019  0.004  0.002  0.025
   26  0.005  0.003  0.011  0.019
   27  0.016  0.004  0.011  0.032
   28  0.000  0.000  0.005  0.005
   29  0.001  0.001  0.004  0.006
   30  0.007  0.002  0.003  0.011
   31  0.001  0.001  0.004  0.006
   32  0.012  0.003  0.004  0.019
   33  0.007  0.002  0.003  0.012
   34  0.012  0.003  0.004  0.019
   35  0.000  0.004  0.006  0.010
   36  0.000  0.001  0.006  0.007
   37  0.000  0.001  0.000  0.001
tot    0.341  0.115  0.179  0.636
 
band    13 # energy   -5.74492454 # occ.  2.00000000
 
ion      s      p      d    tot
    1  0.019  0.003  0.001  0.023
    2  0.000  0.002  0.004  0.005
    3  0.000  0.002  0.004  0.005
    4  0.000  0.002  0.004  0.005
    5  0.003  0.001  0.000  0.004
    6  0.000  0.002  0.004  0.005
    7  0.000  0.002  0.004  0.005
    8  0.000  0.002  0.004  0.005
    9  0.007  0.001  0.000  0.009
   10  0.031  0.006  0.005  0.042
   11  0.007  0.000  0.011  0.018
   12  0.030  0.007  0.005  0.042
   13  0.007  0.000  0.011  0.018
   14  0.007  0.000  0.011  0.019
   15  0.008  0.007  0.004  0.020
   16  0.030  0.007  0.005  0.042
   17  0.008  0.007  0.004  0.020
   18  0.008  0.007  0.004  0.019
   19  0.025  0.010  0.002  0.037
   20  0.000  0.003  0.010  0.014
   21  0.000  0.003  0.011  0.014
   22  0.022  0.002  0.010  0.033
   23  0.000  0.003  0.011  0.014
   24  0.023  0.001  0.010  0.035
   25  0.026  0.009  0.002  0.038
   26  0.025  0.010  0.002  0.037
   27  0.022  0.002  0.010  0.033
   28  0.020  0.003  0.001  0.023
   29  0.000  0.002  0.005  0.007
   30  0.000  0.002  0.005  0.007
   31  0.000  0.002  0.005  0.007
   32  0.000  0.002  0.005  0.007
   33  0.000  0.002  0.005  0.007
   34  0.000  0.002  0.005  0.007
   35  0.014  0.002  0.001  0.017
   36  0.000  0.000  0.000  0.000
   37  0.000  0.000  0.000  0.000
tot    0.344  0.114  0.183  0.640
 
band    14 # energy   -5.67201894 # occ.  2.00000000
 
ion      s      p      d    tot
    1  0.001  0.000  0.001  0.002
    2  0.003  0.002  0.005  0.010
    3  0.003  0.002  0.005  0.010
    4  0.003  0.002  0.005  0.010
    5  0.035  0.002  0.000  0.038
    6  0.003  0.002  0.005  0.010
    7  0.003  0.002  0.005  0.010
    8  0.003  0.002  0.005  0.010
    9  0.003  0.002  0.004  0.010
   10  0.002  0.003  0.009  0.014
   11  0.015  0.009  0.004  0.028
   12  0.002  0.003  0.009  0.014
   13  0.015  0.009  0.004  0.028
   14  0.015  0.009  0.004  0.028
   15  0.030  0.003  0.009  0.041
   16  0.002  0.003  0.009  0.014
   17  0.030  0.003  0.009  0.041
   18  0.030  0.003  0.009  0.041
   19  0.007  0.002  0.009  0.018
   20  0.018  0.004  0.007  0.029
   21  0.018  0.004  0.007  0.029
   22  0.012  0.007  0.003  0.023
   23  0.018  0.004  0.007  0.029
   24  0.012  0.007  0.003  0.023
   25  0.007  0.002  0.009  0.018
   26  0.007  0.002  0.009  0.018
   27  0.012  0.007  0.003  0.023
   28  0.001  0.000  0.003  0.005
   29  0.003  0.001  0.004  0.008
   30  0.003  0.001  0.004  0.008
   31  0.003  0.001  0.004  0.008
   32  0.003  0.001  0.004  0.008
   33  0.003  0.001  0.004  0.008
   34  0.003  0.001  0.004  0.008
   35  0.000  0.001  0.002  0.004
   36  0.010  0.001  0.000  0.012
   37  0.001  0.003  0.000  0.004
tot    0.339  0.108  0.191  0.639
 
band    15 # energy   -5.07436046 # occ.  2.00000000
 
ion      s      p      d    tot
    1  0.010  0.000  0.009  0.020
    2  0.006  0.001  0.010  0.018
    3  0.006  0.001  0.010  0.018
    4  0.006  0.001  0.010  0.018
    5  0.000  0.002  0.011  0.013
    6  0.006  0.001  0.010  0.018
    7  0.006  0.001  0.010  0.018
    8  0.006  0.001  0.010  0.018
    9  0.019  0.000  0.007  0.026
   10  0.006  0.000  0.024  0.031
   11  0.017  0.001  0.019  0.036
   12  0.006  0.000  0.024  0.031
   13  0.017  0.001  0.019  0.036
   14  0.017  0.001  0.019  0.036
   15  0.001  0.001  0.020  0.022
   16  0.006  0.000  0.024  0.031
   17  0.001  0.001  0.020  0.022
   18  0.001  0.001  0.020  0.022
   19  0.002  0.000  0.014  0.016
   20  0.009  0.002  0.027  0.038
   21  0.009  0.002  0.027  0.038
   22  0.002  0.000  0.015  0.018
   23  0.009  0.002  0.027  0.038
   24  0.002  0.000  0.015  0.018
   25  0.002  0.000  0.014  0.016
   26  0.002  0.000  0.014  0.016
   27  0.002  0.000  0.015  0.018
   28  0.002  0.000  0.004  0.006
   29  0.002  0.000  0.006  0.009
   30  0.002  0.000  0.006  0.009
   31  0.002  0.000  0.006  0.009
   32  0.002  0.000  0.006  0.009
   33  0.002  0.000  0.006  0.009
   34  0.002  0.000  0.006  0.009
   35  0.005  0.000  0.004  0.009
   36  0.001  0.000  0.026  0.027
   37  0.001  0.020  0.000  0.022
tot    0.203  0.042  0.520  0.765
 
band    16 # energy   -5.05958309 # occ.  2.00000000
 
ion      s      p      d    tot
    1  0.000  0.003  0.009  0.012
    2  0.018  0.003  0.005  0.026
    3  0.001  0.002  0.004  0.007
    4  0.017  0.003  0.005  0.025
    5  0.000  0.000  0.009  0.009
    6  0.010  0.003  0.005  0.018
    7  0.001  0.002  0.004  0.007
    8  0.011  0.003  0.005  0.018
    9  0.000  0.005  0.008  0.013
   10  0.000  0.005  0.013  0.019
   11  0.005  0.002  0.009  0.016
   12  0.006  0.002  0.008  0.016
   13  0.005  0.002  0.008  0.016
   14  0.000  0.002  0.015  0.017
   15  0.022  0.003  0.008  0.033
   16  0.006  0.002  0.008  0.016
   17  0.022  0.003  0.008  0.034
   18  0.000  0.001  0.020  0.021
   19  0.006  0.005  0.010  0.020
   20  0.000  0.002  0.021  0.023
   21  0.000  0.001  0.013  0.014
   22  0.006  0.003  0.009  0.019
   23  0.000  0.001  0.013  0.014
   24  0.000  0.001  0.030  0.031
   25  0.000  0.000  0.010  0.010
   26  0.006  0.005  0.010  0.021
   27  0.006  0.003  0.009  0.019
   28  0.000  0.004  0.008  0.012
   29  0.024  0.003  0.010  0.037
   30  0.000  0.002  0.010  0.012
   31  0.023  0.003  0.010  0.036
   32  0.017  0.002  0.011  0.030
   33  0.001  0.002  0.010  0.012
   34  0.017  0.002  0.011  0.030
   35  0.000  0.006  0.009  0.015
   36  0.000  0.000  0.019  0.019
   37  0.000  0.001  0.000  0.001
tot    0.232  0.091  0.374  0.697
 
band    17 # energy   -5.05957381 # occ.  2.00000000
 
ion      s      p      d    tot
    1  0.000  0.003  0.009  0.012
    2  0.002  0.002  0.005  0.008
    3  0.018  0.004  0.005  0.027
    4  0.002  0.002  0.005  0.008
    5  0.000  0.000  0.009  0.009
    6  0.009  0.002  0.004  0.016
    7  0.018  0.004  0.005  0.027
    8  0.009  0.002  0.004  0.015
    9  0.000  0.005  0.008  0.013
   10  0.008  0.000  0.007  0.015
   11  0.002  0.002  0.013  0.017
   12  0.002  0.004  0.012  0.018
   13  0.002  0.002  0.013  0.017
   14  0.007  0.002  0.006  0.015
   15  0.008  0.002  0.016  0.025
   16  0.002  0.004  0.012  0.018
   17  0.007  0.002  0.016  0.025
   18  0.029  0.004  0.004  0.038
   19  0.002  0.002  0.010  0.014
   20  0.000  0.000  0.010  0.011
   21  0.000  0.002  0.018  0.020
   22  0.002  0.002  0.023  0.027
   23  0.000  0.002  0.018  0.020
   24  0.008  0.004  0.002  0.015
   25  0.008  0.006  0.010  0.024
   26  0.002  0.002  0.010  0.013
   27  0.002  0.002  0.023  0.027
   28  0.000  0.004  0.008  0.012
   29  0.004  0.002  0.010  0.016
   30  0.027  0.003  0.010  0.040
   31  0.004  0.002  0.010  0.016
   32  0.011  0.003  0.010  0.023
   33  0.027  0.003  0.010  0.040
   34  0.010  0.003  0.010  0.022
   35  0.000  0.006  0.009  0.015
   36  0.000  0.000  0.019  0.019
   37  0.000  0.001  0.000  0.001
tot    0.232  0.091  0.374  0.697
 
band    18 # energy   -5.00575647 # occ.  2.00000000
 
ion      s      p      d    tot
    1  0.000  0.003  0.009  0.012
    2  0.021  0.004  0.005  0.030
    3  0.001  0.002  0.005  0.008
    4  0.020  0.004  0.005  0.029
    5  0.000  0.006  0.010  0.016
    6  0.010  0.003  0.005  0.018
    7  0.002  0.002  0.005  0.009
    8  0.011  0.003  0.005  0.020
    9  0.000  0.000  0.012  0.012
   10  0.021  0.005  0.007  0.033
   11  0.006  0.003  0.019  0.027
   12  0.005  0.001  0.018  0.024
   13  0.004  0.003  0.020  0.027
   14  0.020  0.003  0.005  0.029
   15  0.000  0.003  0.013  0.016
   16  0.006  0.001  0.017  0.024
   17  0.000  0.003  0.014  0.017
   18  0.000  0.000  0.008  0.009
   19  0.001  0.002  0.019  0.022
   20  0.017  0.006  0.005  0.029
   21  0.004  0.002  0.026  0.032
   22  0.001  0.001  0.010  0.013
   23  0.005  0.002  0.025  0.032
   24  0.005  0.003  0.011  0.019
   25  0.003  0.001  0.005  0.009
   26  0.001  0.002  0.020  0.023
   27  0.001  0.002  0.011  0.013
   28  0.000  0.002  0.011  0.013
   29  0.016  0.004  0.007  0.027
   30  0.001  0.001  0.006  0.007
   31  0.015  0.003  0.007  0.026
   32  0.009  0.003  0.008  0.019
   33  0.001  0.001  0.006  0.008
   34  0.010  0.003  0.008  0.021
   35  0.000  0.000  0.010  0.011
   36  0.000  0.002  0.014  0.017
   37  0.000  0.004  0.000  0.004
tot    0.217  0.093  0.394  0.703
 
band    19 # energy   -5.00573864 # occ.  2.00000000
 
ion      s      p      d    tot
    1  0.000  0.003  0.009  0.012
    2  0.001  0.002  0.005  0.008
    3  0.021  0.004  0.006  0.030
    4  0.002  0.002  0.005  0.009
    5  0.000  0.006  0.010  0.016
    6  0.012  0.003  0.005  0.020
    7  0.020  0.004  0.006  0.029
    8  0.010  0.003  0.005  0.018
    9  0.000  0.000  0.012  0.012
   10  0.000  0.000  0.021  0.021
   11  0.015  0.003  0.010  0.028
   12  0.017  0.004  0.010  0.030
   13  0.016  0.003  0.009  0.028
   14  0.000  0.003  0.024  0.027
   15  0.000  0.001  0.010  0.012
   16  0.015  0.003  0.011  0.030
   17  0.000  0.001  0.010  0.011
   18  0.000  0.004  0.015  0.019
   19  0.002  0.001  0.011  0.014
   20  0.000  0.001  0.032  0.033
   21  0.014  0.005  0.011  0.030
   22  0.004  0.002  0.011  0.017
   23  0.013  0.005  0.013  0.030
   24  0.000  0.001  0.010  0.011
   25  0.000  0.002  0.025  0.027
   26  0.002  0.001  0.009  0.013
   27  0.003  0.002  0.011  0.017
   28  0.000  0.002  0.011  0.013
   29  0.001  0.001  0.007  0.009
   30  0.017  0.004  0.008  0.029
   31  0.002  0.002  0.007  0.010
   32  0.008  0.002  0.006  0.017
   33  0.016  0.004  0.008  0.028
   34  0.007  0.002  0.006  0.015
   35  0.000  0.000  0.010  0.011
   36  0.000  0.002  0.014  0.017
   37  0.000  0.004  0.000  0.004
tot    0.217  0.093  0.394  0.703
 
band    20 # energy   -4.99202206 # occ.  2.00000000
 
ion      s      p      d    tot
    1  0.033  0.003  0.000  0.036
    2  0.000  0.003  0.010  0.013
    3  0.000  0.003  0.010  0.013
    4  0.000  0.003  0.010  0.013
    5  0.000  0.000  0.000  0.001
    6  0.000  0.003  0.010  0.013
    7  0.000  0.003  0.010  0.013
    8  0.000  0.003  0.010  0.013
    9  0.028  0.004  0.001  0.033
   10  0.010  0.003  0.010  0.023
   11  0.001  0.000  0.015  0.016
   12  0.010  0.003  0.010  0.023
   13  0.001  0.000  0.015  0.016
   14  0.001  0.000  0.015  0.016
   15  0.008  0.004  0.014  0.026
   16  0.010  0.003  0.010  0.023
   17  0.008  0.004  0.014  0.026
   18  0.008  0.004  0.014  0.026
   19  0.004  0.003  0.020  0.027
   20  0.000  0.000  0.015  0.015
   21  0.000  0.000  0.015  0.015
   22  0.010  0.003  0.009  0.022
   23  0.000  0.000  0.015  0.015
   24  0.010  0.004  0.009  0.022
   25  0.004  0.003  0.020  0.027
   26  0.004  0.003  0.020  0.027
   27  0.010  0.003  0.009  0.022
   28  0.038  0.003  0.000  0.041
   29  0.000  0.003  0.013  0.017
   30  0.000  0.003  0.013  0.017
   31  0.000  0.003  0.013  0.017
   32  0.000  0.003  0.013  0.017
   33  0.000  0.003  0.013  0.017
   34  0.000  0.003  0.013  0.017
   35  0.029  0.003  0.000  0.033
   36  0.000  0.000  0.000  0.000
   37  0.000  0.000  0.000  0.000
tot    0.225  0.092  0.389  0.705
 
band    21 # energy   -4.85743695 # occ.  2.00000000
 
ion      s      p      d    tot
    1  0.009  0.002  0.001  0.012
    2  0.000  0.003  0.010  0.013
    3  0.000  0.003  0.010  0.013
    4  0.000  0.003  0.010  0.013
    5  0.044  0.003  0.000  0.047
    6  0.000  0.003  0.010  0.013
    7  0.000  0.003  0.010  0.013
    8  0.000  0.003  0.010  0.013
    9  0.003  0.001  0.002  0.006
   10  0.003  0.001  0.022  0.026
   11  0.003  0.003  0.018  0.024
   12  0.003  0.001  0.022  0.026
   13  0.003  0.003  0.018  0.024
   14  0.003  0.003  0.018  0.024
   15  0.006  0.001  0.012  0.019
   16  0.003  0.001  0.022  0.026
   17  0.006  0.001  0.012  0.019
   18  0.006  0.001  0.012  0.019
   19  0.012  0.001  0.020  0.033
   20  0.006  0.004  0.015  0.024
   21  0.006  0.004  0.015  0.024
   22  0.003  0.001  0.018  0.023
   23  0.006  0.004  0.015  0.024
   24  0.003  0.001  0.018  0.023
   25  0.012  0.001  0.020  0.033
   26  0.012  0.001  0.020  0.033
   27  0.003  0.001  0.018  0.023
   28  0.001  0.002  0.007  0.010
   29  0.002  0.001  0.011  0.014
   30  0.002  0.001  0.011  0.014
   31  0.002  0.001  0.011  0.014
   32  0.002  0.001  0.011  0.014
   33  0.002  0.001  0.011  0.014
   34  0.002  0.001  0.011  0.014
   35  0.001  0.001  0.004  0.006
   36  0.019  0.002  0.002  0.022