PROCAR new format
# of k-points:   10         # of bands:  252         # of ions:   38

 k-point     1 :    0.00000000 0.00000000 0.00000000     weight = 0.01562500

band     1 # energy  -22.36785880 # occ.  2.00000000
 
ion      s      p      d    tot
    1  0.000  0.000  0.000  0.000
    2  0.000  0.000  0.000  0.000
    3  0.000  0.000  0.000  0.000
    4  0.000  0.000  0.000  0.000
    5  0.000  0.000  0.000  0.000
    6  0.000  0.000  0.000  0.000
    7  0.000  0.000  0.000  0.000
    8  0.000  0.000  0.000  0.000
    9  0.000  0.000  0.000  0.000
   10  0.000  0.000  0.000  0.000
   11  0.000  0.000  0.000  0.000
   12  0.000  0.000  0.000  0.000
   13  0.000  0.000  0.000  0.000
   14  0.000  0.000  0.000  0.000
   15  0.000  0.000  0.000  0.000
   16  0.000  0.000  0.000  0.000
   17  0.000  0.000  0.000  0.000
   18  0.000  0.000  0.000  0.000
   19  0.000  0.000  0.000  0.000
   20  0.000  0.000  0.000  0.000
   21  0.000  0.000  0.000  0.000
   22  0.000  0.000  0.000  0.000
   23  0.000  0.000  0.000  0.000
   24  0.000  0.000  0.000  0.000
   25  0.000  0.000  0.000  0.000
   26  0.000  0.000  0.000  0.000
   27  0.000  0.000  0.000  0.000
   28  0.000  0.000  0.000  0.000
   29  0.000  0.000  0.000  0.000
   30  0.000  0.000  0.000  0.000
   31  0.000  0.000  0.000  0.000
   32  0.000  0.000  0.000  0.000
   33  0.000  0.000  0.000  0.000
   34  0.000  0.000  0.000  0.000
   35  0.000  0.000  0.000  0.000
   36  0.000  0.000  0.000  0.000
   37  0.153  0.110  0.000  0.263
   38  0.638  0.090  0.000  0.728
tot    0.790  0.200  0.000  0.991
 
band     2 # energy   -8.32108456 # occ.  2.00000000
 
ion      s      p      d    tot
    1  0.000  0.000  0.000  0.000
    2  0.000  0.000  0.000  0.000
    3  0.000  0.000  0.000  0.000
    4  0.000  0.000  0.000  0.000
    5  0.000  0.000  0.000  0.000
    6  0.000  0.000  0.000  0.000
    7  0.000  0.000  0.000  0.000
    8  0.000  0.000  0.000  0.000
    9  0.000  0.000  0.000  0.000
   10  0.000  0.000  0.000  0.000
   11  0.000  0.000  0.000  0.000
   12  0.000  0.000  0.000  0.000
   13  0.000  0.000  0.000  0.000
   14  0.000  0.000  0.000  0.000
   15  0.000  0.000  0.000  0.000
   16  0.000  0.000  0.000  0.000
   17  0.000  0.000  0.000  0.000
   18  0.000  0.000  0.000  0.000
   19  0.000  0.000  0.000  0.000
   20  0.001  0.000  0.001  0.001
   21  0.001  0.000  0.001  0.001
   22  0.000  0.000  0.000  0.000
   23  0.001  0.000  0.001  0.001
   24  0.000  0.000  0.000  0.000
   25  0.000  0.000  0.000  0.000
   26  0.000  0.000  0.000  0.000
   27  0.000  0.000  0.000  0.000
   28  0.000  0.000  0.000  0.000
   29  0.001  0.000  0.001  0.002
   30  0.001  0.000  0.001  0.002
   31  0.001  0.000  0.001  0.002
   32  0.001  0.000  0.001  0.002
   33  0.001  0.000  0.001  0.002
   34  0.001  0.000  0.001  0.002
   35  0.000  0.000  0.000  0.000
   36  0.047  0.027  0.039  0.113
   37  0.275  0.004  0.000  0.279
   38  0.141  0.219  0.000  0.360
tot    0.474  0.251  0.047  0.772
 
band     3 # energy   -7.00361965 # occ.  2.00000000
 
ion      s      p      d    tot
    1  0.006  0.001  0.000  0.007
    2  0.006  0.001  0.000  0.007
    3  0.006  0.001  0.000  0.007
    4  0.006  0.001  0.000  0.007
    5  0.006  0.001  0.000  0.007
    6  0.006  0.001  0.000  0.007
    7  0.006  0.001  0.000  0.007
    8  0.006  0.001  0.000  0.007
    9  0.006  0.001  0.000  0.006
   10  0.023  0.000  0.000  0.024
   11  0.024  0.000  0.000  0.024
   12  0.023  0.000  0.000  0.024
   13  0.024  0.000  0.000  0.024
   14  0.024  0.000  0.000  0.024
   15  0.023  0.000  0.000  0.023
   16  0.023  0.000  0.000  0.024
   17  0.023  0.000  0.000  0.023
   18  0.023  0.000  0.000  0.023
   19  0.022  0.000  0.000  0.023
   20  0.024  0.000  0.000  0.025
   21  0.024  0.000  0.000  0.025
   22  0.022  0.000  0.000  0.023
   23  0.024  0.000  0.000  0.025
   24  0.022  0.000  0.000  0.023
   25  0.022  0.000  0.000  0.023
   26  0.022  0.000  0.000  0.023
   27  0.022  0.000  0.000  0.023
   28  0.005  0.001  0.000  0.006
   29  0.005  0.001  0.000  0.006
   30  0.005  0.001  0.000  0.006
   31  0.005  0.001  0.000  0.006
   32  0.005  0.001  0.000  0.006
   33  0.005  0.001  0.000  0.006
   34  0.005  0.001  0.000  0.006
   35  0.005  0.001  0.000  0.006
   36  0.006  0.001  0.000  0.007
   37  0.002  0.002  0.000  0.003
   38  0.003  0.011  0.000  0.013
tot    0.518  0.026  0.007  0.551
 
band     4 # energy   -6.16478251 # occ.  2.00000000
 
ion      s      p      d    tot
    1  0.007  0.000  0.000  0.008
    2  0.008  0.000  0.000  0.009
    3  0.008  0.000  0.000  0.009
    4  0.008  0.000  0.000  0.009
    5  0.008  0.000  0.000  0.009
    6  0.008  0.000  0.000  0.009
    7  0.008  0.000  0.000  0.009
    8  0.008  0.000  0.000  0.009
    9  0.008  0.000  0.000  0.009
   10  0.010  0.001  0.014  0.025
   11  0.011  0.001  0.012  0.024
   12  0.010  0.001  0.014  0.025
   13  0.011  0.001  0.012  0.024
   14  0.011  0.001  0.012  0.024
   15  0.012  0.001  0.011  0.024
   16  0.010  0.001  0.014  0.025
   17  0.012  0.001  0.011  0.024
   18  0.012  0.001  0.011  0.024
   19  0.009  0.001  0.013  0.022
   20  0.013  0.001  0.016  0.030
   21  0.013  0.001  0.016  0.030
   22  0.008  0.001  0.012  0.020
   23  0.013  0.001  0.016  0.030
   24  0.008  0.001  0.012  0.020
   25  0.009  0.001  0.013  0.022
   26  0.009  0.001  0.013  0.022
   27  0.008  0.001  0.012  0.020
   28  0.006  0.000  0.000  0.007
   29  0.007  0.000  0.000  0.008
   30  0.007  0.000  0.000  0.008
   31  0.007  0.000  0.000  0.008
   32  0.007  0.000  0.000  0.008
   33  0.007  0.000  0.000  0.008
   34  0.007  0.000  0.000  0.008
   35  0.006  0.000  0.000  0.006
   36  0.021  0.000  0.004  0.025
   37  0.000  0.018  0.000  0.018
   38  0.005  0.038  0.000  0.043
tot    0.340  0.080  0.243  0.663
 
band     5 # energy   -5.90381664 # occ.  2.00000000
 
ion      s      p      d    tot
    1  0.001  0.000  0.010  0.011
    2  0.003  0.000  0.006  0.009
    3  0.003  0.000  0.006  0.009
    4  0.003  0.000  0.006  0.009
    5  0.004  0.000  0.004  0.008
    6  0.003  0.000  0.006  0.009
    7  0.003  0.000  0.006  0.009
    8  0.003  0.000  0.006  0.009
    9  0.005  0.000  0.005  0.010
   10  0.003  0.000  0.012  0.015
   11  0.000  0.000  0.020  0.021
   12  0.003  0.000  0.012  0.015
   13  0.000  0.000  0.020  0.021
   14  0.000  0.000  0.020  0.021
   15  0.000  0.000  0.016  0.016
   16  0.003  0.000  0.012  0.015
   17  0.000  0.000  0.016  0.016
   18  0.000  0.000  0.016  0.016
   19  0.002  0.000  0.020  0.022
   20  0.000  0.000  0.045  0.046
   21  0.000  0.000  0.045  0.046
   22  0.007  0.000  0.017  0.024
   23  0.000  0.000  0.045  0.046
   24  0.007  0.000  0.017  0.024
   25  0.002  0.000  0.020  0.022
   26  0.002  0.000  0.020  0.022
   27  0.007  0.000  0.017  0.024
   28  0.001  0.000  0.012  0.013
   29  0.004  0.000  0.011  0.016
   30  0.004  0.000  0.011  0.016
   31  0.004  0.000  0.011  0.016
   32  0.004  0.000  0.011  0.016
   33  0.004  0.000  0.011  0.016
   34  0.004  0.000  0.011  0.016
   35  0.001  0.000  0.011  0.012
   36  0.042  0.003  0.009  0.053
   37  0.001  0.046  0.000  0.048
   38  0.008  0.079  0.000  0.086
tot    0.143  0.132  0.545  0.820
 
band     6 # energy   -5.79893789 # occ.  2.00000000
 
ion      s      p      d    tot
    1  0.025  0.001  0.012  0.038
    2  0.012  0.000  0.022  0.034
    3  0.012  0.000  0.022  0.034
    4  0.012  0.000  0.022  0.034
    5  0.008  0.000  0.025  0.033
    6  0.012  0.000  0.022  0.034
    7  0.012  0.000  0.022  0.034
    8  0.012  0.000  0.022  0.034
    9  0.008  0.000  0.023  0.031
   10  0.001  0.000  0.033  0.035
   11  0.001  0.001  0.014  0.015
   12  0.001  0.000  0.033  0.035
   13  0.001  0.001  0.014  0.015
   14  0.001  0.001  0.014  0.015
   15  0.005  0.001  0.007  0.013
   16  0.001  0.000  0.033  0.035
   17  0.005  0.001  0.007  0.013
   18  0.005  0.001  0.007  0.013
   19  0.000  0.000  0.014  0.014
   20  0.001  0.000  0.035  0.036
   21  0.001  0.000  0.035  0.036
   22  0.009  0.000  0.001  0.011
   23  0.001  0.000  0.035  0.036
   24  0.009  0.000  0.001  0.011
   25  0.000  0.000  0.014  0.014
   26  0.000  0.000  0.014  0.014
   27  0.009  0.000  0.001  0.011
   28  0.002  0.000  0.000  0.002
   29  0.001  0.000  0.004  0.005
   30  0.001  0.000  0.004  0.005
   31  0.001  0.000  0.004  0.005
   32  0.001  0.000  0.004  0.005
   33  0.001  0.000  0.004  0.005
   34  0.001  0.000  0.004  0.005
   35  0.005  0.001  0.000  0.006
   36  0.010  0.000  0.009  0.020
   37  0.001  0.014  0.000  0.014
   38  0.002  0.020  0.000  0.022
tot    0.187  0.045  0.542  0.775
 
band     7 # energy   -5.72912787 # occ.  2.00000000
 
ion      s      p      d    tot
    1  0.000  0.000  0.006  0.006
    2  0.000  0.000  0.002  0.002
    3  0.001  0.000  0.003  0.004
    4  0.000  0.000  0.002  0.002
    5  0.000  0.000  0.002  0.002
    6  0.001  0.000  0.004  0.005
    7  0.001  0.000  0.003  0.004
    8  0.001  0.000  0.004  0.005
    9  0.000  0.000  0.006  0.006
   10  0.000  0.001  0.015  0.016
   11  0.001  0.000  0.028  0.029
   12  0.008  0.001  0.026  0.034
   13  0.001  0.000  0.029  0.030
   14  0.000  0.000  0.050  0.050
   15  0.013  0.001  0.018  0.032
   16  0.008  0.001  0.026  0.035
   17  0.012  0.001  0.019  0.032
   18  0.000  0.000  0.047  0.047
   19  0.019  0.001  0.027  0.047
   20  0.000  0.000  0.108  0.108
   21  0.007  0.000  0.040  0.047
   22  0.003  0.001  0.031  0.035
   23  0.007  0.000  0.037  0.044
   24  0.000  0.002  0.018  0.020
   25  0.000  0.001  0.050  0.051
   26  0.018  0.001  0.028  0.047
   27  0.003  0.001  0.032  0.035
   28  0.000  0.000  0.006  0.007
   29  0.001  0.000  0.005  0.006
   30  0.000  0.000  0.002  0.003
   31  0.001  0.000  0.005  0.006
   32  0.000  0.000  0.003  0.003
   33  0.000  0.000  0.002  0.003
   34  0.000  0.000  0.003  0.003
   35  0.000  0.000  0.001  0.001
   36  0.000  0.000  0.002  0.002
   37  0.000  0.001  0.000  0.001
   38  0.000  0.003  0.000  0.003
tot    0.104  0.018  0.691  0.812
 
band     8 # energy   -5.72912180 # occ.  2.00000000
 
ion      s      p      d    tot
    1  0.000  0.000  0.006  0.006
    2  0.001  0.000  0.004  0.005
    3  0.000  0.000  0.003  0.004
    4  0.001  0.000  0.004  0.005
    5  0.000  0.000  0.002  0.002
    6  0.000  0.000  0.002  0.003
    7  0.000  0.000  0.003  0.003
    8  0.000  0.000  0.002  0.003
    9  0.000  0.000  0.006  0.006
   10  0.011  0.000  0.030  0.041
   11  0.000  0.000  0.043  0.044
   12  0.003  0.001  0.019  0.023
   13  0.000  0.000  0.042  0.043
   14  0.001  0.000  0.021  0.022
   15  0.004  0.000  0.038  0.042
   16  0.002  0.001  0.018  0.022
   17  0.004  0.000  0.037  0.042
   18  0.017  0.001  0.009  0.027
   19  0.006  0.001  0.043  0.050
   20  0.009  0.000  0.015  0.025
   21  0.002  0.000  0.083  0.086
   22  0.001  0.001  0.023  0.025
   23  0.002  0.000  0.086  0.088
   24  0.004  0.000  0.036  0.040
   25  0.024  0.001  0.021  0.046
   26  0.007  0.001  0.042  0.049
   27  0.001  0.001  0.022  0.024
   28  0.000  0.000  0.006  0.007
   29  0.000  0.000  0.002  0.002
   30  0.001  0.000  0.004  0.006
   31  0.000  0.000  0.002  0.002
   32  0.001  0.000  0.004  0.005
   33  0.001  0.000  0.005  0.006
   34  0.001  0.000  0.004  0.005
   35  0.000  0.000  0.001  0.001
   36  0.000  0.000  0.002  0.002
   37  0.000  0.001  0.000  0.001
   38  0.000  0.003  0.000  0.003
tot    0.104  0.018  0.691  0.812
 
band     9 # energy   -5.72603967 # occ.  2.00000000
 
ion      s      p      d    tot
    1  0.000  0.000  0.000  0.001
    2  0.000  0.000  0.005  0.005
    3  0.000  0.000  0.005  0.006
    4  0.000  0.000  0.005  0.005
    5  0.003  0.001  0.005  0.008
    6  0.000  0.000  0.005  0.005
    7  0.000  0.000  0.005  0.006
    8  0.000  0.000  0.005  0.005
    9  0.002  0.000  0.003  0.006
   10  0.005  0.001  0.008  0.014
   11  0.015  0.001  0.037  0.053
   12  0.005  0.001  0.008  0.014
   13  0.015  0.001  0.037  0.053
   14  0.015  0.001  0.037  0.053
   15  0.002  0.000  0.058  0.060
   16  0.005  0.001  0.008  0.014
   17  0.002  0.000  0.058  0.060
   18  0.002  0.000  0.058  0.060
   19  0.008  0.000  0.041  0.049
   20  0.009  0.001  0.017  0.027
   21  0.008  0.001  0.017  0.027
   22  0.000  0.000  0.036  0.037
   23  0.008  0.001  0.017  0.027
   24  0.000  0.000  0.036  0.036
   25  0.008  0.000  0.040  0.049
   26  0.008  0.000  0.041  0.049
   27  0.000  0.000  0.036  0.037
   28  0.003  0.001  0.004  0.008
   29  0.000  0.000  0.004  0.004
   30  0.000  0.000  0.004  0.004
   31  0.000  0.000  0.004  0.004
   32  0.000  0.000  0.004  0.004
   33  0.000  0.000  0.004  0.004
   34  0.000  0.000  0.004  0.004
   35  0.001  0.000  0.003  0.003
   36  0.000  0.000  0.000  0.000
   37  0.000  0.000  0.000  0.000
   38  0.000  0.001  0.000  0.001
tot    0.124  0.018  0.660  0.802
 
band    10 # energy   -5.72423238 # occ.  2.00000000
 
ion      s      p      d    tot
    1  0.000  0.000  0.005  0.005
    2  0.000  0.000  0.002  0.003
    3  0.001  0.000  0.005  0.007
    4  0.000  0.000  0.002  0.003
    5  0.000  0.000  0.010  0.010
    6  0.002  0.001  0.005  0.008
    7  0.001  0.000  0.005  0.006
    8  0.002  0.001  0.005  0.007
    9  0.000  0.000  0.001  0.001
   10  0.010  0.001  0.008  0.019
   11  0.009  0.001  0.045  0.054
   12  0.002  0.000  0.067  0.069
   13  0.006  0.001  0.048  0.055
   14  0.030  0.001  0.018  0.048
   15  0.001  0.001  0.018  0.020
   16  0.003  0.000  0.061  0.064
   17  0.001  0.001  0.016  0.018
   18  0.004  0.000  0.034  0.038
   19  0.000  0.001  0.024  0.025
   20  0.020  0.001  0.026  0.047
   21  0.004  0.001  0.031  0.037
   22  0.003  0.000  0.054  0.058
   23  0.006  0.001  0.031  0.038
   24  0.016  0.001  0.005  0.022
   25  0.000  0.000  0.024  0.024
   26  0.000  0.001  0.025  0.025
   27  0.005  0.000  0.050  0.054
   28  0.000  0.000  0.000  0.000
   29  0.002  0.000  0.004  0.006
   30  0.000  0.000  0.003  0.004
   31  0.002  0.000  0.004  0.006
   32  0.000  0.000  0.002  0.002
   33  0.001  0.000  0.003  0.004
   34  0.000  0.000  0.002  0.002
   35  0.000  0.000  0.006  0.007
   36  0.000  0.000  0.001  0.001
   37  0.000  0.000  0.000  0.000
   38  0.000  0.000  0.000  0.000
tot    0.132  0.018  0.650  0.799
 
band    11 # energy   -5.72423105 # occ.  2.00000000
 
ion      s      p      d    tot
    1  0.000  0.000  0.005  0.005
    2  0.002  0.001  0.006  0.008
    3  0.001  0.000  0.003  0.004
    4  0.002  0.001  0.006  0.008
    5  0.000  0.000  0.010  0.010
    6  0.000  0.000  0.003  0.003
    7  0.001  0.000  0.003  0.005
    8  0.000  0.000  0.003  0.004
    9  0.000  0.000  0.001  0.001
   10  0.000  0.000  0.083  0.083
   11  0.021  0.001  0.029  0.051
   12  0.008  0.001  0.024  0.033
   13  0.023  0.001  0.026  0.050
   14  0.000  0.001  0.056  0.057
   15  0.003  0.001  0.027  0.031
   16  0.007  0.001  0.030  0.037
   17  0.003  0.000  0.029  0.033
   18  0.000  0.002  0.011  0.013
   19  0.000  0.000  0.024  0.025
   20  0.000  0.001  0.032  0.034
   21  0.016  0.001  0.027  0.044
   22  0.013  0.001  0.018  0.032
   23  0.014  0.001  0.028  0.043
   24  0.000  0.000  0.068  0.068
   25  0.000  0.001  0.025  0.026
   26  0.000  0.000  0.024  0.024
   27  0.011  0.001  0.023  0.035
   28  0.000  0.000  0.000  0.000
   29  0.000  0.000  0.002  0.002
   30  0.001  0.000  0.003  0.004
   31  0.000  0.000  0.002  0.002
   32  0.001  0.000  0.004  0.006
   33  0.001  0.000  0.003  0.004
   34  0.001  0.000  0.004  0.006
   35  0.000  0.000  0.006  0.007
   36  0.000  0.000  0.001  0.001
   37  0.000  0.000  0.000  0.000
   38  0.000  0.000  0.000  0.000
tot    0.132  0.018  0.650  0.799
 
band    12 # energy   -5.71073083 # occ.  2.00000000
 
ion      s      p      d    tot
    1  0.001  0.000  0.001  0.002
    2  0.001  0.000  0.007  0.008
    3  0.001  0.000  0.007  0.008
    4  0.001  0.000  0.007  0.008
    5  0.005  0.000  0.006  0.011
    6  0.001  0.000  0.007  0.008
    7  0.001  0.000  0.007  0.008
    8  0.001  0.000  0.007  0.008
    9  0.000  0.000  0.000  0.001
   10  0.000  0.001  0.006  0.006
   11  0.000  0.000  0.029  0.030
   12  0.000  0.001  0.005  0.006
   13  0.000  0.000  0.029  0.030
   14  0.000  0.000  0.029  0.030
   15  0.000  0.000  0.024  0.024
   16  0.000  0.001  0.005  0.006
   17  0.000  0.000  0.024  0.024
   18  0.000  0.000  0.024  0.024
   19  0.012  0.001  0.008  0.020
   20  0.000  0.000  0.071  0.071
   21  0.000  0.000  0.071  0.071
   22  0.005  0.000  0.068  0.073
   23  0.000  0.000  0.071  0.071
   24  0.005  0.000  0.068  0.073
   25  0.012  0.001  0.008  0.020
   26  0.012  0.001  0.008  0.020
   27  0.005  0.000  0.068  0.073
   28  0.001  0.001  0.006  0.008
   29  0.000  0.000  0.008  0.009
   30  0.000  0.000  0.008  0.009
   31  0.000  0.000  0.008  0.009
   32  0.000  0.000  0.008  0.009
   33  0.000  0.000  0.008  0.009
   34  0.000  0.000  0.008  0.009
   35  0.002  0.001  0.006  0.008
   36  0.008  0.001  0.000  0.008
   37  0.000  0.006  0.000  0.006
   38  0.001  0.010  0.000  0.010
tot    0.078  0.027  0.723  0.828
 
band    13 # energy   -5.70071323 # occ.  2.00000000
 
ion      s      p      d    tot
    1  0.000  0.000  0.027  0.027
    2  0.001  0.000  0.008  0.010
    3  0.001  0.000  0.008  0.010
    4  0.001  0.000  0.008  0.010
    5  0.000  0.000  0.000  0.000
    6  0.001  0.000  0.008  0.010
    7  0.001  0.000  0.008  0.010
    8  0.001  0.000  0.008  0.010
    9  0.008  0.001  0.000  0.009
   10  0.005  0.000  0.090  0.095
   11  0.003  0.000  0.039  0.043
   12  0.005  0.000  0.090  0.095
   13  0.003  0.000  0.039  0.043
   14  0.003  0.000  0.039  0.043
   15  0.008  0.001  0.009  0.018
   16  0.005  0.000  0.090  0.095
   17  0.008  0.001  0.009  0.018
   18  0.008  0.001  0.009  0.018
   19  0.000  0.000  0.025  0.025
   20  0.001  0.000  0.012  0.014
   21  0.001  0.000  0.012  0.014
   22  0.000  0.000  0.019  0.019
   23  0.001  0.000  0.012  0.014
   24  0.000  0.000  0.019  0.019
   25  0.000  0.000  0.025  0.025
   26  0.000  0.000  0.025  0.025
   27  0.000  0.000  0.019  0.019
   28  0.007  0.000  0.007  0.013
   29  0.001  0.000  0.009  0.011
   30  0.001  0.000  0.009  0.011
   31  0.001  0.000  0.009  0.011
   32  0.001  0.000  0.009  0.011
   33  0.001  0.000  0.009  0.011
   34  0.001  0.000  0.009  0.011
   35  0.001  0.000  0.006  0.007
   36  0.000  0.001  0.001  0.002
   37  0.000  0.002  0.000  0.002
   38  0.000  0.003  0.000  0.004
tot    0.085  0.015  0.729  0.829
 
band    14 # energy   -5.68536061 # occ.  2.00000000
 
ion      s      p      d    tot
    1  0.000  0.000  0.016  0.016
    2  0.001  0.001  0.010  0.011
    3  0.003  0.001  0.005  0.009
    4  0.001  0.001  0.010  0.011
    5  0.000  0.000  0.008  0.008
    6  0.001  0.000  0.009  0.010
    7  0.003  0.001  0.005  0.009
    8  0.001  0.000  0.008  0.010
    9  0.000  0.001  0.007  0.008
   10  0.011  0.000  0.031  0.042
   11  0.000  0.000  0.025  0.025
   12  0.003  0.000  0.048  0.051
   13  0.000  0.000  0.026  0.026
   14  0.000  0.000  0.042  0.042
   15  0.003  0.000  0.079  0.082
   16  0.003  0.000  0.048  0.051
   17  0.003  0.000  0.076  0.079
   18  0.013  0.000  0.005  0.018
   19  0.000  0.000  0.032  0.033
   20  0.005  0.000  0.009  0.014
   21  0.001  0.000  0.042  0.044
   22  0.000  0.000  0.022  0.022
   23  0.001  0.000  0.044  0.045
   24  0.001  0.000  0.027  0.028
   25  0.001  0.000  0.028  0.029
   26  0.000  0.000  0.032  0.032
   27  0.000  0.000  0.022  0.022
   28  0.000  0.000  0.013  0.013
   29  0.003  0.000  0.004  0.007
   30  0.000  0.000  0.006  0.006
   31  0.003  0.000  0.004  0.007
   32  0.002  0.000  0.004  0.007
   33  0.000  0.000  0.006  0.006
   34  0.002  0.000  0.005  0.007
   35  0.000  0.000  0.006  0.006
   36  0.000  0.001  0.000  0.001
   37  0.000  0.000  0.000  0.000
   38  0.000  0.001  0.000  0.001
tot    0.066  0.010  0.761  0.838
 
band    15 # energy   -5.68535291 # occ.  2.00000000
 
ion      s      p      d    tot
    1  0.000  0.000  0.016  0.016
    2  0.002  0.000  0.006  0.009
    3  0.000  0.000  0.010  0.011
    4  0.003  0.000  0.006  0.009
    5  0.000  0.000  0.008  0.008
    6  0.002  0.001  0.007  0.010
    7  0.000  0.000  0.011  0.011
    8  0.002  0.001  0.007  0.010
    9  0.000  0.001  0.007  0.008
   10  0.000  0.000  0.054  0.054
   11  0.000  0.000  0.037  0.037
   12  0.008  0.000  0.037  0.045
   13  0.000  0.000  0.036  0.036
   14  0.000  0.000  0.020  0.020
   15  0.010  0.000  0.027  0.037
   16  0.008  0.000  0.036  0.045
   17  0.009  0.000  0.031  0.040
   18  0.000  0.000  0.102  0.102
   19  0.001  0.000  0.029  0.030
   20  0.000  0.000  0.055  0.055
   21  0.004  0.000  0.021  0.025
   22  0.001  0.000  0.025  0.026
   23  0.004  0.000  0.020  0.024
   24  0.000  0.000  0.020  0.020
   25  0.000  0.000  0.034  0.034
   26  0.001  0.000  0.029  0.031
   27  0.001  0.000  0.025  0.026
   28  0.000  0.000  0.013  0.013
   29  0.001  0.000  0.006  0.006
   30  0.003  0.000  0.003  0.007
   31  0.000  0.000  0.006  0.006
   32  0.001  0.000  0.005  0.006
   33  0.003  0.000  0.003  0.007
   34  0.001  0.000  0.005  0.006
   35  0.000  0.000  0.006  0.006
   36  0.000  0.001  0.000  0.001
   37  0.000  0.000  0.000  0.000
   38  0.000  0.001  0.000  0.001
tot    0.066  0.010  0.761  0.838
 
band    16 # energy   -5.67197106 # occ.  2.00000000
 
ion      s      p      d    tot
    1  0.000  0.000  0.003  0.004
    2  0.002  0.000  0.012  0.015
    3  0.002  0.000  0.012  0.014
    4  0.002  0.000  0.013  0.015
    5  0.007  0.000  0.000  0.008
    6  0.002  0.000  0.012  0.014
    7  0.002  0.000  0.012  0.014
    8  0.002  0.000  0.012  0.014
    9  0.004  0.000  0.022  0.026
   10  0.005  0.000  0.014  0.019
   11  0.001  0.000  0.010  0.011
   12  0.005  0.000  0.014  0.019
   13  0.001  0.000  0.010  0.011
   14  0.000  0.000  0.011  0.011
   15  0.001  0.000  0.047  0.048
   16  0.005  0.000  0.013  0.019
   17  0.001  0.000  0.047  0.048
   18  0.001  0.000  0.047  0.048
   19  0.000  0.000  0.037  0.037
   20  0.006  0.000  0.025  0.032
   21  0.006  0.000  0.026  0.032
   22  0.001  0.000  0.025  0.026
   23  0.006  0.000  0.026  0.032
   24  0.001  0.000  0.025  0.026
   25  0.000  0.000  0.036  0.037
   26  0.000  0.000  0.037  0.037
   27  0.001  0.000  0.025  0.026
   28  0.003  0.000  0.000  0.004
   29  0.005  0.000  0.016  0.020
   30  0.005  0.000  0.015  0.020
   31  0.005  0.000  0.016  0.020
   32  0.005  0.000  0.015  0.020
   33  0.005  0.000  0.015  0.020
   34  0.005  0.000  0.015  0.020
   35  0.016  0.000  0.015  0.031
   36  0.001  0.003  0.000  0.005
   37  0.000  0.004  0.000  0.004
   38  0.000  0.006  0.000  0.007
tot    0.111  0.020  0.682  0.814
 
band    17 # energy   -5.67075561 # occ.  2.00000000
 
ion      s      p      d    tot
    1  0.000  0.000  0.005  0.006
    2  0.003  0.000  0.006  0.010
    3  0.000  0.000  0.010  0.010
    4  0.003  0.000  0.006  0.010
    5  0.000  0.000  0.011  0.011
    6  0.002  0.000  0.007  0.009
    7  0.000  0.000  0.010  0.010
    8  0.002  0.000  0.007  0.009
    9  0.000  0.000  0.019  0.019
   10  0.004  0.000  0.021  0.025
   11  0.001  0.000  0.050  0.052
   12  0.001  0.000  0.031  0.032
   13  0.002  0.000  0.047  0.049
   14  0.007  0.000  0.011  0.018
   15  0.000  0.000  0.026  0.026
   16  0.001  0.000  0.032  0.033
   17  0.000  0.000  0.027  0.027
   18  0.000  0.000  0.042  0.043
   19  0.002  0.000  0.062  0.064
   20  0.001  0.000  0.049  0.050
   21  0.000  0.000  0.022  0.023
   22  0.003  0.000  0.059  0.062
   23  0.000  0.000  0.020  0.021
   24  0.012  0.000  0.019  0.031
   25  0.007  0.000  0.010  0.017
   26  0.002  0.000  0.059  0.061
   27  0.003  0.000  0.061  0.064
   28  0.000  0.000  0.004  0.004
   29  0.000  0.000  0.007  0.007
   30  0.001  0.000  0.002  0.004
   31  0.000  0.000  0.007  0.007
   32  0.001  0.001  0.007  0.009
   33  0.002  0.000  0.002  0.004
   34  0.001  0.001  0.007  0.008
   35  0.000  0.000  0.009  0.009
   36  0.000  0.000  0.001  0.001
   37  0.000  0.000  0.000  0.000
   38  0.000  0.000  0.000  0.000
tot    0.061  0.008  0.774  0.843
 
band    18 # energy   -5.67074223 # occ.  2.00000000
 
ion      s      p      d    tot
    1  0.000  0.000  0.005  0.006
    2  0.000  0.000  0.009  0.009
    3  0.003  0.001  0.006  0.009
    4  0.000  0.000  0.009  0.009
    5  0.000  0.000  0.011  0.011
    6  0.002  0.000  0.008  0.010
    7  0.003  0.001  0.006  0.010
    8  0.002  0.000  0.008  0.010
    9  0.000  0.000  0.019  0.019
   10  0.000  0.000  0.035  0.035
   11  0.005  0.000  0.022  0.028
   12  0.003  0.000  0.025  0.028
   13  0.005  0.000  0.025  0.030
   14  0.000  0.000  0.061  0.061
   15  0.000  0.000  0.038  0.038
   16  0.003  0.000  0.024  0.028
   17  0.000  0.000  0.036  0.037
   18  0.000  0.000  0.021  0.021
   19  0.005  0.000  0.025  0.030
   20  0.000  0.000  0.012  0.012
   21  0.000  0.000  0.039  0.040
   22  0.009  0.000  0.034  0.043
   23  0.000  0.000  0.041  0.041
   24  0.000  0.000  0.074  0.074
   25  0.000  0.000  0.078  0.078
   26  0.005  0.000  0.028  0.033
   27  0.009  0.000  0.031  0.041
   28  0.000  0.000  0.004  0.004
   29  0.002  0.001  0.004  0.006
   30  0.000  0.000  0.008  0.009
   31  0.002  0.001  0.003  0.005
   32  0.001  0.000  0.003  0.004
   33  0.000  0.000  0.008  0.009
   34  0.001  0.000  0.004  0.004
   35  0.000  0.000  0.009  0.009
   36  0.000  0.000  0.001  0.001
   37  0.000  0.000  0.000  0.000
   38  0.000  0.000  0.000  0.000
tot    0.061  0.008  0.774  0.843
 
band    19 # energy   -5.53756368 # occ.  2.00000000
 
ion      s      p      d    tot
    1  0.000  0.000  0.000  0.000
    2  0.000  0.000  0.006  0.006
    3  0.000  0.000  0.006  0.006
    4  0.000  0.000  0.006  0.006
    5  0.000  0.000  0.022  0.022
    6  0.000  0.000  0.006  0.006
    7  0.000  0.000  0.006  0.006
    8  0.000  0.000  0.006  0.006
    9  0.000  0.000  0.003  0.004
   10  0.000  0.000  0.008  0.008
   11  0.000  0.000  0.074  0.075
   12  0.000  0.000  0.008  0.008
   13  0.000  0.000  0.074  0.075
   14  0.000  0.000  0.074  0.075
   15  0.002  0.001  0.031  0.033
   16  0.000  0.000  0.008  0.008
   17  0.002  0.001  0.031  0.033
   18  0.002  0.001  0.031  0.033
   19  0.000  0.001  0.022  0.023
   20  0.001  0.000  0.062  0.063
   21  0.001  0.000  0.062  0.063
   22  0.002  0.001  0.008  0.011
   23  0.001  0.000  0.062  0.063
   24  0.002  0.001  0.008  0.011
   25  0.000  0.001  0.022  0.023
   26  0.000  0.001  0.022  0.023
   27  0.002  0.001  0.008  0.011
   28  0.014  0.001  0.006  0.020
   29  0.003  0.000  0.014  0.018
   30  0.003  0.000  0.014  0.018
   31  0.003  0.000  0.014  0.018
   32  0.003  0.000  0.014  0.018
   33  0.003  0.000  0.014  0.018
   34  0.003  0.000  0.014  0.018
   35  0.001  0.000  0.002  0.003
   36  0.001  0.000  0.009  0.010
   37  0.001  0.005  0.000  0.006
   38  0.000  0.006  0.000  0.006
tot    0.051  0.023  0.781  0.854
 
band    20 # energy   -5.51923778 # occ.  2.00000000
 
ion      s      p      d    tot
    1  0.000  0.000  0.001  0.001
    2  0.000  0.000  0.007  0.007
    3  0.001  0.001  0.005  0.007
    4  0.000  0.000  0.007  0.008
    5  0.000  0.001  0.014  0.015
    6  0.001  0.000  0.009  0.010
    7  0.002  0.001  0.005  0.007
    8  0.001  0.001  0.009  0.010
    9  0.000  0.000  0.011  0.011
   10  0.000  0.000  0.029  0.030
   11  0.001  0.000  0.051  0.052
   12  0.000  0.001  0.025  0.026
   13  0.001  0.000  0.056  0.057
   14  0.000  0.000  0.094  0.094
   15  0.002  0.001  0.035  0.037
   16  0.000  0.001  0.025  0.026
   17  0.001  0.001  0.033  0.035
   18  0.000  0.000  0.013  0.013
   19  0.002  0.001  0.027  0.030
   20  0.000  0.000  0.087  0.087
   21  0.002  0.000  0.058  0.060
   22  0.000  0.001  0.024  0.025
   23  0.002  0.000  0.054  0.056
   24  0.000  0.000  0.036  0.036
   25  0.000  0.000  0.004  0.004
   26  0.002  0.001  0.025  0.027
   27  0.000  0.001  0.023  0.024
   28  0.000  0.000  0.008  0.008
   29  0.001  0.001  0.007  0.009
   30  0.001  0.001  0.005  0.007
   31  0.001  0.001  0.008  0.009
   32  0.000  0.000  0.006  0.006
   33  0.001  0.001  0.005  0.007
   34  0.000  0.000  0.006  0.006
   35  0.000  0.000  0.001  0.001
   36  0.000  0.001  0.004  0.005
   37  0.000  0.003  0.000  0.003
   38  0.000  0.007  0.000  0.007
tot    0.022  0.025  0.816  0.863
 
band    21 # energy   -5.51923264 # occ.  2.00000000
 
ion      s      p      d    tot
    1  0.000  0.000  0.001  0.001
    2  0.001  0.001  0.007  0.009
    3  0.000  0.000  0.009  0.010
    4  0.001  0.001  0.007  0.009
    5  0.000  0.001  0.014  0.015
    6  0.001  0.000  0.005  0.006
    7  0.000  0.000  0.009  0.009
    8  0.001  0.000  0.005  0.006
    9  0.000  0.000  0.011  0.011
   10  0.000  0.001  0.024  0.025
   11  0.000  0.000  0.083  0.083
   12  0.000  0.000  0.027  0.028
   13  0.000  0.000  0.078  0.078
   14  0.002  0.000  0.039  0.041
   15  0.000  0.000  0.019  0.019
   16  0.000  0.000  0.028  0.028