PROCAR new format
# of k-points:   10         # of bands:  252         # of ions:   38

 k-point     1 :    0.00000000 0.00000000 0.00000000     weight = 0.01562500

band     1 # energy  -18.38670029 # occ.  2.00000000
 
ion      s      p      d    tot
    1  0.000  0.000  0.000  0.000
    2  0.000  0.000  0.000  0.000
    3  0.000  0.000  0.000  0.000
    4  0.000  0.000  0.000  0.000
    5  0.000  0.000  0.000  0.000
    6  0.000  0.000  0.000  0.000
    7  0.000  0.000  0.000  0.000
    8  0.000  0.000  0.000  0.000
    9  0.000  0.000  0.000  0.000
   10  0.000  0.000  0.000  0.000
   11  0.000  0.000  0.000  0.000
   12  0.000  0.000  0.000  0.000
   13  0.000  0.000  0.000  0.000
   14  0.000  0.000  0.000  0.000
   15  0.000  0.000  0.000  0.000
   16  0.000  0.000  0.000  0.000
   17  0.000  0.000  0.000  0.000
   18  0.000  0.000  0.000  0.000
   19  0.000  0.000  0.000  0.000
   20  0.000  0.000  0.000  0.000
   21  0.000  0.000  0.000  0.000
   22  0.000  0.000  0.000  0.000
   23  0.000  0.000  0.000  0.000
   24  0.000  0.000  0.000  0.000
   25  0.000  0.000  0.000  0.000
   26  0.000  0.000  0.000  0.000
   27  0.000  0.000  0.000  0.000
   28  0.000  0.000  0.000  0.000
   29  0.000  0.000  0.000  0.000
   30  0.000  0.000  0.000  0.000
   31  0.000  0.000  0.000  0.000
   32  0.000  0.000  0.000  0.000
   33  0.000  0.000  0.000  0.000
   34  0.000  0.000  0.000  0.000
   35  0.000  0.000  0.000  0.000
   36  0.010  0.013  0.012  0.034
   37  0.739  0.016  0.000  0.755
   38  0.118  0.024  0.000  0.142
tot    0.867  0.053  0.012  0.932
 
band     2 # energy   -7.99329127 # occ.  2.00000000
 
ion      s      p      d    tot
    1  0.006  0.001  0.000  0.007
    2  0.006  0.001  0.000  0.007
    3  0.006  0.001  0.000  0.007
    4  0.006  0.001  0.000  0.007
    5  0.006  0.001  0.000  0.007
    6  0.006  0.001  0.000  0.007
    7  0.006  0.001  0.000  0.007
    8  0.006  0.001  0.000  0.007
    9  0.006  0.001  0.000  0.007
   10  0.026  0.000  0.000  0.026
   11  0.026  0.000  0.000  0.027
   12  0.026  0.000  0.000  0.026
   13  0.026  0.000  0.000  0.027
   14  0.026  0.000  0.000  0.027
   15  0.026  0.000  0.000  0.026
   16  0.026  0.000  0.000  0.026
   17  0.026  0.000  0.000  0.026
   18  0.026  0.000  0.000  0.026
   19  0.023  0.000  0.000  0.024
   20  0.026  0.000  0.000  0.026
   21  0.026  0.000  0.000  0.026
   22  0.025  0.000  0.000  0.025
   23  0.026  0.000  0.000  0.026
   24  0.025  0.000  0.000  0.025
   25  0.023  0.000  0.000  0.024
   26  0.023  0.000  0.000  0.024
   27  0.025  0.000  0.000  0.025
   28  0.005  0.000  0.000  0.005
   29  0.005  0.000  0.000  0.006
   30  0.005  0.000  0.000  0.006
   31  0.005  0.000  0.000  0.006
   32  0.005  0.000  0.000  0.006
   33  0.005  0.000  0.000  0.006
   34  0.005  0.000  0.000  0.006
   35  0.005  0.000  0.000  0.005
   36  0.007  0.000  0.001  0.008
   37  0.000  0.007  0.000  0.007
   38  0.002  0.000  0.000  0.003
tot    0.564  0.018  0.004  0.586
 
band     3 # energy   -7.09629381 # occ.  2.00000000
 
ion      s      p      d    tot
    1  0.004  0.000  0.000  0.004
    2  0.004  0.000  0.000  0.004
    3  0.004  0.000  0.000  0.004
    4  0.004  0.000  0.000  0.004
    5  0.004  0.000  0.000  0.004
    6  0.004  0.000  0.000  0.004
    7  0.004  0.000  0.000  0.004
    8  0.004  0.000  0.000  0.004
    9  0.004  0.000  0.000  0.004
   10  0.004  0.000  0.001  0.005
   11  0.004  0.000  0.001  0.005
   12  0.004  0.000  0.001  0.005
   13  0.004  0.000  0.001  0.005
   14  0.004  0.000  0.001  0.005
   15  0.005  0.000  0.000  0.006
   16  0.004  0.000  0.001  0.005
   17  0.005  0.000  0.000  0.006
   18  0.005  0.000  0.000  0.006
   19  0.000  0.000  0.000  0.001
   20  0.003  0.001  0.002  0.006
   21  0.003  0.001  0.002  0.006
   22  0.000  0.000  0.000  0.001
   23  0.003  0.001  0.002  0.006
   24  0.000  0.000  0.000  0.001
   25  0.000  0.000  0.000  0.001
   26  0.000  0.000  0.000  0.001
   27  0.000  0.000  0.000  0.001
   28  0.002  0.000  0.000  0.002
   29  0.005  0.000  0.001  0.006
   30  0.005  0.000  0.001  0.006
   31  0.005  0.000  0.001  0.006
   32  0.005  0.000  0.001  0.006
   33  0.005  0.000  0.001  0.006
   34  0.005  0.000  0.001  0.006
   35  0.002  0.000  0.000  0.002
   36  0.067  0.024  0.064  0.156
   37  0.016  0.387  0.000  0.403
   38  0.132  0.014  0.000  0.146
tot    0.333  0.435  0.085  0.853
 
band     4 # energy   -6.69925725 # occ.  2.00000000
 
ion      s      p      d    tot
    1  0.015  0.000  0.001  0.016
    2  0.014  0.000  0.001  0.015
    3  0.014  0.000  0.001  0.015
    4  0.014  0.000  0.001  0.015
    5  0.014  0.000  0.001  0.015
    6  0.014  0.000  0.001  0.015
    7  0.014  0.000  0.001  0.015
    8  0.014  0.000  0.001  0.015
    9  0.013  0.000  0.001  0.015
   10  0.007  0.001  0.002  0.010
   11  0.007  0.001  0.002  0.010
   12  0.007  0.001  0.002  0.010
   13  0.007  0.001  0.002  0.010
   14  0.007  0.001  0.002  0.010
   15  0.005  0.002  0.002  0.009
   16  0.007  0.001  0.002  0.010
   17  0.005  0.002  0.002  0.009
   18  0.005  0.002  0.002  0.009
   19  0.016  0.001  0.004  0.021
   20  0.011  0.000  0.006  0.017
   21  0.011  0.000  0.006  0.017
   22  0.018  0.001  0.004  0.023
   23  0.011  0.000  0.006  0.017
   24  0.018  0.001  0.004  0.023
   25  0.016  0.001  0.004  0.021
   26  0.016  0.001  0.004  0.021
   27  0.018  0.001  0.004  0.023
   28  0.011  0.001  0.000  0.012
   29  0.008  0.001  0.001  0.009
   30  0.008  0.001  0.001  0.009
   31  0.008  0.001  0.001  0.009
   32  0.008  0.001  0.001  0.009
   33  0.008  0.001  0.001  0.009
   34  0.008  0.001  0.001  0.009
   35  0.011  0.001  0.000  0.012
   36  0.003  0.012  0.022  0.038
   37  0.007  0.102  0.000  0.109
   38  0.034  0.003  0.000  0.037
tot    0.429  0.145  0.098  0.673
 
band     5 # energy   -5.85284349 # occ.  2.00000000
 
ion      s      p      d    tot
    1  0.013  0.000  0.022  0.034
    2  0.017  0.000  0.018  0.035
    3  0.017  0.000  0.018  0.035
    4  0.017  0.000  0.018  0.035
    5  0.010  0.000  0.017  0.028
    6  0.017  0.000  0.018  0.035
    7  0.017  0.000  0.018  0.035
    8  0.017  0.000  0.018  0.035
    9  0.034  0.000  0.013  0.047
   10  0.010  0.001  0.023  0.033
   11  0.018  0.001  0.018  0.037
   12  0.010  0.001  0.023  0.033
   13  0.018  0.001  0.018  0.037
   14  0.018  0.001  0.018  0.037
   15  0.000  0.000  0.028  0.028
   16  0.010  0.001  0.023  0.033
   17  0.000  0.000  0.028  0.028
   18  0.000  0.000  0.028  0.028
   19  0.001  0.000  0.005  0.007
   20  0.004  0.001  0.006  0.011
   21  0.004  0.001  0.006  0.011
   22  0.003  0.001  0.003  0.006
   23  0.004  0.001  0.006  0.011
   24  0.003  0.001  0.003  0.006
   25  0.001  0.000  0.005  0.007
   26  0.001  0.000  0.005  0.007
   27  0.003  0.001  0.003  0.006
   28  0.004  0.000  0.000  0.004
   29  0.001  0.000  0.001  0.003
   30  0.001  0.000  0.001  0.003
   31  0.001  0.000  0.001  0.003
   32  0.001  0.000  0.001  0.003
   33  0.001  0.000  0.001  0.003
   34  0.001  0.000  0.001  0.003
   35  0.004  0.000  0.000  0.004
   36  0.000  0.000  0.000  0.001
   37  0.000  0.000  0.000  0.000
   38  0.000  0.000  0.000  0.000
tot    0.288  0.017  0.411  0.716
 
band     6 # energy   -5.82552502 # occ.  2.00000000
 
ion      s      p      d    tot
    1  0.000  0.000  0.004  0.004
    2  0.007  0.001  0.004  0.012
    3  0.004  0.001  0.003  0.007
    4  0.007  0.001  0.004  0.012
    5  0.000  0.001  0.010  0.011
    6  0.001  0.000  0.003  0.005
    7  0.003  0.001  0.003  0.007
    8  0.001  0.000  0.003  0.004
    9  0.000  0.001  0.003  0.004
   10  0.000  0.001  0.022  0.024
   11  0.046  0.002  0.013  0.061
   12  0.006  0.001  0.012  0.019
   13  0.044  0.002  0.015  0.060
   14  0.000  0.001  0.041  0.042
   15  0.018  0.001  0.013  0.033
   16  0.006  0.001  0.011  0.019
   17  0.018  0.001  0.013  0.032
   18  0.000  0.005  0.005  0.010
   19  0.000  0.001  0.010  0.011
   20  0.000  0.004  0.016  0.020
   21  0.029  0.001  0.014  0.045
   22  0.032  0.002  0.013  0.046
   23  0.031  0.001  0.013  0.046
   24  0.000  0.000  0.040  0.040
   25  0.000  0.002  0.008  0.011
   26  0.000  0.001  0.010  0.011
   27  0.034  0.002  0.012  0.047
   28  0.000  0.000  0.001  0.001
   29  0.001  0.000  0.002  0.004
   30  0.007  0.001  0.003  0.011
   31  0.001  0.000  0.002  0.004
   32  0.002  0.001  0.003  0.006
   33  0.007  0.001  0.003  0.011
   34  0.003  0.001  0.003  0.007
   35  0.000  0.001  0.007  0.008
   36  0.000  0.001  0.001  0.002
   37  0.000  0.000  0.000  0.000
   38  0.000  0.000  0.000  0.000
tot    0.307  0.043  0.345  0.694
 
band     7 # energy   -5.82546305 # occ.  2.00000000
 
ion      s      p      d    tot
    1  0.000  0.000  0.004  0.004
    2  0.000  0.000  0.003  0.003
    3  0.004  0.001  0.004  0.009
    4  0.000  0.000  0.003  0.003
    5  0.000  0.001  0.010  0.011
    6  0.007  0.001  0.003  0.011
    7  0.004  0.001  0.004  0.009
    8  0.007  0.001  0.003  0.012
    9  0.000  0.001  0.003  0.004
   10  0.008  0.001  0.007  0.016
   11  0.014  0.001  0.033  0.048
   12  0.002  0.001  0.019  0.022
   13  0.016  0.001  0.031  0.049
   14  0.059  0.002  0.005  0.066
   15  0.005  0.004  0.008  0.016
   16  0.002  0.001  0.019  0.023
   17  0.006  0.003  0.008  0.017
   18  0.025  0.000  0.016  0.041
   19  0.000  0.002  0.009  0.011
   20  0.039  0.001  0.014  0.053
   21  0.011  0.003  0.015  0.029
   22  0.012  0.001  0.030  0.043
   23  0.010  0.003  0.015  0.028
   24  0.042  0.002  0.003  0.047
   25  0.000  0.001  0.011  0.012
   26  0.000  0.002  0.009  0.011
   27  0.011  0.001  0.031  0.042
   28  0.000  0.000  0.001  0.001
   29  0.006  0.001  0.003  0.010
   30  0.000  0.000  0.003  0.003
   31  0.006  0.001  0.003  0.010
   32  0.005  0.001  0.002  0.008
   33  0.000  0.000  0.003  0.003
   34  0.004  0.001  0.002  0.007
   35  0.000  0.001  0.007  0.008
   36  0.000  0.001  0.001  0.002
   37  0.000  0.000  0.000  0.000
   38  0.000  0.000  0.000  0.000
tot    0.307  0.043  0.345  0.694
 
band     8 # energy   -5.82442490 # occ.  2.00000000
 
ion      s      p      d    tot
    1  0.017  0.001  0.000  0.018
    2  0.003  0.001  0.008  0.011
    3  0.003  0.001  0.007  0.011
    4  0.002  0.001  0.008  0.011
    5  0.005  0.000  0.004  0.010
    6  0.002  0.001  0.007  0.010
    7  0.003  0.001  0.007  0.010
    8  0.002  0.001  0.007  0.010
    9  0.003  0.002  0.007  0.011
   10  0.004  0.000  0.033  0.037
   11  0.001  0.002  0.019  0.021
   12  0.004  0.000  0.032  0.036
   13  0.000  0.002  0.019  0.021
   14  0.000  0.002  0.018  0.020
   15  0.039  0.003  0.004  0.046
   16  0.004  0.000  0.032  0.036
   17  0.039  0.003  0.004  0.045
   18  0.037  0.003  0.005  0.044
   19  0.002  0.001  0.019  0.022
   20  0.023  0.000  0.015  0.038
   21  0.021  0.000  0.016  0.037
   22  0.012  0.003  0.009  0.024
   23  0.021  0.000  0.016  0.037
   24  0.014  0.003  0.010  0.026
   25  0.002  0.001  0.018  0.021
   26  0.002  0.001  0.019  0.022
   27  0.012  0.003  0.009  0.024
   28  0.000  0.000  0.000  0.000
   29  0.000  0.000  0.004  0.005
   30  0.000  0.000  0.004  0.004
   31  0.000  0.000  0.004  0.005
   32  0.000  0.000  0.004  0.005
   33  0.000  0.000  0.004  0.004
   34  0.000  0.000  0.004  0.005
   35  0.007  0.001  0.000  0.008
   36  0.001  0.004  0.000  0.005
   37  0.000  0.004  0.000  0.005
   38  0.002  0.000  0.000  0.002
tot    0.287  0.042  0.380  0.709
 
band     9 # energy   -5.81432305 # occ.  2.00000000
 
ion      s      p      d    tot
    1  0.005  0.001  0.002  0.007
    2  0.001  0.001  0.006  0.007
    3  0.001  0.001  0.006  0.007
    4  0.001  0.001  0.006  0.007
    5  0.020  0.002  0.000  0.022
    6  0.001  0.001  0.006  0.007
    7  0.001  0.001  0.006  0.007
    8  0.001  0.001  0.006  0.007
    9  0.000  0.000  0.003  0.003
   10  0.025  0.003  0.002  0.030
   11  0.020  0.001  0.022  0.043
   12  0.025  0.003  0.002  0.030
   13  0.020  0.001  0.022  0.043
   14  0.021  0.001  0.022  0.043
   15  0.001  0.001  0.026  0.027
   16  0.025  0.003  0.002  0.030
   17  0.001  0.001  0.026  0.027
   18  0.001  0.001  0.025  0.027
   19  0.024  0.002  0.008  0.034
   20  0.007  0.002  0.013  0.023
   21  0.008  0.002  0.013  0.023
   22  0.007  0.000  0.026  0.033
   23  0.008  0.002  0.013  0.023
   24  0.008  0.000  0.026  0.034
   25  0.024  0.002  0.008  0.034
   26  0.024  0.002  0.008  0.034
   27  0.007  0.000  0.026  0.033
   28  0.011  0.001  0.001  0.013
   29  0.000  0.000  0.004  0.004
   30  0.000  0.000  0.004  0.004
   31  0.000  0.000  0.004  0.004
   32  0.000  0.000  0.004  0.004
   33  0.000  0.000  0.004  0.004
   34  0.000  0.000  0.004  0.004
   35  0.004  0.001  0.002  0.006
   36  0.000  0.000  0.000  0.001
   37  0.000  0.000  0.000  0.000
   38  0.000  0.000  0.000  0.000
tot    0.300  0.040  0.356  0.696
 
band    10 # energy   -5.79520660 # occ.  2.00000000
 
ion      s      p      d    tot
    1  0.000  0.001  0.008  0.009
    2  0.008  0.001  0.004  0.014
    3  0.006  0.001  0.003  0.010
    4  0.007  0.001  0.004  0.012
    5  0.000  0.000  0.001  0.002
    6  0.002  0.001  0.004  0.006
    7  0.003  0.001  0.003  0.007
    8  0.000  0.000  0.003  0.004
    9  0.000  0.001  0.009  0.010
   10  0.054  0.001  0.012  0.067
   11  0.000  0.003  0.007  0.010
   12  0.023  0.002  0.018  0.043
   13  0.001  0.002  0.009  0.012
   14  0.001  0.000  0.015  0.017
   15  0.005  0.000  0.040  0.045
   16  0.006  0.003  0.021  0.030
   17  0.017  0.001  0.027  0.045
   18  0.039  0.002  0.004  0.045
   19  0.006  0.002  0.028  0.036
   20  0.016  0.002  0.006  0.024
   21  0.007  0.001  0.018  0.026
   22  0.005  0.002  0.009  0.016
   23  0.002  0.000  0.025  0.027
   24  0.011  0.000  0.014  0.025
   25  0.049  0.002  0.007  0.058
   26  0.021  0.002  0.021  0.044
   27  0.001  0.004  0.006  0.010
   28  0.000  0.001  0.006  0.007
   29  0.001  0.000  0.002  0.003
   30  0.004  0.001  0.002  0.007
   31  0.000  0.000  0.002  0.002
   32  0.001  0.000  0.003  0.004
   33  0.004  0.001  0.002  0.007
   34  0.002  0.001  0.003  0.006
   35  0.000  0.000  0.001  0.001
   36  0.000  0.000  0.001  0.001
   37  0.000  0.000  0.000  0.000
   38  0.000  0.000  0.000  0.000
tot    0.301  0.042  0.350  0.693
 
band    11 # energy   -5.79513648 # occ.  2.00000000
 
ion      s      p      d    tot
    1  0.000  0.001  0.008  0.009
    2  0.000  0.000  0.003  0.004
    3  0.003  0.001  0.004  0.007
    4  0.001  0.001  0.003  0.005
    5  0.000  0.000  0.001  0.002
    6  0.007  0.001  0.004  0.012
    7  0.006  0.001  0.004  0.011
    8  0.008  0.001  0.004  0.014
    9  0.000  0.001  0.009  0.010
   10  0.002  0.003  0.022  0.027
   11  0.001  0.001  0.014  0.016
   12  0.032  0.002  0.016  0.050
   13  0.001  0.002  0.011  0.014
   14  0.000  0.004  0.006  0.010
   15  0.036  0.002  0.008  0.045
   16  0.049  0.001  0.013  0.063
   17  0.023  0.001  0.020  0.045
   18  0.001  0.000  0.043  0.045
   19  0.045  0.002  0.009  0.056
   20  0.001  0.000  0.027  0.028
   21  0.010  0.001  0.015  0.026
   22  0.006  0.002  0.010  0.019
   23  0.015  0.002  0.008  0.024
   24  0.000  0.004  0.005  0.009
   25  0.002  0.002  0.030  0.034
   26  0.030  0.002  0.016  0.048
   27  0.010  0.001  0.014  0.024
   28  0.000  0.001  0.006  0.007
   29  0.003  0.001  0.003  0.006
   30  0.000  0.000  0.002  0.003
   31  0.004  0.001  0.002  0.007
   32  0.003  0.001  0.002  0.006
   33  0.000  0.000  0.002  0.002
   34  0.002  0.001  0.002  0.004
   35  0.000  0.000  0.001  0.001
   36  0.000  0.000  0.001  0.001
   37  0.000  0.000  0.000  0.000
   38  0.000  0.000  0.000  0.000
tot    0.301  0.042  0.350  0.693
 
band    12 # energy   -5.62808194 # occ.  2.00000000
 
ion      s      p      d    tot
    1  0.001  0.000  0.000  0.001
    2  0.001  0.000  0.001  0.001
    3  0.001  0.000  0.001  0.001
    4  0.001  0.000  0.001  0.001
    5  0.003  0.000  0.000  0.003
    6  0.001  0.000  0.001  0.001
    7  0.001  0.000  0.001  0.001
    8  0.001  0.000  0.001  0.001
    9  0.000  0.000  0.001  0.001
   10  0.000  0.000  0.003  0.003
   11  0.001  0.000  0.001  0.003
   12  0.000  0.000  0.003  0.003
   13  0.001  0.000  0.001  0.003
   14  0.001  0.000  0.001  0.003
   15  0.002  0.000  0.004  0.007
   16  0.000  0.000  0.003  0.003
   17  0.002  0.000  0.004  0.007
   18  0.002  0.000  0.004  0.007
   19  0.003  0.001  0.018  0.022
   20  0.002  0.000  0.025  0.027
   21  0.002  0.000  0.025  0.027
   22  0.008  0.002  0.026  0.035
   23  0.002  0.000  0.025  0.027
   24  0.008  0.002  0.026  0.035
   25  0.003  0.001  0.018  0.022
   26  0.003  0.001  0.018  0.022
   27  0.008  0.002  0.026  0.035
   28  0.033  0.000  0.022  0.055
   29  0.025  0.000  0.022  0.047
   30  0.025  0.000  0.022  0.047
   31  0.025  0.000  0.022  0.047
   32  0.025  0.000  0.022  0.047
   33  0.025  0.000  0.022  0.047
   34  0.025  0.000  0.022  0.047
   35  0.031  0.000  0.023  0.054
   36  0.001  0.000  0.013  0.015
   37  0.001  0.007  0.000  0.009
   38  0.002  0.000  0.000  0.002
tot    0.274  0.021  0.425  0.721
 
band    13 # energy   -5.34949975 # occ.  2.00000000
 
ion      s      p      d    tot
    1  0.017  0.002  0.002  0.020
    2  0.000  0.001  0.009  0.010
    3  0.000  0.001  0.009  0.010
    4  0.000  0.001  0.009  0.010
    5  0.000  0.000  0.002  0.002
    6  0.000  0.001  0.009  0.009
    7  0.000  0.001  0.009  0.010
    8  0.000  0.001  0.009  0.009
    9  0.017  0.001  0.000  0.018
   10  0.010  0.002  0.012  0.023
   11  0.003  0.000  0.041  0.044
   12  0.010  0.002  0.012  0.023
   13  0.003  0.000  0.041  0.044
   14  0.003  0.000  0.041  0.044
   15  0.002  0.001  0.028  0.031
   16  0.010  0.002  0.012  0.023
   17  0.002  0.001  0.028  0.032
   18  0.002  0.001  0.028  0.032
   19  0.006  0.001  0.012  0.019
   20  0.001  0.000  0.045  0.046
   21  0.001  0.000  0.045  0.046
   22  0.011  0.001  0.021  0.033
   23  0.001  0.000  0.045  0.046
   24  0.010  0.001  0.021  0.033
   25  0.006  0.001  0.012  0.019
   26  0.006  0.001  0.012  0.019
   27  0.011  0.001  0.021  0.033
   28  0.009  0.001  0.001  0.012
   29  0.000  0.001  0.005  0.006
   30  0.000  0.001  0.005  0.006
   31  0.000  0.001  0.005  0.006
   32  0.000  0.001  0.005  0.006
   33  0.000  0.001  0.005  0.006
   34  0.000  0.001  0.005  0.006
   35  0.010  0.001  0.002  0.013
   36  0.000  0.000  0.001  0.001
   37  0.000  0.000  0.000  0.000
   38  0.000  0.000  0.000  0.000
tot    0.153  0.029  0.569  0.752
 
band    14 # energy   -5.33348373 # occ.  2.00000000
 
ion      s      p      d    tot
    1  0.000  0.001  0.004  0.005
    2  0.006  0.001  0.004  0.011
    3  0.005  0.001  0.004  0.009
    4  0.009  0.001  0.005  0.015
    5  0.000  0.001  0.011  0.013
    6  0.008  0.001  0.005  0.014
    7  0.000  0.000  0.005  0.006
    8  0.001  0.001  0.005  0.006
    9  0.000  0.000  0.009  0.009
   10  0.008  0.002  0.016  0.025
   11  0.000  0.000  0.051  0.051
   12  0.006  0.002  0.022  0.030
   13  0.013  0.001  0.024  0.039
   14  0.016  0.001  0.018  0.036
   15  0.000  0.001  0.010  0.012
   16  0.000  0.001  0.050  0.051
   17  0.001  0.001  0.019  0.021
   18  0.002  0.000  0.021  0.023
   19  0.000  0.001  0.015  0.016
   20  0.019  0.001  0.017  0.038
   21  0.016  0.001  0.025  0.042
   22  0.002  0.001  0.021  0.024
   23  0.000  0.000  0.065  0.065
   24  0.002  0.001  0.018  0.021
   25  0.008  0.000  0.019  0.028
   26  0.007  0.000  0.019  0.026
   27  0.000  0.001  0.034  0.035
   28  0.000  0.001  0.009  0.009
   29  0.005  0.001  0.004  0.010
   30  0.003  0.001  0.004  0.008
   31  0.010  0.001  0.004  0.015
   32  0.010  0.001  0.003  0.015
   33  0.001  0.000  0.004  0.005
   34  0.002  0.001  0.004  0.006
   35  0.000  0.000  0.004  0.004
   36  0.000  0.002  0.001  0.003
   37  0.000  0.000  0.000  0.000
   38  0.000  0.000  0.000  0.000
tot    0.161  0.032  0.553  0.746
 
band    15 # energy   -5.33347271 # occ.  2.00000000
 
ion      s      p      d    tot
    1  0.000  0.001  0.004  0.005
    2  0.003  0.001  0.005  0.009
    3  0.005  0.001  0.005  0.011
    4  0.001  0.000  0.005  0.006
    5  0.000  0.001  0.011  0.013
    6  0.002  0.000  0.004  0.006
    7  0.009  0.001  0.004  0.015
    8  0.009  0.001  0.004  0.014
    9  0.000  0.000  0.009  0.009
   10  0.002  0.001  0.043  0.046
   11  0.020  0.001  0.011  0.033
   12  0.003  0.001  0.037  0.041
   13  0.007  0.000  0.038  0.045
   14  0.004  0.000  0.044  0.048
   15  0.002  0.000  0.024  0.026
   16  0.009  0.002  0.008  0.019
   17  0.001  0.001  0.015  0.016
   18  0.000  0.001  0.013  0.014
   19  0.010  0.000  0.021  0.031
   20  0.004  0.000  0.054  0.059
   21  0.008  0.001  0.046  0.054
   22  0.001  0.001  0.027  0.030
   23  0.023  0.002  0.007  0.032
   24  0.001  0.001  0.030  0.032
   25  0.002  0.001  0.016  0.018
   26  0.003  0.001  0.016  0.021
   27  0.003  0.001  0.014  0.018
   28  0.000  0.001  0.009  0.009
   29  0.006  0.001  0.004  0.010
   30  0.007  0.001  0.004  0.012
   31  0.000  0.001  0.004  0.005
   32  0.001  0.001  0.004  0.005
   33  0.009  0.001  0.004  0.015
   34  0.008  0.001  0.004  0.014
   35  0.000  0.000  0.004  0.004
   36  0.000  0.002  0.001  0.003
   37  0.000  0.000  0.000  0.000
   38  0.000  0.000  0.000  0.000
tot    0.161  0.032  0.553  0.746
 
band    16 # energy   -5.30473982 # occ.  2.00000000
 
ion      s      p      d    tot
    1  0.000  0.001  0.015  0.015
    2  0.010  0.001  0.005  0.016
    3  0.003  0.000  0.005  0.008
    4  0.010  0.001  0.005  0.016
    5  0.000  0.000  0.005  0.005
    6  0.004  0.001  0.006  0.010
    7  0.002  0.000  0.005  0.007
    8  0.003  0.001  0.006  0.009
    9  0.000  0.001  0.008  0.009
   10  0.000  0.001  0.027  0.028
   11  0.001  0.001  0.020  0.022
   12  0.006  0.000  0.023  0.029
   13  0.001  0.001  0.020  0.022
   14  0.000  0.001  0.022  0.023
   15  0.013  0.002  0.018  0.033
   16  0.007  0.000  0.022  0.030
   17  0.011  0.002  0.025  0.037
   18  0.000  0.000  0.066  0.066
   19  0.013  0.001  0.016  0.031
   20  0.000  0.002  0.016  0.018
   21  0.000  0.001  0.020  0.021
   22  0.017  0.001  0.022  0.040
   23  0.000  0.000  0.021  0.022
   24  0.000  0.000  0.036  0.036
   25  0.000  0.000  0.065  0.066
   26  0.011  0.001  0.023  0.036
   27  0.019  0.001  0.020  0.040
   28  0.000  0.001  0.004  0.005
   29  0.005  0.001  0.004  0.010
   30  0.000  0.000  0.004  0.005
   31  0.006  0.001  0.004  0.011
   32  0.004  0.001  0.002  0.006
   33  0.000  0.000  0.004  0.004
   34  0.003  0.001  0.002  0.006
   35  0.000  0.001  0.008  0.009
   36  0.000  0.000  0.000  0.000
   37  0.000  0.000  0.000  0.000
   38  0.000  0.000  0.000  0.000
tot    0.149  0.029  0.574  0.752
 
band    17 # energy   -5.30470884 # occ.  2.00000000
 
ion      s      p      d    tot
    1  0.000  0.001  0.015  0.015
    2  0.000  0.000  0.006  0.006
    3  0.008  0.001  0.005  0.014
    4  0.000  0.000  0.006  0.006
    5  0.000  0.000  0.005  0.005
    6  0.007  0.001  0.005  0.012
    7  0.009  0.001  0.005  0.015
    8  0.008  0.001  0.005  0.013
    9  0.000  0.001  0.008  0.009
   10  0.009  0.000  0.021  0.030
   11  0.000  0.001  0.021  0.023
   12  0.003  0.001  0.025  0.029
   13  0.000  0.001  0.021  0.023
   14  0.001  0.001  0.019  0.022
   15  0.003  0.000  0.054  0.058
   16  0.002  0.001  0.026  0.028
   17  0.005  0.001  0.047  0.053
   18  0.016  0.002  0.007  0.025
   19  0.003  0.001  0.053  0.057
   20  0.000  0.000  0.022  0.023
   21  0.000  0.001  0.018  0.019
   22  0.008  0.001  0.030  0.038
   23  0.000  0.001  0.018  0.019
   24  0.024  0.001  0.016  0.041
   25  0.017  0.001  0.005  0.023
   26  0.005  0.001  0.046  0.052
   27  0.005  0.000  0.032  0.037
   28  0.000  0.001  0.004  0.005
   29  0.001  0.000  0.003  0.004
   30  0.005  0.001  0.003  0.009
   31  0.000  0.000  0.003  0.004
   32  0.002  0.001  0.005  0.008
   33  0.006  0.001  0.003  0.010
   34  0.003  0.001  0.005  0.009
   35  0.000  0.001  0.008  0.009
   36  0.000  0.000  0.000  0.000
   37  0.000  0.000  0.000  0.000
   38  0.000  0.000  0.000  0.000
tot    0.149  0.029  0.574  0.752
 
band    18 # energy   -5.29822266 # occ.  2.00000000
 
ion      s      p      d    tot
    1  0.008  0.000  0.001  0.009
    2  0.000  0.001  0.009  0.009
    3  0.000  0.001  0.009  0.009
    4  0.000  0.001  0.009  0.009
    5  0.018  0.002  0.001  0.021
    6  0.000  0.001  0.009  0.009
    7  0.000  0.001  0.009  0.009
    8  0.000  0.001  0.009  0.009
    9  0.003  0.001  0.002  0.006
   10  0.000  0.000  0.042  0.043
   11  0.006  0.001  0.015  0.022
   12  0.000  0.000  0.042  0.043
   13  0.006  0.001  0.015  0.022
   14  0.006  0.001  0.015  0.022
   15  0.006  0.001  0.024  0.031
   16  0.000  0.000  0.042  0.042
   17  0.006  0.001  0.024  0.031
   18  0.006  0.001  0.024  0.031
   19  0.008  0.000  0.046  0.055
   20  0.011  0.001  0.006  0.019
   21  0.011  0.001  0.006  0.019
   22  0.001  0.000  0.033  0.034
   23  0.011  0.001  0.006  0.019
   24  0.001  0.000  0.033  0.035
   25  0.008  0.000  0.046  0.054
   26  0.008  0.000  0.046  0.055
   27  0.001  0.000  0.033  0.034
   28  0.000  0.000  0.007  0.007
   29  0.001  0.000  0.005  0.006
   30  0.001  0.000  0.005  0.006
   31  0.001  0.000  0.005  0.006
   32  0.001  0.000  0.005  0.006
   33  0.001  0.000  0.005  0.006
   34  0.001  0.000  0.005  0.006
   35  0.002  0.000  0.001  0.003
   36  0.005  0.005  0.001  0.010
   37  0.001  0.004  0.000  0.005
   38  0.001  0.000  0.000  0.002
tot    0.137  0.033  0.596  0.765
 
band    19 # energy   -4.95860364 # occ.  2.00000000
 
ion      s      p      d    tot
    1  0.000  0.001  0.015  0.015
    2  0.008  0.000  0.016  0.024
    3  0.000  0.000  0.014  0.014
    4  0.007  0.001  0.009  0.017
    5  0.000  0.000  0.032  0.032
    6  0.000  0.000  0.013  0.013
    7  0.008  0.001  0.010  0.019
    8  0.009  0.000  0.015  0.025
    9  0.000  0.001  0.010  0.011
   10  0.000  0.000  0.009  0.010
   11  0.000  0.000  0.040  0.041
   12  0.000  0.000  0.017  0.017
   13  0.000  0.000  0.037  0.037
   14  0.000  0.000  0.040  0.040
   15  0.000  0.000  0.038  0.038
   16  0.000  0.000  0.008  0.009
   17  0.000  0.000  0.051  0.052
   18  0.000  0.000  0.039  0.040
   19  0.000  0.000  0.012  0.012
   20  0.000  0.000  0.026  0.027
   21  0.001  0.000  0.037  0.039
   22  0.000  0.000  0.042  0.042
   23  0.000  0.000  0.025  0.025
   24  0.000  0.000  0.037  0.037
   25  0.000  0.000  0.012  0.012
   26  0.001  0.000  0.011  0.012
   27  0.000  0.000  0.036  0.037
   28  0.000  0.000  0.015  0.015
   29  0.000  0.001  0.008  0.009
   30  0.006  0.000  0.012  0.018
   31  0.010  0.001  0.008  0.018
   32  0.007  0.001  0.012  0.019
   33  0.009  0.001  0.007  0.017
   34  0.000  0.001  0.008  0.009
   35  0.000  0.000  0.019  0.019
   36  0.000  0.002  0.000  0.002
   37  0.000  0.000  0.000  0.000
   38  0.000  0.000  0.000  0.000
tot    0.068  0.016  0.739  0.823
 
band    20 # energy   -4.95859765 # occ.  2.00000000
 
ion      s      p      d    tot
    1  0.000  0.001  0.015  0.015
    2  0.003  0.001  0.010  0.013
    3  0.011  0.001  0.012  0.023
    4  0.004  0.000  0.016  0.020
    5  0.000  0.000  0.032  0.032
    6  0.011  0.001  0.013  0.024
    7  0.002  0.000  0.016  0.019
    8  0.002  0.001  0.010  0.013
    9  0.000  0.001  0.010  0.011
   10  0.000  0.000  0.014  0.014
   11  0.000  0.000  0.038  0.038
   12  0.000  0.000  0.006  0.006
   13  0.000  0.000  0.041  0.042
   14  0.000  0.000  0.038  0.039
   15  0.000  0.000  0.048  0.049
   16  0.000  0.000  0.015  0.015
   17  0.000  0.000  0.034  0.034
   18  0.000  0.000  0.046  0.047
   19  0.001  0.000  0.011  0.012
   20  0.001  0.000  0.033  0.034
   21  0.000  0.000  0.022  0.022
   22  0.000  0.000  0.035  0.035
   23  0.001  0.000  0.034  0.035
   24  0.000  0.000  0.039  0.040
   25  0.001  0.000  0.012  0.012
   26  0.000  0.000  0.012  0.012
   27  0.000  0.000  0.040  0.041
   28  0.000  0.000  0.015  0.015
   29  0.011  0.001  0.010  0.021
   30  0.005  0.001  0.006  0.012
   31  0.001  0.001  0.010  0.012
   32  0.004  0.001  0.006  0.011
   33  0.002  0.001  0.011  0.013
   34  0.010  0.001  0.010  0.021
   35  0.000  0.000  0.019  0.019
   36  0.000  0.002  0.000  0.002
   37  0.000  0.000  0.000  0.000
   38  0.000  0.000  0.000  0.000
tot    0.068  0.016  0.739  0.823
 
band    21 # energy   -4.94192496 # occ.  2.00000000
 
ion      s      p      d    tot
    1  0.021  0.001  0.001  0.022
    2  0.000  0.001  0.018  0.019
    3  0.000  0.001  0.018  0.019
    4  0.000  0.001  0.018  0.019
    5  0.013  0.000  0.014  0.026
    6  0.000  0.001  0.018  0.019
    7  0.000  0.001  0.018  0.019
    8  0.000  0.001  0.018  0.019
    9  0.001  0.000  0.007  0.008
   10  0.000  0.000  0.029  0.030
   11  0.000  0.000  0.037  0.037
   12  0.000  0.000  0.030  0.030
   13  0.000  0.000  0.037  0.037
   14  0.000  0.000  0.037  0.037
   15  0.000  0.000  0.040  0.040
   16  0.000  0.000  0.030  0.030