 vasp.6.2.0 18Jan21 (build Jun 12 2021 23:27:24) complex                        
  
 executed on             LinuxIFC date 2022.05.30  18:21:47
 running on   28 total cores
 distrk:  each k-point on   28 cores,    1 groups
 distr:  one band on NCORE=   1 cores,   28 groups


--------------------------------------------------------------------------------------------------------


 INCAR:
   ISMEAR = -5
   SIGMA = 0.1
   ISPIN = 1
   EDIFF = 1.d-5
   EDIFFG = -0.01
   NSW = 0
   NELM = 150
   ENCUT = 500
   ISIF = 2
   IBRION = 2
   LREAL = Auto
   ALGO = Fast
   ICHARG = 11
   LORBIT = 10
   LCHARG = .F.
   LWAVE = .F.

 POTCAR:    PAW_PBE Cu 22Jun2005                  
 POTCAR:    PAW_PBE Ru 04Feb2005                  
 POTCAR:    PAW_PBE C 08Apr2002                   
 -----------------------------------------------------------------------------
|                                                                             |
|           W    W    AA    RRRRR   N    N  II  N    N   GGGG   !!!           |
|           W    W   A  A   R    R  NN   N  II  NN   N  G    G  !!!           |
|           W    W  A    A  R    R  N N  N  II  N N  N  G       !!!           |
|           W WW W  AAAAAA  RRRRR   N  N N  II  N  N N  G  GGG   !            |
|           WW  WW  A    A  R   R   N   NN  II  N   NN  G    G                |
|           W    W  A    A  R    R  N    N  II  N    N   GGGG   !!!           |
|                                                                             |
|     For optimal performance we recommend to set                             |
|       NCORE = 2 up to number-of-cores-per-socket                            |
|     NCORE specifies how many cores store one orbital (NPAR=cpu/NCORE).      |
|     This setting can greatly improve the performance of VASP for DFT.       |
|     The default, NCORE=1 might be grossly inefficient on modern             |
|     multi-core architectures or massively parallel machines. Do your        |
|     own testing! More info at https://www.vasp.at/wiki/index.php/NCORE      |
|     Unfortunately you need to use the default for GW and RPA                |
|     calculations (for HF NCORE is supported but not extensively tested      |
|     yet).                                                                   |
|                                                                             |
 -----------------------------------------------------------------------------

 POTCAR:    PAW_PBE Cu 22Jun2005                  
   VRHFIN =Cu: d10 p1                                                                               
   LEXCH  = PE                                                                                      
   EATOM  =  1390.9808 eV,  102.2342 Ry                                                             
                                                                                                    
   TITEL  = PAW_PBE Cu 22Jun2005                                                                    
   LULTRA =        F    use ultrasoft PP ?                                                          
   IUNSCR =        1    unscreen: 0-lin 1-nonlin 2-no                                               
   RPACOR =    2.000    partial core radius                                                         
   POMASS =   63.546; ZVAL   =   11.000    mass and valenz                                          
   RCORE  =    2.300    outmost cutoff radius                                                       
   RWIGS  =    2.200; RWIGS  =    1.164    wigner-seitz radius (au A)                               
   ENMAX  =  295.446; ENMIN  =  221.585 eV                                                          
   ICORE  =        3    local potential                                                             
   LCOR   =        T    correct aug charges                                                         
   LPAW   =        T    paw PP                                                                      
   EAUG   =  586.980                                                                                
   DEXC   =    0.000                                                                                
   RMAX   =    2.344    core radius for proj-oper                                                   
   RAUG   =    1.300    factor for augmentation sphere                                              
   RDEP   =    2.302    radius for radial grids                                                     
   RDEPT  =    1.771    core radius for aug-charge                                                  
                                                                                                    
   Atomic configuration                                                                             
    9 entries                                                                                       
     n  l   j            E        occ.                                                              
     1  0  0.50     -8850.2468   2.0000                                                             
     2  0  0.50     -1062.3498   2.0000                                                             
     2  1  1.50      -916.8226   6.0000                                                             
     3  0  0.50      -114.6929   2.0000                                                             
     3  1  1.50       -72.1325   6.0000                                                             
     3  2  2.50        -5.0394  10.0000                                                             
     4  0  0.50        -4.6097   1.0000                                                             
     4  1  0.50        -4.0817   0.0000                                                             
     4  3  2.50        -1.3606   0.0000                                                             
   Description                                                                                      
     l       E           TYP  RCUT    TYP  RCUT                                                     
     2     -5.0393973     23  2.200                                                                 
     2     10.8846608     23  2.200                                                                 
     0     -4.6097109     23  2.200                                                                 
     0      8.2520465     23  2.200                                                                 
     1     -2.7211652     23  2.200                                                                 
     1     21.7055443     23  2.200                                                                 
     3      2.7211652     23  2.300                                                                 
  local pseudopotential read in
  partial core-charges read in
  partial kinetic energy density read in
  atomic valenz-charges read in
  non local Contribution for L=           2  read in
    real space projection operators read in
  non local Contribution for L=           2  read in
    real space projection operators read in
  non local Contribution for L=           0  read in
    real space projection operators read in
  non local Contribution for L=           0  read in
    real space projection operators read in
  non local Contribution for L=           1  read in
    real space projection operators read in
  non local Contribution for L=           1  read in
    real space projection operators read in
    PAW grid and wavefunctions read in
 
   number of l-projection  operators is LMAX  =           6
   number of lm-projection operators is LMMAX =          18
 
 POTCAR:    PAW_PBE Ru 04Feb2005                  
   VRHFIN =Ru: s1 d7                                                                                
   LEXCH  = PE                                                                                      
   EATOM  =   454.8837 eV,   33.4330 Ry                                                             
                                                                                                    
   TITEL  = PAW_PBE Ru 04Feb2005                                                                    
   LULTRA =        F    use ultrasoft PP ?                                                          
   IUNSCR =        1    unscreen: 0-lin 1-nonlin 2-no                                               
   RPACOR =    2.170    partial core radius                                                         
   POMASS =  101.070; ZVAL   =    8.000    mass and valenz                                          
   RCORE  =    2.700    outmost cutoff radius                                                       
   RWIGS  =    2.650; RWIGS  =    1.402    wigner-seitz radius (au A)                               
   ENMAX  =  213.271; ENMIN  =  159.953 eV                                                          
   ICORE  =        3    local potential                                                             
   LCOR   =        T    correct aug charges                                                         
   LPAW   =        T    paw PP                                                                      
   EAUG   =  333.494                                                                                
   DEXC   =    0.000                                                                                
   RMAX   =    2.758    core radius for proj-oper                                                   
   RAUG   =    1.300    factor for augmentation sphere                                              
   RDEP   =    2.865    radius for radial grids                                                     
   RDEPT  =    2.250    core radius for aug-charge                                                  
                                                                                                    
   Atomic configuration                                                                             
   12 entries                                                                                       
     n  l   j            E        occ.                                                              
     1  0  0.50    -21933.2693   2.0000                                                             
     2  0  0.50     -3153.4097   2.0000                                                             
     2  1  1.50     -2823.9548   6.0000                                                             
     3  0  0.50      -555.3323   2.0000                                                             
     3  1  1.50      -447.1024   6.0000                                                             
     3  2  2.50      -273.0570  10.0000                                                             
     4  0  0.50       -76.3589   2.0000                                                             
     4  1  1.50       -46.4050   6.0000                                                             
     4  2  2.50        -5.2029   7.0000                                                             
     5  0  0.50        -4.2392   1.0000                                                             
     5  1  0.50        -1.3606   0.0000                                                             
     4  3  2.50        -1.3606   0.0000                                                             
   Description                                                                                      
     l       E           TYP  RCUT    TYP  RCUT                                                     
     2     -5.2028939     23  2.600                                                                 
     2     -6.5634765     23  2.600                                                                 
     0     -4.2392259     23  2.700                                                                 
     0     27.2116520     23  2.700                                                                 
     1     -4.0817478     23  2.700                                                                 
     1     27.2116520     23  2.700                                                                 
     3     -5.4423304     23  2.600                                                                 
  local pseudopotential read in
  partial core-charges read in
  partial kinetic energy density read in
  atomic valenz-charges read in
  non local Contribution for L=           2  read in
    real space projection operators read in
  non local Contribution for L=           2  read in
    real space projection operators read in
  non local Contribution for L=           0  read in
    real space projection operators read in
  non local Contribution for L=           0  read in
    real space projection operators read in
  non local Contribution for L=           1  read in
    real space projection operators read in
  non local Contribution for L=           1  read in
    real space projection operators read in
    PAW grid and wavefunctions read in
 
   number of l-projection  operators is LMAX  =           6
   number of lm-projection operators is LMMAX =          18
 
 POTCAR:    PAW_PBE C 08Apr2002                   
   VRHFIN =C: s2p2                                                                                  
   LEXCH  = PE                                                                                      
   EATOM  =   147.1560 eV,   10.8157 Ry                                                             
                                                                                                    
   TITEL  = PAW_PBE C 08Apr2002                                                                     
   LULTRA =        F    use ultrasoft PP ?                                                          
   IUNSCR =        1    unscreen: 0-lin 1-nonlin 2-no                                               
   RPACOR =    1.200    partial core radius                                                         
   POMASS =   12.011; ZVAL   =    4.000    mass and valenz                                          
   RCORE  =    1.500    outmost cutoff radius                                                       
   RWIGS  =    1.630; RWIGS  =    0.863    wigner-seitz radius (au A)                               
   ENMAX  =  400.000; ENMIN  =  300.000 eV                                                          
   ICORE  =        2    local potential                                                             
   LCOR   =        T    correct aug charges                                                         
   LPAW   =        T    paw PP                                                                      
   EAUG   =  644.873                                                                                
   DEXC   =    0.000                                                                                
   RMAX   =    1.529    core radius for proj-oper                                                   
   RAUG   =    1.300    factor for augmentation sphere                                              
   RDEP   =    1.501    radius for radial grids                                                     
   RDEPT  =    1.300    core radius for aug-charge                                                  
                                                                                                    
   Atomic configuration                                                                             
    4 entries                                                                                       
     n  l   j            E        occ.                                                              
     1  0  0.50      -273.3789   2.0000                                                             
     2  0  0.50       -13.7508   2.0000                                                             
     2  1  0.50        -5.2854   2.0000                                                             
     3  2  1.50        -5.4423   0.0000                                                             
   Description                                                                                      
     l       E           TYP  RCUT    TYP  RCUT                                                     
     0    -13.7508458     23  1.200                                                                 
     0     -8.2022199     23  1.200                                                                 
     1     -5.2854383     23  1.500                                                                 
     1     34.0145650     23  1.500                                                                 
     2     -5.4423304      7  1.500                                                                 
  local pseudopotential read in
  partial core-charges read in
  partial kinetic energy density read in
  atomic valenz-charges read in
  non local Contribution for L=           0  read in
    real space projection operators read in
  non local Contribution for L=           0  read in
    real space projection operators read in
  non local Contribution for L=           1  read in
    real space projection operators read in
  non local Contribution for L=           1  read in
    real space projection operators read in
    PAW grid and wavefunctions read in
 
   number of l-projection  operators is LMAX  =           4
   number of lm-projection operators is LMMAX =           8
 
 Optimization of the real space projectors (new method)

 maximal supplied QI-value         = 16.25
 optimisation between [QCUT,QGAM] = [ 11.38, 22.75] = [ 36.24,144.96] Ry 
 Optimized for a Real-space Cutoff    1.52 Angstroem

   l    n(q)    QCUT    max X(q) W(low)/X(q) W(high)/X(q)  e(spline) 
   2      9    11.376     4.610    0.21E-03    0.10E-03    0.26E-06
   2      9    11.376     8.522    0.33E-03    0.16E-03    0.37E-06
   0     10    11.376    51.609    0.62E-04    0.20E-04    0.13E-06
   0     10    11.376    27.747    0.54E-04    0.20E-04    0.13E-06
   1     10    11.376    20.408    0.13E-04    0.99E-04    0.19E-06
   1     10    11.376    13.425    0.12E-04    0.87E-04    0.17E-06
 Optimization of the real space projectors (new method)

 maximal supplied QI-value         = 13.98
 optimisation between [QCUT,QGAM] = [ 11.33, 22.79] = [ 35.93,145.49] Ry 
 Optimized for a Real-space Cutoff    1.52 Angstroem

   l    n(q)    QCUT    max X(q) W(low)/X(q) W(high)/X(q)  e(spline) 
   2      9    11.327    61.733    0.26E-03    0.14E-03    0.16E-06
   2      9    11.327    59.886    0.26E-03    0.14E-03    0.17E-06
   0     10    11.327    23.358    0.19E-03    0.14E-04    0.46E-06
   0     10    11.327    11.320    0.15E-03    0.11E-04    0.37E-06
   1     10    11.327    14.765    0.49E-04    0.26E-03    0.24E-06
   1     10    11.327     8.283    0.37E-04    0.20E-03    0.18E-06
 Optimization of the real space projectors (new method)

 maximal supplied QI-value         = 25.13
 optimisation between [QCUT,QGAM] = [ 11.31, 22.87] = [ 35.82,146.48] Ry 
 Optimized for a Real-space Cutoff    1.00 Angstroem

   l    n(q)    QCUT    max X(q) W(low)/X(q) W(high)/X(q)  e(spline) 
   0      7    11.310   115.676    0.43E-03    0.13E-02    0.19E-06
   0      7    11.310    87.132    0.43E-03    0.13E-02    0.18E-06
   1      6    11.310     4.429    0.42E-03    0.74E-03    0.11E-06
   1      6    11.310     2.733    0.34E-03    0.55E-03    0.92E-07
  PAW_PBE Cu 22Jun2005                  :
 energy of atom  1       EATOM=-1390.9808
 kinetic energy error for atom=    0.0043 (will be added to EATOM!!)
  PAW_PBE Ru 04Feb2005                  :
 energy of atom  2       EATOM= -454.8837
 kinetic energy error for atom=    0.0015 (will be added to EATOM!!)
  PAW_PBE C 08Apr2002                   :
 energy of atom  3       EATOM= -147.1560
 kinetic energy error for atom=    0.0076 (will be added to EATOM!!)
 
 
 POSCAR: Cu-Ru-C
  positions in direct lattice
  velocities in cartesian coordinates
 exchange correlation table for  LEXCH =        8
   RHO(1)=    0.500       N(1)  =     2000
   RHO(2)=  100.500       N(2)  =     4000

 VTST: version 3.2, (02/03/18)

 CHAIN: initializing optimizer
 
 OPT: Using VASP Conjugate-Gradient optimizer
 CHAIN: Read ICHAIN            0
 
 POSCAR: Cu-Ru-C
  positions in direct lattice
  velocities in cartesian coordinates
 


--------------------------------------------------------------------------------------------------------


 ion  position               nearest neighbor table
   1  0.000  0.000  0.226-   7 2.57   3 2.57   4 2.57   2 2.57   6 2.57   8 2.57  12 2.57  10 2.57
                            16 2.57
   2  0.333  0.000  0.226-   8 2.57   9 2.57   5 2.57   1 2.57   3 2.57  11 2.57   4 2.57  10 2.57
                            17 2.57
   3  0.667  0.000  0.226-   1 2.57   7 2.57   6 2.57   9 2.57   2 2.57  12 2.57   5 2.57  18 2.57
                            11 2.57
   4  0.000  0.333  0.226-   5 2.57   6 2.57   1 2.57   7 2.57   2 2.57  13 2.57   9 2.57  10 2.57
                            15 2.57
   5  0.333  0.333  0.226-   4 2.57   2 2.57   7 2.57  13 2.57   8 2.57   6 2.57   3 2.57  11 2.57
                            14 2.57
   6  0.667  0.333  0.226-   4 2.57   9 2.57  15 2.57   3 2.57   1 2.57   8 2.57  14 2.57   5 2.57
                            12 2.57
   7  0.000  0.667  0.226-   1 2.57   3 2.57  16 2.57  18 2.57   4 2.57   5 2.57   8 2.57   9 2.57
                            13 2.57
   8  0.333  0.667  0.226-   9 2.57   2 2.57  17 2.57   6 2.57   1 2.57   7 2.57   5 2.57  14 2.57
                            16 2.57
   9  0.667  0.667  0.226-   8 2.57   6 2.57   2 2.57  17 2.57   3 2.57   7 2.57   4 2.57  15 2.57
                            18 2.57
  10  0.111  0.111  0.314-  20 2.55  26 2.56  19 2.56  11 2.57  12 2.57  13 2.57   1 2.57   2 2.57
                             4 2.57  15 2.57  16 2.57  17 2.57
  11  0.444  0.111  0.314-  20 2.55  21 2.55  10 2.57  13 2.57   2 2.57  17 2.57  14 2.57  12 2.57
                             5 2.57   3 2.57  18 2.57  27 2.57
  12  0.778  0.111  0.314-  21 2.55  19 2.56  25 2.56  15 2.57  10 2.57  14 2.57  18 2.57   3 2.57
                             1 2.57  16 2.57  11 2.57   6 2.57
  13  0.111  0.444  0.314-  23 2.55  20 2.55  16 2.57  18 2.57  10 2.57  11 2.57  14 2.57   5 2.57
                             4 2.57   7 2.57  15 2.57  22 2.57
  14  0.444  0.444  0.314-  21 2.55  23 2.55  15 2.57  17 2.57  12 2.57  16 2.57  13 2.57  11 2.57
                             6 2.57   8 2.57   5 2.57  24 2.57
  15  0.778  0.444  0.314-  19 2.56  14 2.57  17 2.57  12 2.57   6 2.57  18 2.57  10 2.57   9 2.57
                            13 2.57   4 2.57  24 2.57  22 2.57
  16  0.111  0.778  0.314-  23 2.55  25 2.56  26 2.56  18 2.57  13 2.57   7 2.57  14 2.57  17 2.57
                            12 2.57  10 2.57   8 2.57   1 2.57
  17  0.444  0.778  0.314-  26 2.56  14 2.57  15 2.57   8 2.57   9 2.57  11 2.57  16 2.57  18 2.57
                            10 2.57   2 2.57  27 2.57  24 2.57
  18  0.778  0.778  0.314-  25 2.56  16 2.57  13 2.57   7 2.57  15 2.57  12 2.57  17 2.57   9 2.57
                             3 2.57  11 2.57  22 2.57  27 2.57
  19  0.889  0.223  0.402-  28 2.55  15 2.56  21 2.56  20 2.56  12 2.56  10 2.56  22 2.56  24 2.56
                            32 2.56  31 2.56  25 2.57  26 2.57
  20  0.222  0.222  0.401-  10 2.55  11 2.55  13 2.55  36 2.55  26 2.56  19 2.56  27 2.57  22 2.57
                            23 2.57  21 2.57  29 2.58  31 2.58
  21  0.556  0.222  0.401-  12 2.55  14 2.55  11 2.55  36 2.55  19 2.56  25 2.56  24 2.57  27 2.57
                            20 2.57  23 2.57  32 2.58  30 2.58
  22  0.888  0.556  0.402-  35 2.55  24 2.56  27 2.56  19 2.56  25 2.56  18 2.57  15 2.57  31 2.57
                            33 2.57  23 2.57  20 2.57  13 2.57
  23  0.222  0.556  0.401-  16 2.55  13 2.55  14 2.55  36 2.55  25 2.56  26 2.56  22 2.57  24 2.57
                            20 2.57  21 2.57  33 2.58  34 2.58
  24  0.556  0.556  0.402-  35 2.55  22 2.56  27 2.56  19 2.56  26 2.56  15 2.57  17 2.57  32 2.57
                            34 2.57  21 2.57  23 2.57  14 2.57
  25  0.889  0.889  0.402-  28 2.55  18 2.56  21 2.56  23 2.56  16 2.56  12 2.56  22 2.56  27 2.56
                            33 2.56  30 2.56  19 2.57  26 2.57
  26  0.223  0.889  0.402-  28 2.55  17 2.56  20 2.56  23 2.56  10 2.56  16 2.56  27 2.56  24 2.56
                            29 2.56  34 2.56  25 2.57  19 2.57
  27  0.556  0.888  0.402-  35 2.55  24 2.56  22 2.56  26 2.56  25 2.56  17 2.57  18 2.57  29 2.57
                            30 2.57  20 2.57  21 2.57  11 2.57
  28  0.000  0.000  0.489-  25 2.55  19 2.55  26 2.55  33 2.56  30 2.56  31 2.56  29 2.56  32 2.56
                            34 2.56
  29  0.333  0.999  0.490-  34 2.55  28 2.56  26 2.56  35 2.56  27 2.57  31 2.57  36 2.57  30 2.58
                            20 2.58
  30  0.668  0.999  0.490-  33 2.55  28 2.56  25 2.56  35 2.56  27 2.57  32 2.57  36 2.57  29 2.58
                            21 2.58
  31  0.999  0.333  0.490-  32 2.55  28 2.56  19 2.56  35 2.56  22 2.57  29 2.57  36 2.57  33 2.58
                            20 2.58
  32  0.668  0.333  0.490-  31 2.55  28 2.56  19 2.56  35 2.56  24 2.57  30 2.57  36 2.57  34 2.58
                            21 2.58
  33  0.999  0.668  0.490-  30 2.55  28 2.56  25 2.56  35 2.56  22 2.57  34 2.57  36 2.57  31 2.58
                            23 2.58
  34  0.333  0.668  0.490-  29 2.55  28 2.56  26 2.56  35 2.56  24 2.57  33 2.57  36 2.57  32 2.58
                            23 2.58
  35  0.667  0.667  0.489-  24 2.55  27 2.55  22 2.55  34 2.56  32 2.56  29 2.56  30 2.56  33 2.56
                            31 2.56
  36  0.333  0.333  0.488-  37 1.70  23 2.55  20 2.55  21 2.55  31 2.57  29 2.57  33 2.57  34 2.57
                            32 2.57  30 2.57
  37  0.333  0.333  0.560-  36 1.70
 
  LATTYP: Found a hexagonal cell.
 ALAT       =     7.6967864036
 C/A-ratio  =     3.0908716217
  
  Lattice vectors:
  
 A1 = (  -3.8483927580,  -6.6656128093,   0.0000000000)
 A2 = (   7.6967864037,   0.0000000000,   0.0000000000)
 A3 = (   0.0000000000,   0.0000000000,  23.7897786731)


Analysis of symmetry for initial positions (statically):
=====================================================================
 Subroutine PRICEL returns:
 Original cell was already a primitive cell.
 

 Routine SETGRP: Setting up the symmetry group for a 
 hexagonal supercell.


 Subroutine GETGRP returns: Found  6 space group operations
 (whereof  6 operations were pure point group operations)
 out of a pool of 24 trial point group operations.


The static configuration has the point symmetry C_3v.


Analysis of symmetry for dynamics (positions and initial velocities):
=====================================================================
 Subroutine PRICEL returns:
 Original cell was already a primitive cell.
 

 Routine SETGRP: Setting up the symmetry group for a 
 hexagonal supercell.


 Subroutine GETGRP returns: Found  6 space group operations
 (whereof  6 operations were pure point group operations)
 out of a pool of 24 trial point group operations.


The dynamic configuration has the point symmetry C_3v.


Analysis of constrained symmetry for selective dynamics:
=====================================================================
 Subroutine PRICEL returns:
 Original cell was already a primitive cell.
 

 Routine SETGRP: Setting up the symmetry group for a 
 hexagonal supercell.


 Subroutine GETGRP returns: Found  6 space group operations
 (whereof  6 operations were pure point group operations)
 out of a pool of 24 trial point group operations.


The constrained configuration has the point symmetry C_3v.


 Subroutine INISYM returns: Found  6 space group operations
 (whereof  6 operations are pure point group operations),
 and found     1 'primitive' translations


----------------------------------------------------------------------------------------

                                     Primitive cell                                     

  volume of cell :    1220.5060

  direct lattice vectors                    reciprocal lattice vectors
     7.696786404  0.000000000  0.000000000     0.129924354 -0.075011849  0.000000000
     3.848392758  6.665612809  0.000000000     0.000000000  0.150023716  0.000000000
     0.000000000  0.000000000 23.789778673     0.000000000  0.000000000  0.042034859

  length of vectors
     7.696786404  7.696786404 23.789778673     0.150023716  0.150023716  0.042034859

  position of ions in fractional coordinates (direct lattice)
     0.000000000  0.000000000  0.225792754
     0.333333343  0.000000000  0.225792754
     0.666666687  0.000000000  0.225792754
     1.000000000  0.333333343  0.225792754
     0.333333313  0.333333343  0.225792754
     0.666666687  0.333333343  0.225792754
     1.000000000  0.666666687  0.225792754
     0.333333373  0.666666687  0.225792754
     0.666666627  0.666666687  0.225792754
     0.111111119  0.111111112  0.313847389
     0.444444418  0.111111112  0.313847389
     0.777777791  0.111111112  0.313847389
     0.111111119  0.444444448  0.313847389
     0.444444478  0.444444448  0.313847389
     0.777777731  0.444444448  0.313847389
     0.111111112  0.777777731  0.313847389
     0.444444478  0.777777731  0.313847389
     0.777777851  0.777777731  0.313847389
     0.888671784  0.222656447  0.401657717
     0.221848045  0.221848030  0.401011718
     0.556303970  0.221848030  0.401011718
     0.888345097  0.555827421  0.401968744
     0.221848015  0.556303910  0.401011718
     0.555827481  0.555827421  0.401968744
     0.888671784  0.888671784  0.401657717
     0.222656462  0.888671784  0.401657717
     0.555827421  0.888345097  0.401968744
     0.000000000  0.000000000  0.488911055
     0.332852229  0.999275480  0.489929524
     0.667872321  0.999275480  0.489929524
     0.999275480  0.332852229  0.489929524
     0.667872321  0.332852229  0.489929524
     0.999275480  0.667872321  0.489929524
     0.332852259  0.667872321  0.489929524
     0.666666627  0.666666687  0.489082129
     0.333333313  0.333333343  0.488146005
     0.333333313  0.333333343  0.559648805

  ion indices of the primitive-cell ions
   primitive index   ion index
                 1           1
                 2           2
                 3           3
                 4           4
                 5           5
                 6           6
                 7           7
                 8           8
                 9           9
                10          10
                11          11
                12          12
                13          13
                14          14
                15          15
                16          16
                17          17
                18          18
                19          19
                20          20
                21          21
                22          22
                23          23
                24          24
                25          25
                26          26
                27          27
                28          28
                29          29
                30          30
                31          31
                32          32
                33          33
                34          34
                35          35
                36          36
                37          37

----------------------------------------------------------------------------------------

 
 
 KPOINTS: Automatic mesh                          

Automatic generation of k-mesh.
 Grid dimensions read from file:
 generate k-points for:    8    8    1

 Generating k-lattice:

  Cartesian coordinates                     Fractional coordinates (reciprocal lattice)
     0.016240544 -0.009376481  0.000000000     0.125000000 -0.000000000  0.000000000
     0.000000000  0.018752964  0.000000000     0.000000000  0.125000000  0.000000000
     0.000000000  0.000000000  0.042034859     0.000000000  0.000000000  1.000000000

  Length of vectors
     0.018752964  0.018752964  0.042034859

  Shift w.r.t. Gamma in fractional coordinates (k-lattice)
     0.000000000  0.000000000  0.000000000

 TETIRR: Found     36 inequivalent tetrahedra from      384
 
 Subroutine IBZKPT returns following result:
 ===========================================
 
 Found     10 irreducible k-points:
 
 Following reciprocal coordinates:
            Coordinates               Weight
  0.000000  0.000000  0.000000      1.000000
  0.125000 -0.000000  0.000000      6.000000
  0.250000 -0.000000  0.000000      6.000000
  0.375000 -0.000000  0.000000      6.000000
  0.500000 -0.000000  0.000000      3.000000
  0.250000  0.125000  0.000000      6.000000
  0.375000  0.125000  0.000000     12.000000
  0.500000  0.125000  0.000000     12.000000
  0.500000  0.250000  0.000000      6.000000
 -0.375000  0.250000  0.000000      6.000000
 
 Following cartesian coordinates:
            Coordinates               Weight
  0.000000  0.000000  0.000000      1.000000
  0.016241 -0.009376  0.000000      6.000000
  0.032481 -0.018753  0.000000      6.000000
  0.048722 -0.028129  0.000000      6.000000
  0.064962 -0.037506  0.000000      3.000000
  0.032481  0.000000  0.000000      6.000000
  0.048722 -0.009376  0.000000     12.000000
  0.064962 -0.018753  0.000000     12.000000
  0.064962  0.000000  0.000000      6.000000
 -0.048722  0.065635  0.000000      6.000000
 


--------------------------------------------------------------------------------------------------------




 Dimension of arrays:
   k-points           NKPTS =     10   k-points in BZ     NKDIM =     10   number of bands    NBANDS=    252
   number of dos      NEDOS =    301   number of ions     NIONS =     37
   non local maximal  LDIM  =      6   non local SUM 2l+1 LMDIM =     18
   total plane-waves  NPLWV = 246960
   max r-space proj   IRMAX =   3018   max aug-charges    IRDMAX=  13884
   dimension x,y,z NGX =    42 NGY =   42 NGZ =  140
   dimension x,y,z NGXF=    84 NGYF=   84 NGZF=  280
   support grid    NGXF=    84 NGYF=   84 NGZF=  280
   ions per type =              35   1   1
   NGX,Y,Z   is equivalent  to a cutoff of   9.07,  9.07,  9.78 a.u.
   NGXF,Y,Z  is equivalent  to a cutoff of  18.14, 18.14, 19.57 a.u.

 SYSTEM =  unknown system                          
 POSCAR =  Cu-Ru-C                                 

 Startparameter for this run:
   NWRITE =      2    write-flag & timer
   PREC   = normal    normal or accurate (medium, high low for compatibility)
   ISTART =      0    job   : 0-new  1-cont  2-samecut
   ICHARG =     11    charge: 1-file 2-atom 10-const
   ISPIN  =      1    spin polarized calculation?
   LNONCOLLINEAR =      F non collinear calculations
   LSORBIT =      F    spin-orbit coupling
   INIWAV =      1    electr: 0-lowe 1-rand  2-diag
   LASPH  =      F    aspherical Exc in radial PAW
   METAGGA=      F    non-selfconsistent MetaGGA calc.

 Electronic Relaxation 1
   ENCUT  =  500.0 eV  36.75 Ry    6.06 a.u.  14.03 14.03 43.37*2*pi/ulx,y,z
   ENINI  =  500.0     initial cutoff
   ENAUG  =  644.9 eV  augmentation charge cutoff
   NELM   =    150;   NELMIN=  2; NELMDL= -5     # of ELM steps 
   EDIFF  = 0.1E-04   stopping-criterion for ELM
   LREAL  =      T    real-space projection
   NLSPLINE    = F    spline interpolate recip. space projectors
   LCOMPAT=      F    compatible to vasp.4.4
   GGA_COMPAT  = T    GGA compatible to vasp.4.4-vasp.4.6
   LMAXPAW     = -100 max onsite density
   LMAXMIX     =    2 max onsite mixed and CHGCAR
   VOSKOWN=      0    Vosko Wilk Nusair interpolation
   ROPT   =   -0.00050  -0.00050  -0.00050
 Ionic relaxation
   EDIFFG = -.1E-01   stopping-criterion for IOM
   NSW    =      0    number of steps for IOM
   NBLOCK =      1;   KBLOCK =      1    inner block; outer block 
   IBRION =     -1    ionic relax: 0-MD 1-quasi-New 2-CG
   NFREE  =      1    steps in history (QN), initial steepest desc. (CG)
   ISIF   =      2    stress and relaxation
   IWAVPR =     10    prediction:  0-non 1-charg 2-wave 3-comb
   ISYM   =      2    0-nonsym 1-usesym 2-fastsym
   LCORR  =      T    Harris-Foulkes like correction to forces

   POTIM  = 0.5000    time-step for ionic-motion
   TEIN   =    0.0    initial temperature
   TEBEG  =    0.0;   TEEND  =   0.0 temperature during run
   SMASS  =  -3.00    Nose mass-parameter (am)
   estimated Nose-frequenzy (Omega)   =  0.10E-29 period in steps = 0.13E+47 mass=  -0.135E-26a.u.
   SCALEE = 1.0000    scale energy and forces
   NPACO  =    256;   APACO  = 16.0  distance and # of slots for P.C.
   PSTRESS=    0.0 pullay stress

  Mass of Ions in am
   POMASS =  63.55101.07 12.01
  Ionic Valenz
   ZVAL   =  11.00  8.00  4.00
  Atomic Wigner-Seitz radii
   RWIGS  =  -1.00 -1.00 -1.00
  virtual crystal weights 
   VCA    =   1.00  1.00  1.00
   NELECT =     397.0000    total number of electrons
   NUPDOWN=      -1.0000    fix difference up-down

 DOS related values:
   EMIN   =  10.00;   EMAX   =-10.00  energy-range for DOS
   EFERMI =   0.00
   ISMEAR =    -5;   SIGMA  =   0.10  broadening in eV -4-tet -1-fermi 0-gaus

 Electronic relaxation 2 (details)
   IALGO  =     68    algorithm
   LDIAG  =      T    sub-space diagonalisation (order eigenvalues)
   LSUBROT=      F    optimize rotation matrix (better conditioning)
   TURBO    =      0    0=normal 1=particle mesh
   IRESTART =      0    0=no restart 2=restart with 2 vectors
   NREBOOT  =      0    no. of reboots
   NMIN     =      0    reboot dimension
   EREF     =   0.00    reference energy to select bands
   IMIX   =      4    mixing-type and parameters
     AMIX     =   0.40;   BMIX     =  1.00
     AMIX_MAG =   1.60;   BMIX_MAG =  1.00
     AMIN     =   0.10
     WC   =   100.;   INIMIX=   1;  MIXPRE=   1;  MAXMIX= -45

 Intra band minimization:
   WEIMIN = 0.0000     energy-eigenvalue tresh-hold
   EBREAK =  0.99E-08  absolut break condition
   DEPER  =   0.30     relativ break condition  

   TIME   =   0.40     timestep for ELM

  volume/ion in A,a.u.               =      32.99       222.60
  Fermi-wavevector in a.u.,A,eV,Ry     =   1.125879  2.127603 17.246791  1.267603
  Thomas-Fermi vector in A             =   2.262558
 
 Write flags
   LWAVE        =      F    write WAVECAR
   LDOWNSAMPLE  =      F    k-point downsampling of WAVECAR
   LCHARG       =      F    write CHGCAR
   LVTOT        =      F    write LOCPOT, total local potential
   LVHAR        =      F    write LOCPOT, Hartree potential only
   LELF         =      F    write electronic localiz. function (ELF)
   LORBIT       =     10    0 simple, 1 ext, 2 COOP (PROOUT), +10 PAW based schemes


 Dipole corrections
   LMONO  =      F    monopole corrections only (constant potential shift)
   LDIPOL =      F    correct potential (dipole corrections)
   IDIPOL =      0    1-x, 2-y, 3-z, 4-all directions 
   EPSILON=  1.0000000 bulk dielectric constant

 Exchange correlation treatment:
   GGA     =    --    GGA type
   LEXCH   =     8    internal setting for exchange type
   VOSKOWN=      0    Vosko Wilk Nusair interpolation
   LHFCALC =     F    Hartree Fock is set to
   LHFONE  =     F    Hartree Fock one center treatment
   AEXX    =    0.0000 exact exchange contribution

 Linear response parameters
   LEPSILON=     F    determine dielectric tensor
   LRPA    =     F    only Hartree local field effects (RPA)
   LNABLA  =     F    use nabla operator in PAW spheres
   LVEL    =     F    velocity operator in full k-point grid
   LINTERFAST=   F  fast interpolation
   KINTER  =     0    interpolate to denser k-point grid
   CSHIFT  =0.1000    complex shift for real part using Kramers Kronig
   OMEGAMAX=  -1.0    maximum frequency
   DEG_THRESHOLD= 0.2000000E-02 threshold for treating states as degnerate
   RTIME   =   -0.100 relaxation time in fs
  (WPLASMAI=    0.000 imaginary part of plasma frequency in eV, 0.658/RTIME)
   DFIELD  = 0.0000000 0.0000000 0.0000000 field for delta impulse in time
 
 Orbital magnetization related:
   ORBITALMAG=     F  switch on orbital magnetization
   LCHIMAG   =     F  perturbation theory with respect to B field
   DQ        =  0.001000  dq finite difference perturbation B field
   LLRAUG    =     F  two centre corrections for induced B field



--------------------------------------------------------------------------------------------------------


 Static calculation
 charge density and potential remain constant during run
 non-spin polarized calculation
 RMM-DIIS sequential band-by-band and
  variant of blocked Davidson during initial phase
 perform sub-space diagonalisation
    before iterative eigenvector-optimisation
 no mixing
 using additional bands           53
 real space projection scheme for non local part
 use partial core corrections
 calculate Harris-corrections to forces 
   (improved forces if not selfconsistent)
 use gradient corrections 
 WARNING: stress and forces are not correct
  (second derivative of E(xc) not defined)
 use of overlap-Matrix (Vanderbilt PP)
 Fermi weights with tetrahedron method with Bloechl corrections


--------------------------------------------------------------------------------------------------------


  energy-cutoff  :      500.00
  volume of cell :     1220.51
      direct lattice vectors                 reciprocal lattice vectors
     7.696786404  0.000000000  0.000000000     0.129924354 -0.075011849  0.000000000
     3.848392758  6.665612809  0.000000000     0.000000000  0.150023716  0.000000000
     0.000000000  0.000000000 23.789778673     0.000000000  0.000000000  0.042034859

  length of vectors
     7.696786404  7.696786404 23.789778673     0.150023716  0.150023716  0.042034859


 
 k-points in units of 2pi/SCALE and weight: Automatic mesh                          
   0.00000000  0.00000000  0.00000000       0.016
   0.01624054 -0.00937648  0.00000000       0.094
   0.03248109 -0.01875296  0.00000000       0.094
   0.04872163 -0.02812944  0.00000000       0.094
   0.06496218 -0.03750592  0.00000000       0.047
   0.03248109  0.00000000  0.00000000       0.094
   0.04872163 -0.00937648  0.00000000       0.188
   0.06496218 -0.01875296  0.00000000       0.188
   0.06496218  0.00000000  0.00000000       0.094
  -0.04872163  0.06563537  0.00000000       0.094
 
 k-points in reciprocal lattice and weights: Automatic mesh                          
   0.00000000  0.00000000  0.00000000       0.016
   0.12500000 -0.00000000  0.00000000       0.094
   0.25000000 -0.00000000  0.00000000       0.094
   0.37500000 -0.00000000  0.00000000       0.094
   0.50000000 -0.00000000  0.00000000       0.047
   0.25000000  0.12500000  0.00000000       0.094
   0.37500000  0.12500000  0.00000000       0.188
   0.50000000  0.12500000  0.00000000       0.188
   0.50000000  0.25000000  0.00000000       0.094
  -0.37500000  0.25000000  0.00000000       0.094
 
 position of ions in fractional coordinates (direct lattice) 
   0.00000000  0.00000000  0.22579275
   0.33333334  0.00000000  0.22579275
   0.66666669  0.00000000  0.22579275
   0.00000000  0.33333334  0.22579275
   0.33333331  0.33333334  0.22579275
   0.66666669  0.33333334  0.22579275
   0.00000000  0.66666669  0.22579275
   0.33333337  0.66666669  0.22579275
   0.66666663  0.66666669  0.22579275
   0.11111112  0.11111111  0.31384739
   0.44444442  0.11111111  0.31384739
   0.77777779  0.11111111  0.31384739
   0.11111112  0.44444445  0.31384739
   0.44444448  0.44444445  0.31384739
   0.77777773  0.44444445  0.31384739
   0.11111111  0.77777773  0.31384739
   0.44444448  0.77777773  0.31384739
   0.77777785  0.77777773  0.31384739
   0.88867178  0.22265645  0.40165772
   0.22184804  0.22184803  0.40101172
   0.55630397  0.22184803  0.40101172
   0.88834510  0.55582742  0.40196874
   0.22184801  0.55630391  0.40101172
   0.55582748  0.55582742  0.40196874
   0.88867178  0.88867178  0.40165772
   0.22265646  0.88867178  0.40165772
   0.55582742  0.88834510  0.40196874
   0.00000000  0.00000000  0.48891106
   0.33285223  0.99927548  0.48992952
   0.66787232  0.99927548  0.48992952
   0.99927548  0.33285223  0.48992952
   0.66787232  0.33285223  0.48992952
   0.99927548  0.66787232  0.48992952
   0.33285226  0.66787232  0.48992952
   0.66666663  0.66666669  0.48908213
   0.33333331  0.33333334  0.48814600
   0.33333331  0.33333334  0.55964880
 
 position of ions in cartesian coordinates  (Angst):
   0.00000000  0.00000000  5.37155964
   2.56559554  0.00000000  5.37155964
   5.13119109  0.00000000  5.37155964
   1.28279762  2.22187100  5.37155964
   3.84839293  2.22187100  5.37155964
   6.41398872  2.22187100  5.37155964
   2.56559525  4.44374201  5.37155964
   5.13119102  4.44374201  5.37155964
   7.69678588  4.44374201  5.37155964
   1.28279775  0.74062365  7.46635991
   3.84839295  0.74062365  7.46635991
   6.41398873  0.74062365  7.46635991
   2.56559535  2.96249461  7.46635991
   5.13119101  2.96249461  7.46635991
   7.69678586  2.96249461  7.46635991
   3.84839268  5.18436521  7.46635991
   6.41398840  5.18436521  7.46635991
   8.97958418  5.18436521  7.46635991
   7.69678637  1.48414167  9.55534820
   2.56127537  1.47875307  9.53998003
   5.13551119  1.47875307  9.53998003
   8.97644469  3.70493038  9.56274745
   3.84839272  3.70810647  9.53998003
   6.41712762  3.70493038  9.56274745
  10.25987497  5.92354203  9.55534820
   5.13369729  5.92354203  9.55534820
   7.69678578  5.92136446  9.56274745
   0.00000000  0.00000000 11.63108579
   6.40749703  6.66078344 11.65531494
   8.98607512  6.66078344 11.65531494
   8.97215604  2.21866408 11.65531494
   6.42141670  2.21866408 11.65531494
  10.26144493  4.45177829 11.65531494
   5.13212775  4.45177829 11.65531494
   7.69678588  4.44374201 11.63515560
   3.84839293  2.22187100 11.61288542
   3.84839293  2.22187100 13.31392121
 


--------------------------------------------------------------------------------------------------------


 k-point   1 :   0.0000 0.0000 0.0000  plane waves:   30861
 k-point   2 :   0.1250-0.0000 0.0000  plane waves:   30923
 k-point   3 :   0.2500-0.0000 0.0000  plane waves:   31010
 k-point   4 :   0.3750-0.0000 0.0000  plane waves:   30958
 k-point   5 :   0.5000-0.0000 0.0000  plane waves:   30974
 k-point   6 :   0.2500 0.1250 0.0000  plane waves:   30938
 k-point   7 :   0.3750 0.1250 0.0000  plane waves:   30990
 k-point   8 :   0.5000 0.1250 0.0000  plane waves:   31017
 k-point   9 :   0.5000 0.2500 0.0000  plane waves:   30996
 k-point  10 :  -0.3750 0.2500 0.0000  plane waves:   31036

 maximum and minimum number of plane-waves per node :     31036    30861

 maximum number of plane-waves:     31036
 maximum index in each direction: 
   IXMAX=   14   IYMAX=   14   IZMAX=   43
   IXMIN=  -14   IYMIN=  -14   IZMIN=  -43


 serial   3D FFT for wavefunctions
 parallel 3D FFT for charge:
    minimum data exchange during FFTs selected (reduces bandwidth)


 total amount of memory used by VASP MPI-rank0   112564. kBytes
=======================================================================

   base      :      30000. kBytes
   nonlr-proj:      18467. kBytes
   fftplans  :       3394. kBytes
   grid      :      14446. kBytes
   one-center:        575. kBytes
   wavefun   :      45682. kBytes
 
     INWAV:  cpu time    0.0000: real time    0.0000
 initial charge density was supplied:
 number of electron     396.9999826 magnetization 
 keeping initial charge density in first step


--------------------------------------------------------------------------------------------------------


 Maximum index for non-local projection operator         2922
 Maximum index for augmentation-charges          634 (set IRDMAX)


--------------------------------------------------------------------------------------------------------


 First call to EWALD:  gamma=   0.166
 Maximum number of real-space cells 4x 4x 2
 Maximum number of reciprocal cells 2x 2x 6

    FEWALD:  cpu time    0.0014: real time    0.0014


--------------------------------------- Iteration      1(   1)  ---------------------------------------


    POTLOK:  cpu time    0.0313: real time    0.0317
    SETDIJ:  cpu time    0.0046: real time    0.0047
     EDDAV:  cpu time    6.4823: real time    6.4839
 BZINTS: Fermi energy:   12.838853;  397.000000 electrons
         Band energy: 0.235696E+04;  BLOECHL correction:   -0.035281
       DOS:  cpu time    0.0106: real time    0.0107
    --------------------------------------------
      LOOP:  cpu time    6.5288: real time    6.5310

 eigenvalue-minimisations  :  5040
 total energy-change (2. order) : 0.3508864E+04  (-0.1693331E+05)
 number of electron     396.9999826 magnetization 
 augmentation part      396.9999826 magnetization 

 Free energy of the ion-electron system (eV)
  ---------------------------------------------------
  alpha Z        PSCENC =       782.23475481
  Ewald energy   TEWEN  =    197318.79244292
  -Hartree energ DENC   =   -244050.64709909
  -exchange      EXHF   =         0.00000000
  -V(xc)+E(xc)   XCENC  =      1538.37201765
  PAW double counting   =     46564.32209314   -50287.37986359
  entropy T*S    EENTRO =         0.00000000
  eigenvalues    EBANDS =      2356.96036241
  atomic energy  EATOM  =     49286.20966074
  Solvation  Ediel_sol  =         0.00000000
  ---------------------------------------------------
  free energy    TOTEN  =      3508.86436897 eV

  energy without entropy =     3508.86436897  energy(sigma->0) =     3508.86436897


--------------------------------------------------------------------------------------------------------




--------------------------------------- Iteration      1(   2)  ---------------------------------------


     EDDAV:  cpu time    6.4547: real time    6.4586
 BZINTS: Fermi energy:    2.445158;  397.000000 electrons
         Band energy:-0.843073E+03;  BLOECHL correction:   -0.012087
       DOS:  cpu time    0.0103: real time    0.0103
    --------------------------------------------
      LOOP:  cpu time    6.4649: real time    6.4688

 eigenvalue-minimisations  :  5040
 total energy-change (2. order) :-0.3200033E+04  (-0.3063082E+04)
 number of electron     396.9999826 magnetization 
 augmentation part      396.9999826 magnetization 

 Free energy of the ion-electron system (eV)
  ---------------------------------------------------
  alpha Z        PSCENC =       782.23475481
  Ewald energy   TEWEN  =    197318.79244292
  -Hartree energ DENC   =   -244050.64709909
  -exchange      EXHF   =         0.00000000
  -V(xc)+E(xc)   XCENC  =      1538.37201765
  PAW double counting   =     46564.32209314   -50287.37986359
  entropy T*S    EENTRO =         0.00000000
  eigenvalues    EBANDS =      -843.07257372
  atomic energy  EATOM  =     49286.20966074
  Solvation  Ediel_sol  =         0.00000000
  ---------------------------------------------------
  free energy    TOTEN  =       308.83143285 eV

  energy without entropy =      308.83143285  energy(sigma->0) =      308.83143285


--------------------------------------------------------------------------------------------------------




--------------------------------------- Iteration      1(   3)  ---------------------------------------


     EDDAV:  cpu time    7.0591: real time    7.0595
 BZINTS: Fermi energy:   -0.294776;  397.000000 electrons
         Band energy:-0.126649E+04;  BLOECHL correction:   -0.063298
       DOS:  cpu time    0.0101: real time    0.0101
    --------------------------------------------
      LOOP:  cpu time    7.0692: real time    7.0696

 eigenvalue-minimisations  :  5628
 total energy-change (2. order) :-0.4234144E+03  (-0.3979191E+03)
 number of electron     396.9999826 magnetization 
 augmentation part      396.9999826 magnetization 

 Free energy of the ion-electron system (eV)
  ---------------------------------------------------
  alpha Z        PSCENC =       782.23475481
  Ewald energy   TEWEN  =    197318.79244292
  -Hartree energ DENC   =   -244050.64709909
  -exchange      EXHF   =         0.00000000
  -V(xc)+E(xc)   XCENC  =      1538.37201765
  PAW double counting   =     46564.32209314   -50287.37986359
  entropy T*S    EENTRO =         0.00000000
  eigenvalues    EBANDS =     -1266.48693150
  atomic energy  EATOM  =     49286.20966074
  Solvation  Ediel_sol  =         0.00000000
  ---------------------------------------------------
  free energy    TOTEN  =      -114.58292494 eV

  energy without entropy =     -114.58292494  energy(sigma->0) =     -114.58292494


--------------------------------------------------------------------------------------------------------




--------------------------------------- Iteration      1(   4)  ---------------------------------------


     EDDAV:  cpu time    7.8913: real time    7.8919
 BZINTS: Fermi energy:   -0.420982;  397.000000 electrons
         Band energy:-0.128872E+04;  BLOECHL correction:   -0.062279
       DOS:  cpu time    0.0098: real time    0.0098
    --------------------------------------------
      LOOP:  cpu time    7.9011: real time    7.9017

 eigenvalue-minimisations  :  6440
 total energy-change (2. order) :-0.2223205E+02  (-0.2169031E+02)
 number of electron     396.9999826 magnetization 
 augmentation part      396.9999826 magnetization 

 Free energy of the ion-electron system (eV)
  ---------------------------------------------------
  alpha Z        PSCENC =       782.23475481
  Ewald energy   TEWEN  =    197318.79244292
  -Hartree energ DENC   =   -244050.64709909
  -exchange      EXHF   =         0.00000000
  -V(xc)+E(xc)   XCENC  =      1538.37201765
  PAW double counting   =     46564.32209314   -50287.37986359
  entropy T*S    EENTRO =         0.00000000
  eigenvalues    EBANDS =     -1288.71898296
  atomic energy  EATOM  =     49286.20966074
  Solvation  Ediel_sol  =         0.00000000
  ---------------------------------------------------
  free energy    TOTEN  =      -136.81497640 eV

  energy without entropy =     -136.81497640  energy(sigma->0) =     -136.81497640


--------------------------------------------------------------------------------------------------------




--------------------------------------- Iteration      1(   5)  ---------------------------------------


     EDDAV:  cpu time    7.7672: real time    7.7677
 BZINTS: Fermi energy:   -0.423748;  397.000000 electrons
         Band energy:-0.128933E+04;  BLOECHL correction:   -0.065052
       DOS:  cpu time    0.0102: real time    0.0102
    --------------------------------------------
      LOOP:  cpu time    7.7774: real time    7.7780

 eigenvalue-minimisations  :  6328
 total energy-change (2. order) :-0.6141967E+00  (-0.6107703E+00)
 number of electron     396.9999826 magnetization 
 augmentation part      396.9999826 magnetization 

 Free energy of the ion-electron system (eV)
  ---------------------------------------------------
  alpha Z        PSCENC =       782.23475481
  Ewald energy   TEWEN  =    197318.79244292
  -Hartree energ DENC   =   -244050.64709909
  -exchange      EXHF   =         0.00000000
  -V(xc)+E(xc)   XCENC  =      1538.37201765
  PAW double counting   =     46564.32209314   -50287.37986359
  entropy T*S    EENTRO =         0.00000000
  eigenvalues    EBANDS =     -1289.33317968
  atomic energy  EATOM  =     49286.20966074
  Solvation  Ediel_sol  =         0.00000000
  ---------------------------------------------------
  free energy    TOTEN  =      -137.42917312 eV

  energy without entropy =     -137.42917312  energy(sigma->0) =     -137.42917312


--------------------------------------------------------------------------------------------------------




--------------------------------------- Iteration      1(   6)  ---------------------------------------


    EDDIAG:  cpu time    1.2079: real time    1.2085
  RMM-DIIS:  cpu time    3.6422: real time    3.6424
    ORTHCH:  cpu time    0.2243: real time    0.2243
 BZINTS: Fermi energy:   -0.423759;  397.000000 electrons
         Band energy:-0.128935E+04;  BLOECHL correction:   -0.065047
       DOS:  cpu time    0.0106: real time    0.0106
    --------------------------------------------
      LOOP:  cpu time    5.0851: real time    5.0858

 eigenvalue-minimisations  :  5377
 total energy-change (2. order) :-0.1822846E-01  (-0.1823309E-01)
 number of electron     396.9999826 magnetization 
 augmentation part      396.9999826 magnetization 

 Free energy of the ion-electron system (eV)
  ---------------------------------------------------
  alpha Z        PSCENC =       782.23475481
  Ewald energy   TEWEN  =    197318.79244292
  -Hartree energ DENC   =   -244050.64709909
  -exchange      EXHF   =         0.00000000
  -V(xc)+E(xc)   XCENC  =      1538.37201765
  PAW double counting   =     46564.32209314   -50287.37986359
  entropy T*S    EENTRO =         0.00000000
  eigenvalues    EBANDS =     -1289.35140814
  atomic energy  EATOM  =     49286.20966074
  Solvation  Ediel_sol  =         0.00000000
  ---------------------------------------------------
  free energy    TOTEN  =      -137.44740158 eV

  energy without entropy =     -137.44740158  energy(sigma->0) =     -137.44740158


--------------------------------------------------------------------------------------------------------




--------------------------------------- Iteration      1(   7)  ---------------------------------------


    EDDIAG:  cpu time    1.2087: real time    1.2090
  RMM-DIIS:  cpu time    5.0881: real time    5.0883
    ORTHCH:  cpu time    0.2240: real time    0.2240
 BZINTS: Fermi energy:   -0.423763;  397.000000 electrons
         Band energy:-0.128936E+04;  BLOECHL correction:   -0.065045
       DOS:  cpu time    0.0106: real time    0.0106
    --------------------------------------------
      LOOP:  cpu time    6.5314: real time    6.5320

 eigenvalue-minimisations  :  7622
 total energy-change (2. order) :-0.7802308E-02  (-0.7781904E-02)
 number of electron     396.9999826 magnetization 
 augmentation part      396.9999826 magnetization 

 Free energy of the ion-electron system (eV)
  ---------------------------------------------------
  alpha Z        PSCENC =       782.23475481
  Ewald energy   TEWEN  =    197318.79244292
  -Hartree energ DENC   =   -244050.64709909
  -exchange      EXHF   =         0.00000000
  -V(xc)+E(xc)   XCENC  =      1538.37201765
  PAW double counting   =     46564.32209314   -50287.37986359
  entropy T*S    EENTRO =         0.00000000
  eigenvalues    EBANDS =     -1289.35921045
  atomic energy  EATOM  =     49286.20966074
  Solvation  Ediel_sol  =         0.00000000
  ---------------------------------------------------
  free energy    TOTEN  =      -137.45520389 eV

  energy without entropy =     -137.45520389  energy(sigma->0) =     -137.45520389


--------------------------------------------------------------------------------------------------------




--------------------------------------- Iteration      1(   8)  ---------------------------------------


    EDDIAG:  cpu time    1.2087: real time    1.2090
  RMM-DIIS:  cpu time    4.1971: real time    4.1972
    ORTHCH:  cpu time    0.2239: real time    0.2239
 BZINTS: Fermi energy:   -0.423763;  397.000000 electrons
         Band energy:-0.128936E+04;  BLOECHL correction:   -0.065045
       DOS:  cpu time    0.0102: real time    0.0102
    --------------------------------------------
      LOOP:  cpu time    5.6399: real time    5.6404

 eigenvalue-minimisations  :  6300
 total energy-change (2. order) :-0.4528166E-03  (-0.3452125E-03)
 number of electron     396.9999826 magnetization 
 augmentation part      396.9999826 magnetization 

 Free energy of the ion-electron system (eV)
  ---------------------------------------------------
  alpha Z        PSCENC =       782.23475481
  Ewald energy   TEWEN  =    197318.79244292
  -Hartree energ DENC   =   -244050.64709909
  -exchange      EXHF   =         0.00000000
  -V(xc)+E(xc)   XCENC  =      1538.37201765
  PAW double counting   =     46564.32209314   -50287.37986359
  entropy T*S    EENTRO =         0.00000000
  eigenvalues    EBANDS =     -1289.35966327
  atomic energy  EATOM  =     49286.20966074
  Solvation  Ediel_sol  =         0.00000000
  ---------------------------------------------------
  free energy    TOTEN  =      -137.45565671 eV

  energy without entropy =     -137.45565671  energy(sigma->0) =     -137.45565671


--------------------------------------------------------------------------------------------------------




--------------------------------------- Iteration      1(   9)  ---------------------------------------


    EDDIAG:  cpu time    1.2106: real time    1.2109
  RMM-DIIS:  cpu time    4.9328: real time    4.9330
    ORTHCH:  cpu time    0.2233: real time    0.2233
 BZINTS: Fermi energy:   -0.423763;  397.000000 electrons
         Band energy:-0.128936E+04;  BLOECHL correction:   -0.065045
       DOS:  cpu time    0.0106: real time    0.0106
    --------------------------------------------
      LOOP:  cpu time    6.3773: real time    6.3778

 eigenvalue-minimisations  :  7264
 total energy-change (2. order) :-0.1496503E-03  (-0.1466478E-03)
 number of electron     396.9999826 magnetization 
 augmentation part      396.9999826 magnetization 

 Free energy of the ion-electron system (eV)
  ---------------------------------------------------
  alpha Z        PSCENC =       782.23475481
  Ewald energy   TEWEN  =    197318.79244292
  -Hartree energ DENC   =   -244050.64709909
  -exchange      EXHF   =         0.00000000
  -V(xc)+E(xc)   XCENC  =      1538.37201765
  PAW double counting   =     46564.32209314   -50287.37986359
  entropy T*S    EENTRO =         0.00000000
  eigenvalues    EBANDS =     -1289.35981292
  atomic energy  EATOM  =     49286.20966074
  Solvation  Ediel_sol  =         0.00000000
  ---------------------------------------------------
  free energy    TOTEN  =      -137.45580636 eV

  energy without entropy =     -137.45580636  energy(sigma->0) =     -137.45580636


--------------------------------------------------------------------------------------------------------




--------------------------------------- Iteration      1(  10)  ---------------------------------------


    EDDIAG:  cpu time    1.2086: real time    1.2089
  RMM-DIIS:  cpu time    3.2953: real time    3.2954
    ORTHCH:  cpu time    0.2235: real time    0.2235
 BZINTS: Fermi energy:   -0.423763;  397.000000 electrons
         Band energy:-0.128936E+04;  BLOECHL correction:   -0.065045
       DOS:  cpu time    0.0104: real time    0.0104
    --------------------------------------------
      LOOP:  cpu time    4.7378: real time    4.7382

 eigenvalue-minimisations  :  4490
 total energy-change (2. order) :-0.7406838E-05  (-0.5514906E-05)
 number of electron     396.9999826 magnetization 
 augmentation part      396.9999826 magnetization 

 Free energy of the ion-electron system (eV)
  ---------------------------------------------------
  alpha Z        PSCENC =       782.23475481
  Ewald energy   TEWEN  =    197318.79244292
  -Hartree energ DENC   =   -244050.64709909
  -exchange      EXHF   =         0.00000000
  -V(xc)+E(xc)   XCENC  =      1538.37201765
  PAW double counting   =     46564.32209314   -50287.37986359
  entropy T*S    EENTRO =         0.00000000
  eigenvalues    EBANDS =     -1289.35982033
  atomic energy  EATOM  =     49286.20966074
  Solvation  Ediel_sol  =         0.00000000
  ---------------------------------------------------
  free energy    TOTEN  =      -137.45581376 eV

  energy without entropy =     -137.45581376  energy(sigma->0) =     -137.45581376


--------------------------------------------------------------------------------------------------------




 average (electrostatic) potential at core
  the test charge radii are     0.9430  1.2511  0.6991
  (the norm of the test charge is              1.0000)
       1 -71.3684       2 -71.3687       3 -71.3686       4 -71.3687       5 -71.3668
       6 -71.3684       7 -71.3686       8 -71.3684       9 -71.3774      10 -71.6423
      11 -71.6265      12 -71.6420      13 -71.6265      14 -71.6262      15 -71.6347
      16 -71.6420      17 -71.6347      18 -71.6347      19 -71.6033      20 -71.7292
      21 -71.7290      22 -71.6296      23 -71.7290      24 -71.6296      25 -71.6030
      26 -71.6033      27 -71.6296      28 -71.3499      29 -71.3616      30 -71.3616
      31 -71.3616      32 -71.3615      33 -71.3616      34 -71.3615      35 -71.3229
      36 -68.6597      37 -55.8342
 
 
 
 E-fermi :  -0.4238     XC(G=0):  -5.3577     alpha+bet : -4.8480

 Fermi energy:        -0.4237629013

 k-point     1 :       0.0000    0.0000    0.0000
  band No.  band energies     occupation 
      1     -10.0496      2.00000
      2      -9.1442      2.00000
      3      -7.8472      2.00000
      4      -6.3390      2.00000
      5      -6.2444      2.00000
      6      -6.2443      2.00000
      7      -6.2001      2.00000
      8      -6.2000      2.00000
      9      -6.1923      2.00000
     10      -6.1106      2.00000
     11      -5.5099      2.00000
     12      -5.4812      2.00000
     13      -5.4811      2.00000
     14      -5.4528      2.00000
     15      -5.4527      2.00000
     16      -5.4290      2.00000
     17      -5.2786      2.00000
     18      -4.8472      2.00000
     19      -4.8472      2.00000
     20      -4.7425      2.00000
     21      -4.7424      2.00000
     22      -4.7369      2.00000
     23      -4.6600      2.00000
     24      -4.5960      2.00000
     25      -4.5960      2.00000
     26      -4.5442      2.00000
     27      -4.4537      2.00000
     28      -4.4537      2.00000
     29      -4.4321      2.00000
     30      -4.4321      2.00000
     31      -4.4235      2.00000
     32      -4.3165      2.00000
     33      -4.2952      2.00000
     34      -4.2951      2.00000
     35      -4.2674      2.00000
     36      -4.2673      2.00000
     37      -4.2647      2.00000
     38      -4.2539      2.00000
     39      -4.2373      2.00000
     40      -4.2373      2.00000
     41      -4.2092      2.00000
     42      -4.1790      2.00000
     43      -4.1790      2.00000
     44      -4.1210      2.00000
     45      -4.1210      2.00000
     46      -4.0630      2.00000
     47      -4.0629      2.00000
     48      -4.0306      2.00000
     49      -4.0042      2.00000
     50      -3.9594      2.00000
     51      -3.9361      2.00000
     52      -3.9361      2.00000
     53      -3.9173      2.00000
     54      -3.8825      2.00000
     55      -3.8748      2.00000
     56      -3.7686      2.00000
     57      -3.7686      2.00000
     58      -3.6027      2.00000
     59      -3.5835      2.00000
     60      -3.5835      2.00000
     61      -3.5754      2.00000
     62      -3.5139      2.00000
     63      -3.5014      2.00000
     64      -3.5013      2.00000
     65      -3.4773      2.00000
     66      -3.4773      2.00000
     67      -3.4663      2.00000
     68      -3.4662      2.00000
     69      -3.4537      2.00000
     70      -3.4268      2.00000
     71      -3.4268      2.00000
     72      -3.4236      2.00000
     73      -3.3736      2.00000
     74      -3.3485      2.00000
     75      -3.3485      2.00000
     76      -3.3373      2.00000
     77      -3.3373      2.00000
     78      -3.2884      2.00000
     79      -3.2884      2.00000
     80      -3.2720      2.00000
     81      -3.2349      2.00000
     82      -3.2349      2.00000
     83      -3.2282      2.00000
     84      -3.2047      2.00000
     85      -3.2047      2.00000
     86      -3.1579      2.00000
     87      -3.1578      2.00000
     88      -3.1564      2.00000
     89      -3.1327      2.00000
     90      -3.1327      2.00000
     91      -3.1243      2.00000
     92      -3.0934      2.00000
     93      -3.0934      2.00000
     94      -3.0694      2.00000
     95      -3.0694      2.00000
     96      -3.0599      2.00000
     97      -3.0546      2.00000
     98      -3.0546      2.00000
     99      -3.0327      2.00000
    100      -3.0327      2.00000
    101      -3.0231      2.00000
    102      -3.0231      2.00000
    103      -3.0190      2.00000
    104      -2.9812      2.00000
    105      -2.9812      2.00000
    106      -2.9620      2.00000
    107      -2.9586      2.00000
    108      -2.9586      2.00000
    109      -2.8129      2.00000
    110      -2.8129      2.00000
    111      -2.7446      2.00000
    112      -2.7363      2.00000
    113      -2.7286      2.00000
    114      -2.7286      2.00000
    115      -2.7250      2.00000
    116      -2.7231      2.00000
    117      -2.7231      2.00000
    118      -2.7201      2.00000
    119      -2.7201      2.00000
    120      -2.7199      2.00000
    121      -2.6904      2.00000
    122      -2.6837      2.00000
    123      -2.5947      2.00000
    124      -2.5947      2.00000
    125      -2.5697      2.00000
    126      -2.5389      2.00000
    127      -2.5389      2.00000
    128      -2.5205      2.00000
    129      -2.5205      2.00000
    130      -2.4947      2.00000
    131      -2.4947      2.00000
    132      -2.4794      2.00000
    133      -2.4794      2.00000
    134      -2.4437      2.00000
    135      -2.4345      2.00000
    136      -2.4205      2.00000
    137      -2.4205      2.00000
    138      -2.4079      2.00000
    139      -2.4079      2.00000
    140      -2.4062      2.00000
    141      -2.3785      2.00000
    142      -2.3785      2.00000
    143      -2.3204      2.00000
    144      -2.2885      2.00000
    145      -2.2885      2.00000
    146      -2.2880      2.00000
    147      -2.2880      2.00000
    148      -2.2805      2.00000
    149      -2.2757      2.00000
    150      -2.2634      2.00000
    151      -2.2634      2.00000
    152      -2.2484      2.00000
    153      -2.2483      2.00000
    154      -2.2483      2.00000
    155      -2.1761      2.00000
    156      -2.1656      2.00000
    157      -2.1656      2.00000
    158      -2.1509      2.00000
    159      -2.1437      2.00000
    160      -2.1345      2.00000
    161      -2.1300      2.00000
    162      -2.1300      2.00000
    163      -2.1216      2.00000
    164      -2.1216      2.00000
    165      -2.1205      2.00000
    166      -2.1106      2.00000
    167      -2.1106      2.00000
    168      -2.0845      2.00000
    169      -2.0760      2.00000
    170      -2.0759      2.00000
    171      -2.0686      2.00000
    172      -2.0624      2.00000
    173      -2.0624      2.00000
    174      -2.0591      2.00000
    175      -2.0536      2.00000
    176      -2.0536      2.00000
    177      -2.0521      2.00000
    178      -2.0521      2.00000
    179      -2.0498      2.00000
    180      -2.0382      2.00000
    181      -2.0335      2.00000
    182      -2.0322      2.00000
    183      -2.0322      2.00000
    184      -2.0322      2.00000
    185      -2.0194      2.00000
    186      -2.0194      2.00000
    187      -1.9485      2.00000
    188      -1.9484      2.00000
    189      -1.9359      2.00000
    190      -1.9300      2.00000
    191      -1.9300      2.00000
    192      -1.9234      2.00000
    193      -1.8800      2.00000
    194      -1.8800      2.00000
    195      -1.3815      2.00000
    196      -1.0402      2.00000
    197      -1.0402      2.00000
    198      -0.7714      2.00000
    199      -0.7116      2.00000
    200      -0.6914      2.00000
    201      -0.6913      2.00000
    202      -0.6470      2.35029
    203      -0.6469      1.66220
    204      -0.3038      0.00000
    205       1.2870      0.00000
    206       1.5878      0.00000
    207       1.5879      0.00000
    208       1.5911      0.00000
    209       1.6802      0.00000
    210       1.6802      0.00000
    211       2.1036      0.00000
    212       2.1036      0.00000
    213       2.9895      0.00000
    214       3.0867      0.00000
    215       3.2858      0.00000
    216       3.2858      0.00000
    217       3.5245      0.00000
    218       3.5245      0.00000
    219       3.6774      0.00000
    220       4.0364      0.00000
    221       4.0740      0.00000
    222       4.0741      0.00000
    223       4.1177      0.00000
    224       4.1340      0.00000
    225       4.1340      0.00000
    226       4.3867      0.00000
    227       4.3867      0.00000
    228       4.4547      0.00000
    229       4.7479      0.00000
    230       4.7490      0.00000
    231       4.7490      0.00000
    232       4.9881      0.00000
    233       5.1037      0.00000
    234       5.4580      0.00000
    235       5.9358      0.00000
    236       5.9359      0.00000
    237       6.2142      0.00000
    238       6.2144      0.00000
    239       6.3021      0.00000
    240       6.4376      0.00000
    241       6.4382      0.00000
    242       6.4931      0.00000
    243       6.6518      0.00000
    244       6.6529      0.00000
    245       6.6996      0.00000
    246       7.0057      0.00000
    247       7.0151      0.00000
    248       7.0595      0.00000
    249       7.0819      0.00000
    250       7.0966      0.00000
    251       7.1287      0.00000
    252       7.1601      0.00000

 k-point     2 :       0.1250   -0.0000    0.0000
  band No.  band energies     occupation 
      1     -10.0460      2.00000
      2      -9.0925      2.00000
      3      -7.7961      2.00000
      4      -6.7658      2.00000
      5      -6.4626      2.00000
      6      -6.4413      2.00000
      7      -6.2463      2.00000
      8      -5.9377      2.00000
      9      -5.9056      2.00000
     10      -5.7709      2.00000
     11      -5.7304      2.00000
     12      -5.5872      2.00000
     13      -5.5237      2.00000
     14      -5.4575      2.00000
     15      -5.3240      2.00000
     16      -5.2574      2.00000
     17      -5.2041      2.00000
     18      -4.8570      2.00000
     19      -4.8291      2.00000
     20      -4.7822      2.00000
     21      -4.7317      2.00000
     22      -4.7252      2.00000
     23      -4.6569      2.00000
     24      -4.6098      2.00000
     25      -4.5940      2.00000
     26      -4.5489      2.00000
     27      -4.4843      2.00000
     28      -4.4600      2.00000
     29      -4.4291      2.00000
     30      -4.4018      2.00000
     31      -4.4013      2.00000
     32      -4.3834      2.00000
     33      -4.3651      2.00000
     34      -4.3320      2.00000
     35      -4.3149      2.00000
     36      -4.3097      2.00000
     37      -4.2778      2.00000
     38      -4.2759      2.00000
     39      -4.2322      2.00000
     40      -4.2091      2.00000
     41      -4.1744      2.00000
     42      -4.1520      2.00000
     43      -4.1449      2.00000
     44      -4.1088      2.00000
     45      -4.0982      2.00000
     46      -4.0525      2.00000
     47      -4.0447      2.00000
     48      -4.0300      2.00000
     49      -4.0134      2.00000
     50      -3.9912      2.00000
     51      -3.9277      2.00000
     52      -3.9030      2.00000
     53      -3.8909      2.00000
     54      -3.8575      2.00000
     55      -3.8525      2.00000
     56      -3.7691      2.00000
     57      -3.7570      2.00000
     58      -3.6768      2.00000
     59      -3.6459      2.00000
     60      -3.6306      2.00000
     61      -3.5792      2.00000
     62      -3.5352      2.00000
     63      -3.5262      2.00000
     64      -3.5103      2.00000
     65      -3.5038      2.00000
     66      -3.4779      2.00000
     67      -3.4729      2.00000
     68      -3.4633      2.00000
     69      -3.4543      2.00000
     70      -3.4262      2.00000
     71      -3.4097      2.00000
     72      -3.4067      2.00000
     73      -3.3748      2.00000
     74      -3.3545      2.00000
     75      -3.3475      2.00000
     76      -3.3204      2.00000
     77      -3.3108      2.00000
     78      -3.2957      2.00000
     79      -3.2739      2.00000
     80      -3.2651      2.00000
     81      -3.2486      2.00000
     82      -3.2459      2.00000
     83      -3.2221      2.00000
     84      -3.2050      2.00000
     85      -3.2019      2.00000
     86      -3.1850      2.00000
     87      -3.1660      2.00000
     88      -3.1639      2.00000
     89      -3.1523      2.00000
     90      -3.1341      2.00000
     91      -3.1075      2.00000
     92      -3.1065      2.00000
     93      -3.0995      2.00000
     94      -3.0990      2.00000
     95      -3.0635      2.00000
     96      -3.0578      2.00000
     97      -3.0478      2.00000
     98      -3.0360      2.00000
     99      -3.0256      2.00000
    100      -3.0188      2.00000
    101      -3.0178      2.00000
    102      -3.0071      2.00000
    103      -3.0048      2.00000
    104      -2.9846      2.00000
    105      -2.9842      2.00000
    106      -2.9599      2.00000
    107      -2.9497      2.00000
    108      -2.9362      2.00000
    109      -2.9117      2.00000
    110      -2.8906      2.00000
    111      -2.8774      2.00000
    112      -2.8531      2.00000
    113      -2.8179      2.00000
    114      -2.7896      2.00000
    115      -2.7470      2.00000
    116      -2.7316      2.00000
    117      -2.7268      2.00000
    118      -2.7248      2.00000
    119      -2.7143      2.00000
    120      -2.7100      2.00000
    121      -2.7025      2.00000
    122      -2.6972      2.00000
    123      -2.6761      2.00000
    124      -2.6555      2.00000
    125      -2.5565      2.00000
    126      -2.5492      2.00000
    127      -2.5426      2.00000
    128      -2.5423      2.00000
    129      -2.5052      2.00000
    130      -2.4912      2.00000
    131      -2.4862      2.00000
    132      -2.4847      2.00000
    133      -2.4746      2.00000
    134      -2.4742      2.00000
    135      -2.4668      2.00000
    136      -2.4514      2.00000
[...]
  0.000   0.000   0.000   0.000   0.000   0.000   0.000   0.000   0.000   0.000   0.000   0.000   0.000   0.000   0.000   0.000
  0.000   0.000   0.000   0.000   0.000   0.000   0.000   0.000   0.000   0.000   0.000   0.000   0.000   0.000   0.000   0.000
  0.000   0.000   0.000   0.000   0.000   0.000   0.000   0.000   0.000   0.000   0.000   0.000   0.000   0.000   0.000   0.000
  0.000   0.000   0.000   0.000   0.000   0.000   0.000   0.000   0.000   0.000   0.000   0.000   0.000   0.000   0.000   0.000
  0.000   0.000   0.000   0.000   0.000   0.000   0.000   0.000   0.000   0.000   0.000   0.000   0.000   0.000   0.000   0.000
  0.000   0.000   0.000   0.000   0.000   0.000   0.000   0.000   0.000   0.000   1.000   0.000   0.000   0.000   0.000   0.000
  0.000   0.000   0.000   0.000   0.000   0.000   0.000   0.000   0.000   0.000   0.000   0.000   0.000   0.000   0.000   0.000
  0.000   0.000   0.000   0.000   0.000   0.000   0.000   0.000   0.000   0.000   0.000   0.000   0.000   0.000   0.000   0.000
  0.000   0.000   0.000   0.000   0.000   0.000   0.000   0.000   0.000   0.000   0.000   0.000   0.000   0.000   0.000   0.000
  0.000   0.000   0.000   0.000   0.000   0.000   0.000   0.000   0.000   0.000   0.000   0.000   0.000   0.000   0.000   0.000
  0.000   0.000   0.000   0.000   0.000   0.000   0.000   0.000   0.000   0.000   0.000   0.000   0.000   0.000   0.000   0.000
  0.000   0.000   0.000   0.000   0.000   0.000   0.000   0.000   0.000   0.000   0.000   0.000   0.000   0.000   0.000   0.000
  0.000   0.000   0.000   0.000   0.000   0.000   0.000   0.000   0.000   0.000   0.000   0.000   0.000   0.000   0.000   0.000


------------------------ aborting loop because EDIFF is reached ----------------------------------------





 total charge

# of ion       s       p       d       tot
------------------------------------------
    1        0.449   0.285   9.188   9.921
    2        0.448   0.285   9.186   9.919
    3        0.448   0.285   9.186   9.919
    4        0.448   0.285   9.186   9.919
    5        0.448   0.284   9.187   9.920
    6        0.448   0.285   9.186   9.919
    7        0.448   0.285   9.186   9.919
    8        0.448   0.285   9.186   9.919
    9        0.446   0.285   9.187   9.918
   10        0.440   0.371   9.178   9.989
   11        0.440   0.370   9.180   9.990
   12        0.440   0.371   9.178   9.989
   13        0.440   0.370   9.180   9.990
   14        0.440   0.370   9.180   9.990
   15        0.438   0.369   9.177   9.984
   16        0.440   0.371   9.178   9.989
   17        0.438   0.369   9.177   9.984
   18        0.438   0.369   9.177   9.984
   19        0.443   0.367   9.183   9.993
   20        0.454   0.388   9.176  10.018
   21        0.454   0.388   9.176  10.018
   22        0.433   0.375   9.178   9.986
   23        0.454   0.388   9.176  10.018
   24        0.433   0.375   9.178   9.986
   25        0.443   0.367   9.183   9.993
   26        0.443   0.367   9.183   9.993
   27        0.433   0.375   9.178   9.986
   28        0.456   0.287   9.191   9.935
   29        0.448   0.303   9.188   9.940
   30        0.448   0.303   9.188   9.940
   31        0.448   0.303   9.188   9.940
   32        0.448   0.303   9.188   9.940
   33        0.448   0.303   9.188   9.940
   34        0.448   0.303   9.188   9.940
   35        0.450   0.289   9.193   9.933
   36        0.692   0.782   7.052   8.525
   37        1.018   1.215   0.000   2.232
--------------------------------------------------
tot         17.284  13.676 328.459 359.419
 
    CHARGE:  cpu time    0.2623: real time    0.2624
    FORLOC:  cpu time    0.0085: real time    0.0086
    FORNL :  cpu time    1.3665: real time    1.3666
    STRESS:  cpu time    4.0637: real time    4.0641
    FORCOR:  cpu time    0.0325: real time    0.0325
    FORHAR:  cpu time    0.0133: real time    0.0134
    OFIELD:  cpu time    0.0001: real time    0.0001

  FORCE on cell =-STRESS in cart. coord.  units (eV):
  Direction    XX          YY          ZZ          XY          YZ          ZX
  --------------------------------------------------------------------------------------
  Alpha Z   782.23475   782.23475   782.23475
  Ewald  223253.48296223253.48254************     0.00038     0.00012     0.00017
  Hartree235921.02189235921.02187************     0.00004     0.00006     0.00007
  E(xc)   -2299.08775 -2299.08726 -2304.00254    -0.00043    -0.00004    -0.00006
  Local  ************************472586.20944     0.01858    -0.00056    -0.00091
  n-local  -749.25625  -733.97068  -748.54443     8.31961    -0.00121     0.13182
  augment  3355.00967  3355.03024  3364.52756    -0.01781     0.00031     0.00052
  Kinetic  3283.74418  3286.80030  3290.92604     3.20704     1.69909    -1.46551
  Fock        0.00000     0.00000     0.00000     0.00000     0.00000     0.00000
  -------------------------------------------------------------------------------------
  Total      -2.79673    -2.79673     0.95418     0.00000     0.00000     0.00000
  in kB      -3.67131    -3.67131     1.25256     0.00000     0.00000     0.00000
  external pressure =       -2.03 kB  Pullay stress =        0.00 kB


 VOLUME and BASIS-vectors are now :
 -----------------------------------------------------------------------------
  energy-cutoff  :      500.00
  volume of cell :     1220.51
      direct lattice vectors                 reciprocal lattice vectors
     7.696786404  0.000000000  0.000000000     0.129924354 -0.075011849  0.000000000
     3.848392758  6.665612809  0.000000000     0.000000000  0.150023716  0.000000000
     0.000000000  0.000000000 23.789778673     0.000000000  0.000000000  0.042034859

  length of vectors
     7.696786404  7.696786404 23.789778673     0.150023716  0.150023716  0.042034859


 FORCES acting on ions
    electron-ion (+dipol)            ewald-force                    non-local-force                 convergence-correction
 -----------------------------------------------------------------------------------------------
   -.423E-04 -.248E-06 0.372E+04   0.580E-04 -.435E-05 -.372E+04   -.102E-17 -.435E-18 -.218E+01   -.354E-03 -.172E-03 -.393E+00
   -.243E+00 -.414E-02 0.372E+04   0.215E+00 0.353E-01 -.372E+04   -.232E-01 0.128E-01 -.202E+01   0.502E-01 -.446E-01 -.375E+00
   0.243E+00 -.411E-02 0.372E+04   -.215E+00 0.353E-01 -.372E+04   0.232E-01 0.128E-01 -.202E+01   -.493E-01 -.421E-01 -.374E+00
   -.125E+00 -.208E+00 0.372E+04   0.138E+00 0.168E+00 -.372E+04   -.481E-03 -.265E-01 -.202E+01   -.134E-01 0.657E-01 -.375E+00
   -.637E-04 -.454E-05 0.372E+04   0.116E-03 -.101E-04 -.372E+04   0.352E-17 0.222E-17 -.208E+01   0.121E-01 0.743E-02 -.339E+00
   0.125E+00 -.208E+00 0.372E+04   -.138E+00 0.168E+00 -.372E+04   0.481E-03 -.265E-01 -.202E+01   0.118E-01 0.669E-01 -.373E+00
   0.118E+00 0.212E+00 0.372E+04   -.769E-01 -.204E+00 -.372E+04   0.227E-01 0.137E-01 -.202E+01   -.611E-01 -.217E-01 -.373E+00
   -.118E+00 0.212E+00 0.372E+04   0.766E-01 -.204E+00 -.372E+04   -.227E-01 0.137E-01 -.202E+01   0.645E-01 -.232E-01 -.373E+00
   -.145E-03 -.333E-04 0.372E+04   0.263E-03 0.205E-04 -.372E+04   0.355E-17 0.109E-17 -.218E+01   -.131E-01 -.678E-02 -.342E+00
   -.991E-01 -.572E-01 0.125E+04   0.173E+00 0.997E-01 -.125E+04   -.176E+00 -.102E+00 -.695E+00   0.790E-01 0.456E-01 -.349E+00
   -.888E-04 -.247E+00 0.125E+04   0.190E-03 0.273E+00 -.125E+04   -.439E-08 0.659E-01 -.834E+00   0.119E-01 -.104E+00 -.423E+00
   0.992E-01 -.571E-01 0.125E+04   -.173E+00 0.996E-01 -.125E+04   0.176E+00 -.102E+00 -.695E+00   -.809E-01 0.467E-01 -.348E+00
   -.214E+00 0.124E+00 0.125E+04   0.236E+00 -.137E+00 -.125E+04   0.571E-01 -.329E-01 -.834E+00   -.837E-01 0.632E-01 -.423E+00
   0.214E+00 0.124E+00 0.125E+04   -.236E+00 -.137E+00 -.125E+04   -.571E-01 -.329E-01 -.834E+00   0.107E+00 0.616E-01 -.425E+00
   -.140E-03 -.114E+01 0.125E+04   0.298E-03 0.898E+00 -.125E+04   -.431E-08 0.647E-01 -.691E+00   -.346E-02 0.171E+00 -.416E+00
   -.890E-04 0.114E+00 0.125E+04   0.186E-03 -.199E+00 -.125E+04   -.136E-07 0.204E+00 -.695E+00   -.900E-03 -.946E-01 -.349E+00
   -.990E+00 0.572E+00 0.125E+04   0.778E+00 -.449E+00 -.125E+04   0.560E-01 -.323E-01 -.691E+00   0.147E+00 -.884E-01 -.417E+00
   0.990E+00 0.572E+00 0.125E+04   -.778E+00 -.449E+00 -.125E+04   -.560E-01 -.323E-01 -.691E+00   -.145E+00 -.856E-01 -.415E+00
   -.594E-04 -.187E+01 -.123E+04   0.690E-04 0.186E+01 0.123E+04   0.523E-08 -.785E-01 0.866E+00   -.984E-03 0.738E-01 -.720E+00
   -.256E+02 -.148E+02 -.125E+04   0.257E+02 0.148E+02 0.125E+04   -.299E+00 -.173E+00 0.275E+00   -.484E-01 -.281E-01 -.703E+00
   0.256E+02 -.148E+02 -.125E+04   -.257E+02 0.148E+02 0.125E+04   0.299E+00 -.173E+00 0.275E+00   0.499E-01 -.299E-01 -.705E+00
   -.157E+02 0.909E+01 -.124E+04   0.153E+02 -.883E+01 0.124E+04   0.512E+00 -.296E+00 0.103E+01   0.538E-03 0.124E-01 -.831E+00
   -.844E-04 0.295E+02 -.125E+04   0.146E-03 -.297E+02 0.125E+04   -.230E-07 0.345E+00 0.275E+00   -.212E-02 0.570E-01 -.705E+00
   0.157E+02 0.909E+01 -.124E+04   -.153E+02 -.883E+01 0.124E+04   -.512E+00 -.296E+00 0.103E+01   0.213E-01 0.114E-01 -.830E+00
   0.162E+01 0.936E+00 -.123E+04   -.161E+01 -.932E+00 0.123E+04   0.680E-01 0.392E-01 0.866E+00   -.648E-01 -.374E-01 -.720E+00
   -.162E+01 0.936E+00 -.123E+04   0.161E+01 -.932E+00 0.123E+04   -.680E-01 0.392E-01 0.866E+00   0.638E-01 -.376E-01 -.720E+00
   -.121E-03 -.182E+02 -.124E+04   0.242E-03 0.177E+02 0.124E+04   -.394E-07 0.591E+00 0.103E+01   0.110E-01 -.579E-02 -.831E+00
   -.386E-04 0.155E-04 -.367E+04   0.395E-04 -.331E-04 0.367E+04   -.139E-16 -.508E-17 0.216E+01   -.190E-02 -.104E-02 0.354E-01
   -.156E+02 -.248E+02 -.368E+04   0.155E+02 0.244E+02 0.367E+04   -.963E-01 0.127E+00 0.284E+01   0.407E-01 0.901E-01 -.467E-01
   0.156E+02 -.248E+02 -.368E+04   -.155E+02 0.244E+02 0.367E+04   0.963E-01 0.127E+00 0.284E+01   -.181E-01 0.916E-01 -.475E-01
   -.293E+02 -.113E+01 -.368E+04   0.289E+02 0.129E+01 0.367E+04   0.621E-01 -.147E+00 0.284E+01   0.985E-01 -.985E-02 -.467E-01
   0.293E+02 -.113E+01 -.368E+04   -.289E+02 0.129E+01 0.367E+04   -.621E-01 -.147E+00 0.284E+01   -.772E-01 -.921E-02 -.465E-01
   -.137E+02 0.259E+02 -.368E+04   0.133E+02 -.256E+02 0.367E+04   0.158E+00 0.198E-01 0.284E+01   0.703E-01 -.615E-01 -.475E-01
   0.137E+02 0.259E+02 -.368E+04   -.133E+02 -.256E+02 0.367E+04   -.158E+00 0.198E-01 0.284E+01   -.459E-01 -.623E-01 -.464E-01
   -.149E-03 -.267E-04 -.368E+04   0.254E-03 0.357E-05 0.368E+04   -.127E-17 -.300E-18 0.260E+01   -.142E-01 -.737E-02 0.127E+00
   -.486E-04 -.263E-04 -.251E+04   0.100E-03 0.198E-04 0.252E+04   -.319E-17 -.440E-17 -.562E+01   0.634E-03 0.407E-03 -.560E-01
   0.538E-04 -.213E-04 -.162E+04   0.126E-04 0.567E-05 0.163E+04   -.990E-19 0.726E-19 -.101E+02   0.458E-03 0.278E-03 0.476E-01
 -----------------------------------------------------------------------------------------------
   -.156E-03 -.302E-05 0.264E+02   -.603E-13 0.583E-13 0.296E-11   0.232E-16 0.110E-15 -.126E+02   0.116E+00 0.637E-01 -.138E+02
 
 
 POSITION                                       TOTAL-FORCE (eV/Angst)
 -----------------------------------------------------------------------------------
      0.00000      0.00000      5.37156         0.000000     -0.000000      0.047478
      2.56560      0.00000      5.37156        -0.000573      0.000510      0.067412
      5.13119      0.00000      5.37156         0.000573      0.000510      0.067412
      1.28280      2.22187      5.37156         0.000155     -0.000752      0.067412
      3.84839      2.22187      5.37156         0.000000     -0.000000      0.046346
      6.41399      2.22187      5.37156        -0.000155     -0.000752      0.067412
      2.56560      4.44374      5.37156         0.000728      0.000242      0.067412
      5.13119      4.44374      5.37156        -0.000728      0.000242      0.067412
      7.69679      4.44374      5.37156         0.000000     -0.000000      0.057062
      1.28280      0.74062      7.46636        -0.021961     -0.012679     -0.057826
      3.84839      0.74062      7.46636         0.000000     -0.018911     -0.071732
      6.41399      0.74062      7.46636         0.021961     -0.012679     -0.057826
      2.56560      2.96249      7.46636        -0.016377      0.009455     -0.071732
      5.13119      2.96249      7.46636         0.016377      0.009455     -0.071732
      7.69679      2.96249      7.46636         0.000000     -0.010641     -0.006015
      3.84839      5.18437      7.46636        -0.000000      0.025358     -0.057826
      6.41399      5.18437      7.46636        -0.009215      0.005320     -0.006015
      8.97958      5.18437      7.46636         0.009215      0.005320     -0.006015
      7.69679      1.48414      9.55535         0.000000     -0.011823      0.037646
      2.56128      1.47875      9.53998        -0.239047     -0.138014     -0.316614
      5.13551      1.47875      9.53998         0.239047     -0.138014     -0.316614
      8.97644      3.70493      9.56275         0.048875     -0.028218      0.032657
      3.84839      3.70811      9.53998        -0.000000      0.276027     -0.316614
      6.41713      3.70493      9.56275        -0.048875     -0.028218      0.032657
     10.25987      5.92354      9.55535         0.010239      0.005911      0.037646
      5.13370      5.92354      9.55535        -0.010239      0.005911      0.037646
      7.69679      5.92136      9.56275        -0.000000      0.056436      0.032657
      0.00000      0.00000     11.63109         0.000000     -0.000000     -0.041375
      6.40750      6.66078     11.65531        -0.127964     -0.220658     -0.104922
      8.98608      6.66078     11.65531         0.127964     -0.220658     -0.104922
      8.97216      2.21866     11.65531        -0.255077     -0.000491     -0.104922
      6.42142      2.21866     11.65531         0.255077     -0.000491     -0.104922
     10.26144      4.45178     11.65531        -0.127114      0.221149     -0.104922
      5.13213      4.45178     11.65531         0.127114      0.221149     -0.104922
      7.69679      4.44374     11.63516         0.000000     -0.000000     -0.030041
      3.84839      2.22187     11.61289         0.000000     -0.000000      1.258610
      3.84839      2.22187     13.31392         0.000000     -0.000000      0.032629
 -----------------------------------------------------------------------------------
    total drift:                                0.115420      0.063663     -0.011126


--------------------------------------------------------------------------------------------------------



  FREE ENERGIE OF THE ION-ELECTRON SYSTEM (eV)
  ---------------------------------------------------
  free  energy   TOTEN  =      -137.45581376 eV

  energy  without entropy=     -137.45581376  energy(sigma->0) =     -137.45581376
 


--------------------------------------------------------------------------------------------------------


    POTLOK:  cpu time    0.0329: real time    0.0329


--------------------------------------------------------------------------------------------------------


 stress matrix after NEB project (eV)
     -2.79673      0.00000      0.00000
      0.00000     -2.79673      0.00000
      0.00000      0.00000      0.95418
  FORCES: max atom, RMS     0.032629    0.005364
  FORCE total and by dimension    0.032629    0.032629
  Stress total and by dimension    4.068641    2.796729
     LOOP+:  cpu time   69.9423: real time   69.9577
 -----------------------------------------------------------------------------
|                                                                             |
|           W    W    AA    RRRRR   N    N  II  N    N   GGGG   !!!           |
|           W    W   A  A   R    R  NN   N  II  NN   N  G    G  !!!           |
|           W    W  A    A  R    R  N N  N  II  N N  N  G       !!!           |
|           W WW W  AAAAAA  RRRRR   N  N N  II  N  N N  G  GGG   !            |
|           WW  WW  A    A  R   R   N   NN  II  N   NN  G    G                |
|           W    W  A    A  R    R  N    N  II  N    N   GGGG   !!!           |
|                                                                             |
|     Tetrahedron method does not include variations of the Fermi             |
|     occupations, so forces and stress will be inaccurate. We suggest        |
|     using a different smearing scheme ISMEAR = 1 or 2 for metals in         |
|     relaxations.                                                            |
|                                                                             |
 -----------------------------------------------------------------------------

    4ORBIT:  cpu time    0.0000: real time    0.0000



 total charge

# of ion       s       p       d       tot
------------------------------------------
    1        0.449   0.285   9.188   9.921
    2        0.448   0.285   9.186   9.919
    3        0.448   0.285   9.186   9.919
    4        0.448   0.285   9.186   9.919
    5        0.448   0.284   9.187   9.920
    6        0.448   0.285   9.186   9.919
    7        0.448   0.285   9.186   9.919
    8        0.448   0.285   9.186   9.919
    9        0.446   0.285   9.187   9.918
   10        0.440   0.371   9.178   9.989
   11        0.440   0.370   9.180   9.990
   12        0.440   0.371   9.178   9.989
   13        0.440   0.370   9.180   9.990
   14        0.440   0.370   9.180   9.990
   15        0.438   0.369   9.177   9.984
   16        0.440   0.371   9.178   9.989
   17        0.438   0.369   9.177   9.984
   18        0.438   0.369   9.177   9.984
   19        0.443   0.367   9.183   9.993
   20        0.454   0.388   9.176  10.018
   21        0.454   0.388   9.176  10.018
   22        0.433   0.375   9.178   9.986
   23        0.454   0.388   9.176  10.018
   24        0.433   0.375   9.178   9.986
   25        0.443   0.367   9.183   9.993
   26        0.443   0.367   9.183   9.993
   27        0.433   0.375   9.178   9.986
   28        0.456   0.287   9.191   9.935
   29        0.448   0.303   9.188   9.940
   30        0.448   0.303   9.188   9.940
   31        0.448   0.303   9.188   9.940
   32        0.448   0.303   9.188   9.940
   33        0.448   0.303   9.188   9.940
   34        0.448   0.303   9.188   9.940
   35        0.450   0.289   9.193   9.933
   36        0.692   0.782   7.052   8.525
   37        1.018   1.215   0.000   2.232
--------------------------------------------------
tot         17.284  13.676 328.459 359.419
 
 BZINTS: Fermi energy:   -0.423763;  397.000000 electrons
         Band energy:-0.128936E+04;  BLOECHL correction:   -0.065045

 total amount of memory used by VASP MPI-rank0   112564. kBytes
=======================================================================

   base      :      30000. kBytes
   nonlr-proj:      18467. kBytes
   fftplans  :       3394. kBytes
   grid      :      14446. kBytes
   one-center:        575. kBytes
   wavefun   :      45682. kBytes
 
  
  
 General timing and accounting informations for this job:
 ========================================================
  
                  Total CPU time used (sec):       76.403
                            User time (sec):       73.519
                          System time (sec):        2.884
                         Elapsed time (sec):       76.885
  
                   Maximum memory used (kb):      358128.
                   Average memory used (kb):          N/A
  
                          Minor page faults:        75775
                          Major page faults:            0
                 Voluntary context switches:         4888
