PROCAR new format
# of k-points:   10         # of bands:  252         # of ions:   37

 k-point     1 :    0.00000000 0.00000000 0.00000000     weight = 0.01562500

band     1 # energy  -10.04959633 # occ.  2.00000000
 
ion      s      p      d    tot
    1  0.000  0.000  0.000  0.000
    2  0.000  0.000  0.000  0.000
    3  0.000  0.000  0.000  0.000
    4  0.000  0.000  0.000  0.000
    5  0.000  0.000  0.000  0.000
    6  0.000  0.000  0.000  0.000
    7  0.000  0.000  0.000  0.000
    8  0.000  0.000  0.000  0.000
    9  0.000  0.000  0.000  0.000
   10  0.000  0.000  0.000  0.001
   11  0.001  0.000  0.000  0.001
   12  0.000  0.000  0.000  0.001
   13  0.001  0.000  0.000  0.001
   14  0.001  0.000  0.000  0.001
   15  0.000  0.000  0.000  0.000
   16  0.000  0.000  0.000  0.001
   17  0.000  0.000  0.000  0.000
   18  0.000  0.000  0.000  0.000
   19  0.001  0.000  0.000  0.001
   20  0.005  0.001  0.001  0.006
   21  0.005  0.001  0.001  0.006
   22  0.001  0.000  0.000  0.001
   23  0.005  0.001  0.001  0.006
   24  0.001  0.000  0.000  0.001
   25  0.001  0.000  0.000  0.001
   26  0.001  0.000  0.000  0.001
   27  0.001  0.000  0.000  0.001
   28  0.001  0.000  0.000  0.001
   29  0.002  0.000  0.000  0.002
   30  0.002  0.000  0.000  0.002
   31  0.002  0.000  0.000  0.002
   32  0.002  0.000  0.000  0.002
   33  0.002  0.000  0.000  0.002
   34  0.002  0.000  0.000  0.002
   35  0.001  0.000  0.000  0.001
   36  0.129  0.064  0.237  0.430
   37  0.405  0.025  0.000  0.430
tot    0.574  0.093  0.241  0.908
 
band     2 # energy   -9.14419506 # occ.  2.00000000
 
ion      s      p      d    tot
    1  0.007  0.001  0.000  0.008
    2  0.007  0.001  0.000  0.008
    3  0.007  0.001  0.000  0.008
    4  0.007  0.001  0.000  0.008
    5  0.007  0.001  0.000  0.008
    6  0.007  0.001  0.000  0.008
    7  0.007  0.001  0.000  0.008
    8  0.007  0.001  0.000  0.008
    9  0.007  0.001  0.000  0.008
   10  0.026  0.000  0.000  0.026
   11  0.025  0.000  0.000  0.025
   12  0.026  0.000  0.000  0.026
   13  0.025  0.000  0.000  0.025
   14  0.025  0.000  0.000  0.025
   15  0.025  0.000  0.000  0.026
   16  0.026  0.000  0.000  0.026
   17  0.025  0.000  0.000  0.026
   18  0.025  0.000  0.000  0.026
   19  0.023  0.000  0.000  0.023
   20  0.020  0.000  0.000  0.021
   21  0.020  0.000  0.000  0.021
   22  0.023  0.000  0.000  0.023
   23  0.020  0.000  0.000  0.021
   24  0.023  0.000  0.000  0.023
   25  0.023  0.000  0.000  0.023
   26  0.023  0.000  0.000  0.023
   27  0.023  0.000  0.000  0.023
   28  0.006  0.001  0.000  0.006
   29  0.004  0.001  0.000  0.005
   30  0.004  0.001  0.000  0.005
   31  0.004  0.001  0.000  0.005
   32  0.004  0.001  0.000  0.005
   33  0.004  0.001  0.000  0.005
   34  0.004  0.001  0.000  0.005
   35  0.006  0.001  0.000  0.006
   36  0.000  0.011  0.016  0.027
   37  0.025  0.001  0.000  0.026
tot    0.555  0.029  0.017  0.601
 
band     3 # energy   -7.84716744 # occ.  2.00000000
 
ion      s      p      d    tot
    1  0.018  0.001  0.001  0.019
    2  0.018  0.001  0.001  0.019
    3  0.018  0.001  0.001  0.019
    4  0.018  0.001  0.001  0.019
    5  0.018  0.001  0.001  0.019
    6  0.018  0.001  0.001  0.019
    7  0.018  0.001  0.001  0.019
    8  0.018  0.001  0.001  0.019
    9  0.017  0.001  0.001  0.019
   10  0.009  0.002  0.001  0.011
   11  0.009  0.002  0.000  0.012
   12  0.009  0.002  0.001  0.011
   13  0.009  0.002  0.000  0.012
   14  0.009  0.002  0.000  0.012
   15  0.008  0.002  0.001  0.011
   16  0.009  0.002  0.001  0.011
   17  0.008  0.002  0.001  0.011
   18  0.008  0.002  0.001  0.011
   19  0.013  0.002  0.001  0.016
   20  0.009  0.002  0.001  0.011
   21  0.009  0.002  0.001  0.011
   22  0.013  0.002  0.001  0.015
   23  0.009  0.002  0.001  0.011
   24  0.013  0.002  0.001  0.015
   25  0.013  0.002  0.001  0.016
   26  0.013  0.002  0.001  0.016
   27  0.013  0.002  0.001  0.015
   28  0.020  0.001  0.000  0.022
   29  0.018  0.001  0.001  0.019
   30  0.018  0.001  0.001  0.019
   31  0.018  0.001  0.001  0.019
   32  0.018  0.001  0.001  0.019
   33  0.018  0.001  0.001  0.019
   34  0.018  0.001  0.001  0.019
   35  0.020  0.001  0.000  0.021
   36  0.009  0.006  0.017  0.032
   37  0.008  0.000  0.000  0.008
tot    0.501  0.060  0.037  0.598
 
band     4 # energy   -6.33896533 # occ.  2.00000000
 
ion      s      p      d    tot
    1  0.014  0.000  0.005  0.019
    2  0.013  0.000  0.005  0.018
    3  0.013  0.000  0.005  0.018
    4  0.013  0.000  0.005  0.018
    5  0.004  0.000  0.006  0.011
    6  0.013  0.000  0.005  0.018
    7  0.013  0.000  0.005  0.018
    8  0.013  0.000  0.005  0.018
    9  0.023  0.000  0.003  0.026
   10  0.002  0.003  0.002  0.008
   11  0.012  0.005  0.001  0.018
   12  0.002  0.003  0.002  0.008
   13  0.012  0.005  0.001  0.018
   14  0.012  0.005  0.001  0.018
   15  0.000  0.002  0.004  0.006
   16  0.002  0.003  0.002  0.008
   17  0.000  0.002  0.004  0.006
   18  0.000  0.002  0.004  0.006
   19  0.001  0.002  0.006  0.009
   20  0.022  0.005  0.004  0.031
   21  0.022  0.005  0.004  0.031
   22  0.000  0.004  0.004  0.008
   23  0.022  0.005  0.004  0.031
   24  0.000  0.004  0.004  0.008
   25  0.001  0.002  0.006  0.009
   26  0.001  0.002  0.006  0.009
   27  0.000  0.004  0.004  0.008
   28  0.020  0.000  0.005  0.025
   29  0.016  0.000  0.007  0.023
   30  0.016  0.000  0.007  0.023
   31  0.016  0.000  0.007  0.023
   32  0.016  0.000  0.007  0.023
   33  0.016  0.000  0.007  0.023
   34  0.016  0.000  0.007  0.023
   35  0.025  0.000  0.005  0.030
   36  0.003  0.004  0.041  0.047
   37  0.001  0.002  0.000  0.003
tot    0.373  0.074  0.195  0.642
 
band     5 # energy   -6.24441716 # occ.  2.00000000
 
ion      s      p      d    tot
    1  0.000  0.002  0.005  0.007
    2  0.009  0.002  0.002  0.013
    3  0.001  0.001  0.002  0.004
    4  0.009  0.002  0.002  0.013
    5  0.000  0.002  0.003  0.006
    6  0.004  0.001  0.002  0.007
    7  0.001  0.001  0.002  0.004
    8  0.004  0.001  0.002  0.007
    9  0.000  0.000  0.002  0.002
   10  0.054  0.005  0.003  0.062
   11  0.008  0.009  0.004  0.021
   12  0.013  0.002  0.012  0.027
   13  0.007  0.009  0.004  0.021
   14  0.030  0.001  0.006  0.037
   15  0.001  0.005  0.006  0.012
   16  0.014  0.002  0.012  0.027
   17  0.001  0.005  0.006  0.012
   18  0.003  0.002  0.003  0.009
   19  0.006  0.010  0.003  0.019
   20  0.069  0.003  0.006  0.078
   21  0.017  0.003  0.015  0.035
   22  0.002  0.004  0.009  0.015
   23  0.017  0.003  0.015  0.035
   24  0.010  0.003  0.003  0.016
   25  0.022  0.000  0.007  0.029
   26  0.006  0.010  0.003  0.019
   27  0.002  0.004  0.009  0.015
   28  0.000  0.002  0.003  0.006
   29  0.010  0.003  0.003  0.017
   30  0.003  0.001  0.002  0.007
   31  0.010  0.003  0.003  0.017
   32  0.002  0.001  0.003  0.007
   33  0.003  0.001  0.002  0.007
   34  0.002  0.001  0.003  0.007
   35  0.000  0.000  0.003  0.003
   36  0.000  0.005  0.027  0.032
   37  0.000  0.001  0.000  0.001
tot    0.340  0.114  0.200  0.653
 
band     6 # energy   -6.24430134 # occ.  2.00000000
 
ion      s      p      d    tot
    1  0.000  0.002  0.005  0.007
    2  0.000  0.001  0.002  0.003
    3  0.008  0.002  0.002  0.012
    4  0.000  0.001  0.002  0.003
    5  0.000  0.002  0.003  0.006
    6  0.005  0.002  0.002  0.009
    7  0.008  0.002  0.002  0.012
    8  0.005  0.002  0.002  0.009
    9  0.000  0.000  0.002  0.002
   10  0.000  0.001  0.015  0.016
   11  0.022  0.004  0.006  0.032
   12  0.041  0.004  0.006  0.050
   13  0.023  0.003  0.006  0.032
   14  0.000  0.012  0.004  0.016
   15  0.003  0.003  0.004  0.010
   16  0.040  0.004  0.006  0.050
   17  0.003  0.003  0.004  0.010
   18  0.000  0.006  0.007  0.013
   19  0.017  0.004  0.005  0.026
   20  0.000  0.003  0.018  0.020
   21  0.052  0.003  0.009  0.064
   22  0.007  0.004  0.005  0.016
   23  0.051  0.003  0.009  0.064
   24  0.000  0.004  0.011  0.015
   25  0.000  0.013  0.002  0.015
   26  0.017  0.003  0.006  0.026
   27  0.007  0.004  0.005  0.016
   28  0.000  0.002  0.003  0.006
   29  0.000  0.001  0.003  0.003
   30  0.007  0.002  0.004  0.013
   31  0.000  0.001  0.003  0.003
   32  0.008  0.002  0.003  0.013
   33  0.007  0.002  0.004  0.013
   34  0.008  0.002  0.003  0.013
   35  0.000  0.000  0.003  0.003
   36  0.000  0.005  0.027  0.032
   37  0.000  0.001  0.000  0.001
tot    0.340  0.114  0.200  0.654
 
band     7 # energy   -6.20013204 # occ.  2.00000000
 
ion      s      p      d    tot
    1  0.000  0.001  0.002  0.003
    2  0.009  0.002  0.002  0.014
    3  0.001  0.001  0.002  0.004
    4  0.009  0.002  0.002  0.014
    5  0.000  0.001  0.004  0.005
    6  0.004  0.001  0.002  0.008
    7  0.001  0.001  0.002  0.004
    8  0.004  0.001  0.002  0.008
    9  0.000  0.003  0.005  0.008
   10  0.000  0.012  0.002  0.014
   11  0.022  0.003  0.005  0.031
   12  0.003  0.003  0.005  0.012
   13  0.022  0.003  0.005  0.031
   14  0.000  0.001  0.015  0.015
   15  0.042  0.004  0.006  0.052
   16  0.003  0.003  0.005  0.012
   17  0.042  0.004  0.006  0.052
   18  0.000  0.007  0.010  0.017
   19  0.031  0.004  0.006  0.040
   20  0.000  0.012  0.002  0.015
   21  0.001  0.004  0.005  0.009
   22  0.041  0.004  0.006  0.050
   23  0.001  0.004  0.005  0.009
   24  0.000  0.009  0.008  0.017
   25  0.000  0.000  0.017  0.017
   26  0.031  0.004  0.006  0.040
   27  0.041  0.004  0.006  0.051
   28  0.000  0.001  0.005  0.007
   29  0.012  0.003  0.003  0.017
   30  0.002  0.002  0.003  0.007
   31  0.012  0.003  0.003  0.017
   32  0.004  0.001  0.003  0.007
   33  0.002  0.002  0.003  0.007
   34  0.004  0.001  0.003  0.007
   35  0.000  0.004  0.005  0.009
   36  0.000  0.001  0.009  0.010
   37  0.000  0.000  0.000  0.000
tot    0.344  0.116  0.180  0.640
 
band     8 # energy   -6.20002026 # occ.  2.00000000
 
ion      s      p      d    tot
    1  0.000  0.001  0.002  0.003
    2  0.000  0.001  0.002  0.003
    3  0.008  0.002  0.002  0.013
    4  0.000  0.001  0.002  0.003
    5  0.000  0.001  0.004  0.005
    6  0.006  0.002  0.002  0.010
    7  0.008  0.002  0.002  0.013
    8  0.006  0.002  0.002  0.010
    9  0.000  0.003  0.005  0.008
   10  0.005  0.000  0.006  0.011
   11  0.007  0.002  0.012  0.021
   12  0.001  0.009  0.003  0.013
   13  0.007  0.002  0.011  0.021
   14  0.029  0.004  0.002  0.035
   15  0.014  0.006  0.009  0.029
   16  0.001  0.009  0.003  0.013
   17  0.014  0.006  0.009  0.029
   18  0.057  0.003  0.005  0.064
   19  0.010  0.001  0.013  0.025
   20  0.001  0.001  0.006  0.008
   21  0.000  0.009  0.003  0.013
   22  0.014  0.007  0.007  0.028
   23  0.000  0.009  0.003  0.013
   24  0.054  0.002  0.006  0.061
   25  0.041  0.005  0.002  0.047
   26  0.010  0.001  0.013  0.025
   27  0.014  0.007  0.007  0.028
   28  0.000  0.001  0.005  0.007
   29  0.000  0.001  0.003  0.004
   30  0.010  0.002  0.003  0.014
   31  0.000  0.001  0.003  0.004
   32  0.008  0.002  0.003  0.014
   33  0.010  0.002  0.003  0.014
   34  0.008  0.002  0.003  0.014
   35  0.000  0.004  0.005  0.009
   36  0.000  0.001  0.009  0.010
   37  0.000  0.000  0.000  0.000
tot    0.344  0.116  0.180  0.640
 
band     9 # energy   -6.19230253 # occ.  2.00000000
 
ion      s      p      d    tot
    1  0.021  0.003  0.001  0.025
    2  0.000  0.002  0.004  0.006
    3  0.000  0.002  0.004  0.006
    4  0.000  0.002  0.004  0.006
    5  0.001  0.000  0.000  0.002
    6  0.000  0.002  0.004  0.006
    7  0.000  0.002  0.004  0.006
    8  0.000  0.002  0.004  0.006
    9  0.009  0.002  0.000  0.011
   10  0.029  0.005  0.006  0.041
   11  0.005  0.000  0.011  0.017
   12  0.030  0.006  0.006  0.041
   13  0.005  0.000  0.011  0.017
   14  0.005  0.000  0.012  0.017
   15  0.012  0.008  0.003  0.024
   16  0.030  0.006  0.006  0.041
   17  0.012  0.008  0.003  0.024
   18  0.012  0.008  0.003  0.023
   19  0.022  0.009  0.002  0.033
   20  0.000  0.002  0.010  0.013
   21  0.000  0.002  0.011  0.013
   22  0.025  0.002  0.009  0.036
   23  0.000  0.002  0.011  0.013
   24  0.026  0.002  0.009  0.037
   25  0.022  0.009  0.002  0.034
   26  0.022  0.009  0.002  0.033
   27  0.025  0.002  0.009  0.036
   28  0.019  0.003  0.000  0.022
   29  0.000  0.002  0.004  0.006
   30  0.000  0.002  0.004  0.006
   31  0.000  0.002  0.004  0.006
   32  0.000  0.002  0.004  0.006
   33  0.000  0.002  0.004  0.006
   34  0.000  0.002  0.004  0.006
   35  0.013  0.002  0.001  0.017
   36  0.000  0.000  0.000  0.000
   37  0.000  0.000  0.000  0.000
tot    0.345  0.115  0.179  0.639
 
band    10 # energy   -6.11058879 # occ.  2.00000000
 
ion      s      p      d    tot
    1  0.000  0.000  0.001  0.002
    2  0.003  0.002  0.006  0.011
    3  0.003  0.002  0.006  0.011
    4  0.003  0.002  0.006  0.011
    5  0.040  0.003  0.000  0.043
    6  0.003  0.002  0.006  0.011
    7  0.003  0.002  0.006  0.011
    8  0.003  0.002  0.006  0.011
    9  0.003  0.002  0.004  0.009
   10  0.004  0.004  0.008  0.016
   11  0.018  0.009  0.004  0.031
   12  0.004  0.004  0.008  0.016
   13  0.018  0.009  0.004  0.031
   14  0.018  0.009  0.004  0.031
   15  0.028  0.002  0.011  0.040
   16  0.004  0.004  0.008  0.016
   17  0.028  0.002  0.011  0.040
   18  0.028  0.002  0.011  0.040
   19  0.008  0.002  0.008  0.019
   20  0.016  0.004  0.007  0.027
   21  0.016  0.004  0.007  0.027
   22  0.008  0.006  0.004  0.019
   23  0.016  0.004  0.007  0.027
   24  0.008  0.006  0.004  0.019
   25  0.008  0.002  0.008  0.019
   26  0.008  0.002  0.008  0.019
   27  0.008  0.006  0.004  0.019
   28  0.001  0.000  0.003  0.004
   29  0.004  0.001  0.004  0.008
   30  0.004  0.001  0.004  0.008
   31  0.004  0.001  0.004  0.008
   32  0.004  0.001  0.004  0.008
   33  0.004  0.001  0.004  0.008
   34  0.004  0.001  0.004  0.008
   35  0.000  0.001  0.002  0.003
   36  0.018  0.007  0.006  0.031
   37  0.003  0.000  0.000  0.003
tot    0.348  0.110  0.201  0.659
 
band    11 # energy   -5.50987364 # occ.  2.00000000
 
ion      s      p      d    tot
    1  0.007  0.000  0.010  0.018
    2  0.006  0.001  0.010  0.017
    3  0.006  0.001  0.010  0.017
    4  0.006  0.001  0.010  0.017
    5  0.001  0.001  0.010  0.012
    6  0.006  0.001  0.010  0.017
    7  0.006  0.001  0.010  0.017
    8  0.006  0.001  0.010  0.017
    9  0.015  0.000  0.008  0.023
   10  0.008  0.000  0.025  0.033
   11  0.013  0.000  0.021  0.034
   12  0.008  0.000  0.025  0.033
   13  0.013  0.000  0.021  0.034
   14  0.013  0.000  0.021  0.034
   15  0.003  0.000  0.022  0.025
   16  0.008  0.000  0.025  0.033
   17  0.003  0.000  0.022  0.025
   18  0.003  0.000  0.022  0.025
   19  0.004  0.000  0.017  0.020
   20  0.009  0.001  0.028  0.038
   21  0.009  0.001  0.028  0.038
   22  0.003  0.000  0.017  0.020
   23  0.009  0.001  0.028  0.038
   24  0.003  0.000  0.017  0.020
   25  0.004  0.000  0.017  0.020
   26  0.004  0.000  0.017  0.020
   27  0.003  0.000  0.017  0.020
   28  0.002  0.000  0.005  0.007
   29  0.003  0.000  0.006  0.009
   30  0.003  0.000  0.006  0.009
   31  0.003  0.000  0.006  0.009
   32  0.003  0.000  0.006  0.009
   33  0.003  0.000  0.006  0.009
   34  0.003  0.000  0.006  0.009
   35  0.004  0.000  0.005  0.009
   36  0.000  0.005  0.032  0.037
   37  0.002  0.003  0.000  0.005
tot    0.202  0.022  0.553  0.777
 
band    12 # energy   -5.48120742 # occ.  2.00000000
 
ion      s      p      d    tot
    1  0.000  0.001  0.010  0.012
    2  0.019  0.004  0.005  0.028
    3  0.005  0.002  0.005  0.011
    4  0.019  0.004  0.005  0.028
    5  0.000  0.001  0.009  0.010
    6  0.005  0.002  0.005  0.012
    7  0.005  0.002  0.005  0.011
    8  0.005  0.002  0.005  0.012
    9  0.000  0.006  0.008  0.014
   10  0.000  0.004  0.015  0.020
   11  0.009  0.003  0.009  0.021
   12  0.001  0.001  0.009  0.012
   13  0.009  0.003  0.009  0.021
   14  0.000  0.001  0.016  0.017
   15  0.017  0.003  0.009  0.029
   16  0.001  0.001  0.009  0.011
   17  0.017  0.003  0.009  0.029
   18  0.000  0.001  0.022  0.023
   19  0.007  0.003  0.010  0.020
   20  0.000  0.004  0.028  0.032
   21  0.001  0.001  0.014  0.016
   22  0.011  0.004  0.010  0.025
   23  0.001  0.001  0.014  0.015
   24  0.000  0.001  0.027  0.028
   25  0.000  0.000  0.011  0.011
   26  0.007  0.003  0.010  0.020
   27  0.011  0.004  0.010  0.025
   28  0.000  0.002  0.008  0.010
   29  0.023  0.004  0.007  0.034
   30  0.003  0.002  0.009  0.014
   31  0.023  0.004  0.007  0.034
   32  0.010  0.001  0.007  0.019
   33  0.003  0.002  0.009  0.014
   34  0.010  0.001  0.007  0.019
   35  0.000  0.006  0.007  0.013
   36  0.000  0.002  0.043  0.044
   37  0.000  0.000  0.000  0.000
tot    0.222  0.091  0.399  0.713
 
band    13 # energy   -5.48114820 # occ.  2.00000000
 
ion      s      p      d    tot
    1  0.000  0.001  0.010  0.012
    2  0.000  0.001  0.005  0.006
    3  0.015  0.003  0.005  0.023
    4  0.000  0.001  0.005  0.006
    5  0.000  0.001  0.009  0.010
    6  0.014  0.003  0.005  0.022
    7  0.015  0.003  0.005  0.023
    8  0.014  0.003  0.005  0.022
    9  0.000  0.006  0.008  0.014
   10  0.002  0.000  0.007  0.009
   11  0.003  0.001  0.014  0.018
   12  0.000  0.003  0.013  0.017
   13  0.003  0.001  0.014  0.018
   14  0.012  0.003  0.007  0.023
   15  0.006  0.002  0.018  0.025
   16  0.000  0.003  0.013  0.017
   17  0.006  0.002  0.018  0.025
   18  0.023  0.004  0.004  0.031
   19  0.002  0.001  0.010  0.014
   20  0.001  0.000  0.010  0.010
   21  0.000  0.003  0.023  0.026
   22  0.004  0.002  0.021  0.027
   23  0.000  0.003  0.023  0.026
   24  0.015  0.005  0.004  0.024
   25  0.009  0.004  0.009  0.023
   26  0.002  0.001  0.010  0.014
   27  0.004  0.002  0.021  0.027
   28  0.000  0.002  0.008  0.010
   29  0.001  0.001  0.008  0.011
   30  0.021  0.003  0.007  0.031
   31  0.001  0.001  0.008  0.011
   32  0.014  0.004  0.008  0.025
   33  0.021  0.003  0.007  0.031
   34  0.014  0.004  0.008  0.025
   35  0.000  0.006  0.007  0.013
   36  0.000  0.002  0.043  0.044
   37  0.000  0.000  0.000  0.000
tot    0.222  0.091  0.399  0.713
 
band    14 # energy   -5.45275574 # occ.  2.00000000
 
ion      s      p      d    tot
    1  0.000  0.005  0.009  0.014
    2  0.023  0.004  0.006  0.033
    3  0.006  0.002  0.005  0.013
    4  0.023  0.004  0.006  0.033
    5  0.000  0.005  0.011  0.016
    6  0.006  0.002  0.006  0.014
    7  0.006  0.002  0.005  0.013
    8  0.006  0.002  0.006  0.014
    9  0.000  0.000  0.012  0.012
   10  0.025  0.006  0.007  0.038
   11  0.003  0.003  0.021  0.027
   12  0.006  0.001  0.019  0.027
   13  0.003  0.003  0.021  0.027
   14  0.013  0.002  0.006  0.021
   15  0.000  0.003  0.014  0.017
   16  0.006  0.001  0.019  0.027
   17  0.000  0.003  0.014  0.017
   18  0.002  0.001  0.009  0.012
   19  0.002  0.002  0.019  0.023
   20  0.019  0.006  0.005  0.030
   21  0.005  0.002  0.020  0.027
   22  0.000  0.002  0.012  0.014
   23  0.005  0.002  0.020  0.027
   24  0.002  0.001  0.010  0.013
   25  0.007  0.002  0.005  0.013
   26  0.002  0.002  0.019  0.023
   27  0.000  0.002  0.012  0.014
   28  0.000  0.004  0.008  0.012
   29  0.017  0.004  0.006  0.027
   30  0.004  0.001  0.005  0.010
   31  0.017  0.004  0.006  0.027
   32  0.004  0.002  0.006  0.013
   33  0.004  0.001  0.005  0.010
   34  0.004  0.002  0.006  0.013
   35  0.000  0.000  0.009  0.009
   36  0.000  0.007  0.032  0.039
   37  0.000  0.001  0.000  0.001
tot    0.220  0.096  0.401  0.717
 
band    15 # energy   -5.45266935 # occ.  2.00000000
 
ion      s      p      d    tot
    1  0.000  0.005  0.009  0.014
    2  0.000  0.002  0.005  0.007
    3  0.017  0.004  0.006  0.027
    4  0.000  0.002  0.005  0.007
    5  0.000  0.005  0.011  0.016
    6  0.017  0.003  0.006  0.026
    7  0.017  0.004  0.006  0.027
    8  0.017  0.003  0.006  0.026
    9  0.000  0.000  0.012  0.012
   10  0.000  0.000  0.023  0.023
   11  0.010  0.002  0.011  0.023
   12  0.019  0.004  0.011  0.034
   13  0.010  0.002  0.011  0.023
   14  0.000  0.004  0.026  0.029
   15  0.001  0.002  0.011  0.014
   16  0.018  0.004  0.011  0.034
   17  0.001  0.002  0.011  0.014
   18  0.000  0.003  0.015  0.019
   19  0.005  0.002  0.010  0.016
   20  0.000  0.000  0.025  0.025
   21  0.014  0.005  0.010  0.029
   22  0.001  0.001  0.010  0.013
   23  0.014  0.005  0.010  0.029
   24  0.000  0.002  0.012  0.014
   25  0.000  0.002  0.024  0.027
   26  0.005  0.002  0.009  0.016
   27  0.001  0.001  0.010  0.013
   28  0.000  0.004  0.008  0.012
   29  0.000  0.001  0.005  0.006
   30  0.013  0.003  0.007  0.023
   31  0.000  0.001  0.005  0.006
   32  0.013  0.003  0.005  0.020
   33  0.013  0.003  0.007  0.023
   34  0.013  0.003  0.005  0.020
   35  0.000  0.000  0.009  0.009
   36  0.000  0.007  0.032  0.039
   37  0.000  0.001  0.000  0.001
tot    0.220  0.096  0.401  0.717
 
band    16 # energy   -5.42901017 # occ.  2.00000000
 
ion      s      p      d    tot
    1  0.034  0.003  0.000  0.037
    2  0.000  0.003  0.010  0.013
    3  0.000  0.003  0.010  0.013
    4  0.000  0.003  0.010  0.013
    5  0.000  0.000  0.000  0.000
    6  0.000  0.003  0.010  0.013
    7  0.000  0.003  0.010  0.013
    8  0.000  0.003  0.010  0.013
    9  0.030  0.004  0.001  0.034
   10  0.009  0.003  0.010  0.023
   11  0.001  0.000  0.015  0.017
   12  0.009  0.003  0.010  0.023
   13  0.001  0.000  0.015  0.017
   14  0.001  0.000  0.016  0.017
   15  0.007  0.004  0.017  0.028
   16  0.009  0.003  0.010  0.023
   17  0.007  0.004  0.017  0.028
   18  0.007  0.004  0.017  0.028
   19  0.005  0.004  0.018  0.026
   20  0.000  0.000  0.016  0.016
   21  0.000  0.000  0.016  0.016
   22  0.011  0.003  0.010  0.025
   23  0.000  0.000  0.016  0.016
   24  0.011  0.003  0.010  0.025
   25  0.005  0.004  0.018  0.026
   26  0.005  0.004  0.018  0.026
   27  0.011  0.003  0.010  0.025
   28  0.036  0.003  0.000  0.039
   29  0.000  0.003  0.010  0.013
   30  0.000  0.003  0.010  0.013
   31  0.000  0.003  0.010  0.013
   32  0.000  0.003  0.010  0.013
   33  0.000  0.003  0.010  0.013
   34  0.000  0.003  0.010  0.013
   35  0.028  0.004  0.001  0.033
   36  0.000  0.000  0.000  0.000
   37  0.000  0.000  0.000  0.000
tot    0.228  0.092  0.385  0.705
 
band    17 # energy   -5.27859273 # occ.  2.00000000
 
ion      s      p      d    tot
    1  0.013  0.002  0.000  0.015
    2  0.000  0.003  0.011  0.014
    3  0.000  0.003  0.011  0.014
    4  0.000  0.003  0.011  0.014
    5  0.045  0.004  0.000  0.048
    6  0.000  0.003  0.011  0.014
    7  0.000  0.003  0.011  0.014
    8  0.000  0.003  0.011  0.014
    9  0.005  0.001  0.001  0.007
   10  0.001  0.001  0.026  0.028
   11  0.004  0.004  0.021  0.029
   12  0.001  0.001  0.026  0.028
   13  0.004  0.004  0.021  0.029
   14  0.004  0.004  0.021  0.029
   15  0.004  0.001  0.009  0.014
   16  0.001  0.001  0.026  0.028
   17  0.004  0.001  0.009  0.014
   18  0.004  0.001  0.009  0.014
   19  0.010  0.001  0.021  0.033
   20  0.011  0.004  0.007  0.022
   21  0.011  0.004  0.007  0.022
   22  0.003  0.002  0.019  0.023
   23  0.011  0.004  0.007  0.022
   24  0.003  0.002  0.019  0.023
   25  0.010  0.001  0.021  0.033
   26  0.010  0.001  0.021  0.033
   27  0.003  0.002  0.019  0.023
   28  0.002  0.002  0.006  0.009
   29  0.001  0.002  0.011  0.014
   30  0.001  0.002  0.011  0.014
   31  0.001  0.002  0.011  0.014
   32  0.001  0.002  0.011  0.014
   33  0.001  0.002  0.011  0.014
   34  0.001  0.002  0.011  0.014
   35  0.003  0.001  0.002  0.007
   36  0.036  0.013  0.005  0.054
   37  0.004  0.000  0.000  0.004
tot    0.213  0.089  0.453  0.756
 
band    18 # energy   -4.84724699 # occ.  2.00000000
 
ion      s      p      d    tot
    1  0.000  0.001  0.027  0.028
    2  0.015  0.001  0.008  0.024
    3  0.007  0.001  0.007  0.015
    4  0.014  0.001  0.008  0.024
    5  0.000  0.001  0.013  0.013
    6  0.002  0.001  0.007  0.010
    7  0.006  0.001  0.007  0.015
    8  0.002  0.001  0.007  0.010
    9  0.000  0.003  0.004  0.007
   10  0.000  0.000  0.055  0.055
   11  0.000  0.003  0.015  0.019
   12  0.000  0.000  0.017  0.017
   13  0.000  0.003  0.015  0.019
   14  0.000  0.000  0.005  0.005
   15  0.000  0.005  0.014  0.019
   16  0.000  0.000  0.016  0.017
   17  0.000  0.005  0.015  0.019
   18  0.000  0.000  0.028  0.028
   19  0.002  0.003  0.011  0.016
   20  0.000  0.000  0.067  0.067
   21  0.000  0.000  0.028  0.028
   22  0.003  0.002  0.016  0.021
   23  0.000  0.000  0.027  0.027
   24  0.000  0.000  0.020  0.020
   25  0.000  0.000  0.015  0.015
   26  0.002  0.003  0.011  0.016
   27  0.003  0.002  0.016  0.021
   28  0.000  0.002  0.001  0.003
   29  0.006  0.000  0.016  0.022
   30  0.001  0.001  0.015  0.017
   31  0.006  0.000  0.016  0.022
   32  0.013  0.000  0.013  0.027
   33  0.001  0.001  0.015  0.017
   34  0.013  0.001  0.013  0.027
   35  0.000  0.001  0.012  0.012
   36  0.000  0.000  0.083  0.084
   37  0.000  0.004  0.000  0.004
tot    0.098  0.049  0.663  0.810
 
band    19 # energy   -4.84719117 # occ.  2.00000000
 
ion      s      p      d    tot
    1  0.000  0.001  0.027  0.028
    2  0.000  0.001  0.007  0.009
    3  0.008  0.001  0.008  0.017
    4  0.001  0.001  0.007  0.009
    5  0.000  0.001  0.013  0.013
    6  0.013  0.001  0.007  0.022
    7  0.009  0.001  0.008  0.018
    8  0.014  0.001  0.007  0.022
    9  0.000  0.003  0.004  0.007
   10  0.000  0.000  0.004  0.005
   11  0.000  0.001  0.008  0.010
   12  0.000  0.000  0.042  0.042
   13  0.000  0.001  0.009  0.010
   14  0.000  0.004  0.019  0.023
   15  0.000  0.002  0.024  0.025
   16  0.000  0.000  0.043  0.043
   17  0.000  0.002  0.023  0.025
   18  0.000  0.006  0.010  0.016
   19  0.001  0.001  0.013  0.016
   20  0.000  0.000  0.014  0.015
   21  0.000  0.000  0.053  0.053
   22  0.001  0.001  0.019  0.021
   23  0.000  0.000  0.054  0.054
   24  0.004  0.002  0.015  0.022
   25  0.003  0.004  0.010  0.017
   26  0.001  0.001  0.013  0.016
   27  0.001  0.001  0.019  0.021
   28  0.000  0.002  0.001  0.003
   29  0.008  0.001  0.013  0.022
   30  0.013  0.000  0.014  0.027
   31  0.008  0.001  0.013  0.022
   32  0.001  0.001  0.016  0.017
   33  0.012  0.000  0.014  0.027
   34  0.001  0.001  0.016  0.017
   35  0.000  0.001  0.012  0.012
   36  0.000  0.000  0.083  0.084
   37  0.000  0.004  0.000  0.004
tot    0.098  0.049  0.663  0.810
 
band    20 # energy   -4.74245878 # occ.  2.00000000
 
ion      s      p      d    tot
    1  0.000  0.002  0.003  0.004
    2  0.013  0.001  0.008  0.022
    3  0.005  0.001  0.008  0.013
    4  0.013  0.001  0.008  0.022
    5  0.000  0.002  0.014  0.016
    6  0.002  0.001  0.008  0.010
    7  0.005  0.001  0.008  0.014
    8  0.002  0.001  0.008  0.010
    9  0.000  0.000  0.028  0.028
   10  0.001  0.006  0.020  0.027
   11  0.000  0.001  0.033  0.034
   12  0.000  0.002  0.008  0.010
   13  0.000  0.001  0.033  0.034
   14  0.001  0.002  0.005  0.008
   15  0.000  0.000  0.027  0.027
   16  0.000  0.002  0.008  0.010
   17  0.000  0.000  0.027  0.027
   18  0.000  0.001  0.006  0.007
   19  0.000  0.000  0.050  0.050
   20  0.001  0.005  0.029  0.036
   21  0.000  0.001  0.016  0.018
   22  0.000  0.001  0.016  0.017
   23  0.000  0.001  0.016  0.018
   24  0.000  0.003  0.016  0.019
   25  0.000  0.001  0.001  0.002
   26  0.000  0.000  0.050  0.050
   27  0.000  0.001  0.016  0.017
   28  0.000  0.002  0.041  0.042
   29  0.014  0.001  0.014  0.029
   30  0.000  0.001  0.010  0.012
   31  0.014  0.001  0.014  0.029
   32  0.016  0.001  0.013  0.030
   33  0.000  0.001  0.010  0.012
   34  0.016  0.001  0.013  0.030
   35  0.000  0.001  0.027  0.028
   36  0.000  0.007  0.019  0.026
   37  0.000  0.007  0.000  0.007
tot    0.104  0.059  0.632  0.795
 
band    21 # energy   -4.74237825 # occ.  2.00000000
 
ion      s      p      d    tot
    1  0.000  0.002  0.003  0.004
    2  0.000  0.001  0.008  0.009
    3  0.008  0.001  0.008  0.017
    4  0.000  0.001  0.008  0.009
    5  0.000  0.002  0.014  0.016
    6  0.011  0.001  0.008  0.020
    7  0.008  0.001  0.008  0.017
    8  0.011  0.001  0.008  0.020
    9  0.000  0.000  0.028  0.028
   10  0.000  0.000  0.004  0.004
   11  0.001  0.002  0.014  0.017
   12  0.001  0.005  0.016  0.021
   13  0.001  0.002  0.014  0.017
   14  0.000  0.000  0.042  0.042
   15  0.000  0.001  0.013  0.014
   16  0.001  0.004  0.016  0.021
   17  0.000  0.001  0.013  0.014
   18  0.000  0.000  0.034  0.034
   19  0.000  0.000  0.018  0.018
   20  0.000  0.000  0.012  0.012
   21  0.001  0.004  0.025  0.030
   22  0.000  0.002  0.016  0.018
   23  0.001  0.004  0.025  0.029
   24  0.000  0.000  0.017  0.017
   25  0.000  0.000  0.066  0.066
   26  0.000  0.000  0.017  0.018
   27  0.000  0.002  0.016  0.018
   28  0.000  0.002  0.041  0.042
   29  0.006  0.001  0.011  0.018
   30  0.020  0.001  0.015  0.036
   31  0.006  0.001  0.011  0.018
   32  0.004  0.001  0.012  0.017
   33  0.020  0.001  0.015  0.036
   34  0.004  0.001  0.012  0.017
   35  0.000  0.001  0.027  0.028
   36  0.000  0.007  0.019  0.026