PROCAR new format
# of k-points:   10         # of bands:  252         # of ions:   38

 k-point     1 :    0.00000000 0.00000000 0.00000000     weight = 0.01562500

band     1 # energy  -22.08670479 # occ.  2.00000000
 
ion      s      p      d    tot
    1  0.000  0.000  0.000  0.000
    2  0.000  0.000  0.000  0.000
    3  0.000  0.000  0.000  0.000
    4  0.000  0.000  0.000  0.000
    5  0.000  0.000  0.000  0.000
    6  0.000  0.000  0.000  0.000
    7  0.000  0.000  0.000  0.000
    8  0.000  0.000  0.000  0.000
    9  0.000  0.000  0.000  0.000
   10  0.000  0.000  0.000  0.000
   11  0.000  0.000  0.000  0.000
   12  0.000  0.000  0.000  0.000
   13  0.000  0.000  0.000  0.000
   14  0.000  0.000  0.000  0.000
   15  0.000  0.000  0.000  0.000
   16  0.000  0.000  0.000  0.000
   17  0.000  0.000  0.000  0.000
   18  0.000  0.000  0.000  0.000
   19  0.000  0.000  0.000  0.000
   20  0.000  0.000  0.000  0.000
   21  0.000  0.000  0.000  0.000
   22  0.000  0.000  0.000  0.000
   23  0.000  0.000  0.000  0.000
   24  0.000  0.000  0.000  0.000
   25  0.000  0.000  0.000  0.000
   26  0.000  0.000  0.000  0.000
   27  0.000  0.000  0.000  0.000
   28  0.000  0.000  0.000  0.000
   29  0.000  0.000  0.000  0.000
   30  0.000  0.000  0.000  0.000
   31  0.000  0.000  0.000  0.000
   32  0.000  0.000  0.000  0.000
   33  0.000  0.000  0.000  0.000
   34  0.000  0.000  0.000  0.000
   35  0.000  0.000  0.000  0.000
   36  0.000  0.000  0.000  0.000
   37  0.157  0.114  0.000  0.271
   38  0.637  0.094  0.000  0.731
tot    0.794  0.208  0.000  1.003
 
band     2 # energy   -8.20308655 # occ.  2.00000000
 
ion      s      p      d    tot
    1  0.005  0.000  0.000  0.006
    2  0.005  0.000  0.000  0.005
    3  0.005  0.000  0.000  0.005
    4  0.005  0.000  0.000  0.005
    5  0.005  0.000  0.000  0.005
    6  0.005  0.000  0.000  0.005
    7  0.005  0.000  0.000  0.005
    8  0.005  0.000  0.000  0.005
    9  0.005  0.000  0.000  0.005
   10  0.022  0.000  0.000  0.022
   11  0.022  0.000  0.000  0.022
   12  0.022  0.000  0.000  0.022
   13  0.022  0.000  0.000  0.022
   14  0.022  0.000  0.000  0.022
   15  0.021  0.000  0.000  0.021
   16  0.022  0.000  0.000  0.022
   17  0.021  0.000  0.000  0.021
   18  0.021  0.000  0.000  0.021
   19  0.021  0.000  0.000  0.021
   20  0.026  0.000  0.000  0.026
   21  0.026  0.000  0.000  0.026
   22  0.022  0.000  0.000  0.022
   23  0.026  0.000  0.000  0.026
   24  0.022  0.000  0.000  0.022
   25  0.021  0.000  0.000  0.021
   26  0.021  0.000  0.000  0.021
   27  0.022  0.000  0.000  0.022
   28  0.005  0.000  0.000  0.005
   29  0.006  0.000  0.000  0.007
   30  0.006  0.000  0.000  0.007
   31  0.006  0.000  0.000  0.007
   32  0.006  0.000  0.000  0.007
   33  0.006  0.000  0.000  0.007
   34  0.006  0.000  0.000  0.007
   35  0.005  0.000  0.000  0.005
   36  0.021  0.001  0.006  0.027
   37  0.033  0.002  0.000  0.035
   38  0.015  0.018  0.000  0.033
tot    0.563  0.030  0.009  0.602
 
band     3 # energy   -7.84160246 # occ.  2.00000000
 
ion      s      p      d    tot
    1  0.002  0.000  0.000  0.002
    2  0.002  0.000  0.000  0.002
    3  0.002  0.000  0.000  0.002
    4  0.002  0.000  0.000  0.002
    5  0.002  0.000  0.000  0.002
    6  0.002  0.000  0.000  0.002
    7  0.002  0.000  0.000  0.002
    8  0.002  0.000  0.000  0.002
    9  0.002  0.000  0.000  0.002
   10  0.006  0.000  0.000  0.006
   11  0.006  0.000  0.000  0.006
   12  0.006  0.000  0.000  0.006
   13  0.006  0.000  0.000  0.006
   14  0.006  0.000  0.000  0.006
   15  0.007  0.000  0.000  0.007
   16  0.006  0.000  0.000  0.006
   17  0.007  0.000  0.000  0.007
   18  0.007  0.000  0.000  0.007
   19  0.002  0.000  0.000  0.002
   20  0.001  0.000  0.001  0.002
   21  0.001  0.000  0.001  0.002
   22  0.002  0.000  0.000  0.003
   23  0.001  0.000  0.001  0.002
   24  0.002  0.000  0.000  0.003
   25  0.002  0.000  0.000  0.002
   26  0.002  0.000  0.000  0.002
   27  0.002  0.000  0.000  0.003
   28  0.000  0.000  0.000  0.000
   29  0.001  0.000  0.001  0.002
   30  0.001  0.000  0.001  0.002
   31  0.001  0.000  0.001  0.002
   32  0.001  0.000  0.001  0.002
   33  0.001  0.000  0.001  0.002
   34  0.001  0.000  0.001  0.002
   35  0.000  0.000  0.000  0.000
   36  0.035  0.024  0.030  0.089
   37  0.231  0.004  0.000  0.234
   38  0.120  0.185  0.000  0.306
tot    0.480  0.219  0.042  0.741
 
band     4 # energy   -6.94134591 # occ.  2.00000000
 
ion      s      p      d    tot
    1  0.017  0.000  0.001  0.018
    2  0.016  0.000  0.001  0.018
    3  0.016  0.000  0.001  0.018
    4  0.016  0.000  0.001  0.018
    5  0.016  0.000  0.001  0.018
    6  0.016  0.000  0.001  0.018
    7  0.016  0.000  0.001  0.018
    8  0.016  0.000  0.001  0.018
    9  0.016  0.000  0.001  0.018
   10  0.010  0.001  0.002  0.014
   11  0.009  0.002  0.003  0.013
   12  0.010  0.001  0.002  0.014
   13  0.009  0.002  0.003  0.013
   14  0.009  0.002  0.003  0.013
   15  0.009  0.002  0.002  0.013
   16  0.010  0.001  0.002  0.014
   17  0.009  0.002  0.002  0.013
   18  0.009  0.002  0.002  0.013
   19  0.014  0.001  0.004  0.019
   20  0.015  0.001  0.004  0.021
   21  0.015  0.001  0.004  0.021
   22  0.016  0.001  0.004  0.020
   23  0.015  0.001  0.004  0.021
   24  0.016  0.001  0.004  0.020
   25  0.014  0.001  0.004  0.019
   26  0.014  0.001  0.004  0.019
   27  0.016  0.001  0.004  0.020
   28  0.012  0.001  0.000  0.013
   29  0.011  0.001  0.001  0.013
   30  0.011  0.001  0.001  0.013
   31  0.011  0.001  0.001  0.013
   32  0.011  0.001  0.001  0.013
   33  0.011  0.001  0.001  0.013
   34  0.011  0.001  0.001  0.013
   35  0.013  0.001  0.000  0.013
   36  0.005  0.002  0.001  0.007
   37  0.009  0.002  0.000  0.011
   38  0.008  0.025  0.000  0.033
tot    0.480  0.059  0.074  0.613
 
band     5 # energy   -6.03657876 # occ.  2.00000000
 
ion      s      p      d    tot
    1  0.002  0.001  0.005  0.007
    2  0.001  0.001  0.005  0.007
    3  0.001  0.001  0.005  0.007
    4  0.001  0.001  0.005  0.007
    5  0.000  0.000  0.001  0.001
    6  0.001  0.001  0.005  0.007
    7  0.001  0.001  0.005  0.007
    8  0.001  0.001  0.005  0.007
    9  0.020  0.001  0.000  0.021
   10  0.010  0.000  0.025  0.035
   11  0.010  0.003  0.010  0.023
   12  0.010  0.000  0.025  0.035
   13  0.010  0.003  0.010  0.023
   14  0.010  0.003  0.010  0.023
   15  0.021  0.002  0.011  0.034
   16  0.010  0.000  0.025  0.035
   17  0.021  0.002  0.011  0.034
   18  0.021  0.002  0.011  0.034
   19  0.000  0.001  0.022  0.023
   20  0.023  0.001  0.021  0.046
   21  0.023  0.001  0.021  0.046
   22  0.020  0.003  0.003  0.026
   23  0.023  0.001  0.021  0.046
   24  0.020  0.003  0.003  0.026
   25  0.000  0.001  0.022  0.023
   26  0.000  0.001  0.022  0.023
   27  0.020  0.003  0.003  0.026
   28  0.002  0.000  0.000  0.002
   29  0.000  0.000  0.005  0.005
   30  0.000  0.000  0.005  0.005
   31  0.000  0.000  0.005  0.005
   32  0.000  0.000  0.005  0.005
   33  0.000  0.000  0.005  0.005
   34  0.000  0.000  0.005  0.005
   35  0.009  0.001  0.000  0.009
   36  0.009  0.002  0.003  0.014
   37  0.000  0.003  0.000  0.003
   38  0.001  0.007  0.000  0.009
tot    0.306  0.051  0.348  0.704
 
band     6 # energy   -6.01949842 # occ.  2.00000000
 
ion      s      p      d    tot
    1  0.029  0.000  0.017  0.046
    2  0.020  0.000  0.020  0.040
    3  0.020  0.000  0.020  0.040
    4  0.020  0.000  0.020  0.040
    5  0.018  0.000  0.021  0.039
    6  0.020  0.000  0.020  0.040
    7  0.020  0.000  0.020  0.040
    8  0.020  0.000  0.020  0.040
    9  0.015  0.000  0.020  0.035
   10  0.003  0.000  0.027  0.030
   11  0.008  0.001  0.022  0.031
   12  0.003  0.000  0.027  0.030
   13  0.008  0.001  0.022  0.031
   14  0.008  0.001  0.022  0.031
   15  0.015  0.001  0.020  0.035
   16  0.003  0.000  0.027  0.030
   17  0.015  0.001  0.020  0.035
   18  0.015  0.001  0.020  0.035
   19  0.001  0.000  0.003  0.004
   20  0.001  0.000  0.004  0.006
   21  0.001  0.000  0.004  0.006
   22  0.001  0.001  0.003  0.005
   23  0.001  0.000  0.004  0.006
   24  0.001  0.001  0.003  0.005
   25  0.001  0.000  0.003  0.004
   26  0.001  0.000  0.003  0.004
   27  0.001  0.001  0.003  0.005
   28  0.002  0.000  0.000  0.003
   29  0.002  0.000  0.001  0.002
   30  0.002  0.000  0.001  0.002
   31  0.002  0.000  0.001  0.002
   32  0.002  0.000  0.001  0.002
   33  0.002  0.000  0.001  0.002
   34  0.002  0.000  0.001  0.002
   35  0.000  0.000  0.001  0.001
   36  0.003  0.000  0.000  0.004
   37  0.000  0.002  0.000  0.002
   38  0.001  0.007  0.000  0.008
tot    0.283  0.022  0.417  0.722
 
band     7 # energy   -6.01259337 # occ.  2.00000000
 
ion      s      p      d    tot
    1  0.000  0.000  0.007  0.007
    2  0.004  0.001  0.004  0.009
    3  0.005  0.001  0.003  0.009
    4  0.006  0.001  0.004  0.010
    5  0.000  0.001  0.008  0.009
    6  0.000  0.000  0.003  0.003
    7  0.006  0.001  0.003  0.010
    8  0.000  0.000  0.003  0.003
    9  0.000  0.000  0.001  0.001
   10  0.000  0.000  0.032  0.032
   11  0.038  0.002  0.016  0.056
   12  0.021  0.002  0.010  0.032
   13  0.047  0.001  0.013  0.062
   14  0.001  0.003  0.031  0.034
   15  0.004  0.001  0.010  0.016
   16  0.017  0.001  0.014  0.032
   17  0.005  0.001  0.012  0.018
   18  0.000  0.004  0.002  0.006
   19  0.003  0.001  0.010  0.014
   20  0.001  0.003  0.030  0.033
   21  0.048  0.001  0.014  0.063
   22  0.022  0.002  0.009  0.032
   23  0.038  0.002  0.017  0.057
   24  0.000  0.000  0.033  0.033
   25  0.000  0.004  0.003  0.007
   26  0.003  0.001  0.011  0.015
   27  0.017  0.001  0.014  0.032
   28  0.000  0.000  0.001  0.001
   29  0.000  0.000  0.002  0.003
   30  0.007  0.001  0.003  0.011
   31  0.000  0.000  0.002  0.003
   32  0.005  0.001  0.004  0.010
   33  0.006  0.001  0.002  0.009
   34  0.004  0.001  0.004  0.008
   35  0.000  0.000  0.005  0.006
   36  0.000  0.003  0.002  0.005
   37  0.000  0.000  0.000  0.000
   38  0.000  0.000  0.000  0.000
tot    0.308  0.044  0.341  0.694
 
band     8 # energy   -6.01259165 # occ.  2.00000000
 
ion      s      p      d    tot
    1  0.000  0.000  0.007  0.007
    2  0.003  0.001  0.003  0.006
    3  0.002  0.001  0.003  0.006
    4  0.001  0.000  0.003  0.004
    5  0.000  0.001  0.008  0.009
    6  0.007  0.001  0.003  0.012
    7  0.001  0.000  0.003  0.005
    8  0.007  0.001  0.003  0.011
    9  0.000  0.000  0.001  0.001
   10  0.025  0.002  0.005  0.032
   11  0.019  0.002  0.024  0.045
   12  0.004  0.001  0.028  0.032
   13  0.010  0.002  0.027  0.039
   14  0.057  0.001  0.009  0.067
   15  0.002  0.003  0.006  0.011
   16  0.008  0.001  0.023  0.032
   17  0.001  0.003  0.004  0.009
   18  0.006  0.000  0.014  0.020
   19  0.001  0.003  0.006  0.010
   20  0.057  0.001  0.011  0.069
   21  0.010  0.003  0.026  0.039
   22  0.005  0.000  0.028  0.033
   23  0.019  0.002  0.023  0.045
   24  0.026  0.002  0.004  0.032
   25  0.004  0.000  0.013  0.017
   26  0.001  0.003  0.005  0.008
   27  0.009  0.001  0.023  0.033
   28  0.000  0.000  0.001  0.001
   29  0.007  0.001  0.003  0.012
   30  0.000  0.000  0.003  0.004
   31  0.007  0.001  0.004  0.012
   32  0.002  0.001  0.002  0.005
   33  0.001  0.001  0.003  0.005
   34  0.004  0.001  0.002  0.006
   35  0.000  0.000  0.005  0.006
   36  0.000  0.003  0.002  0.005
   37  0.000  0.000  0.000  0.000
   38  0.000  0.000  0.000  0.000
tot    0.308  0.044  0.341  0.694
 
band     9 # energy   -5.98719656 # occ.  2.00000000
 
ion      s      p      d    tot
    1  0.006  0.001  0.001  0.008
    2  0.000  0.001  0.006  0.007
    3  0.000  0.001  0.006  0.007
    4  0.000  0.001  0.006  0.007
    5  0.018  0.002  0.001  0.020
    6  0.000  0.001  0.006  0.007
    7  0.000  0.001  0.006  0.007
    8  0.000  0.001  0.006  0.007
    9  0.000  0.000  0.002  0.002
   10  0.025  0.003  0.002  0.030
   11  0.020  0.001  0.022  0.043
   12  0.025  0.003  0.002  0.030
   13  0.020  0.001  0.022  0.043
   14  0.020  0.001  0.022  0.043
   15  0.001  0.001  0.024  0.025
   16  0.025  0.003  0.002  0.030
   17  0.001  0.001  0.024  0.025
   18  0.001  0.001  0.024  0.025
   19  0.025  0.002  0.006  0.034
   20  0.006  0.002  0.016  0.025
   21  0.006  0.002  0.016  0.025
   22  0.008  0.000  0.027  0.035
   23  0.006  0.002  0.016  0.025
   24  0.008  0.000  0.027  0.035
   25  0.025  0.002  0.006  0.034
   26  0.025  0.002  0.006  0.034
   27  0.008  0.000  0.027  0.035
   28  0.011  0.001  0.001  0.013
   29  0.000  0.000  0.004  0.004
   30  0.000  0.000  0.004  0.004
   31  0.000  0.000  0.004  0.004
   32  0.000  0.000  0.004  0.004
   33  0.000  0.000  0.004  0.004
   34  0.000  0.000  0.004  0.004
   35  0.004  0.001  0.002  0.007
   36  0.000  0.000  0.000  0.001
   37  0.000  0.000  0.000  0.000
   38  0.000  0.000  0.000  0.000
tot    0.299  0.040  0.357  0.696
 
band    10 # energy   -5.96353910 # occ.  2.00000000
 
ion      s      p      d    tot
    1  0.000  0.001  0.005  0.006
    2  0.006  0.001  0.004  0.011
    3  0.006  0.001  0.003  0.011
    4  0.006  0.001  0.004  0.011
    5  0.000  0.000  0.003  0.003
    6  0.000  0.000  0.003  0.004
    7  0.007  0.001  0.004  0.012
    8  0.000  0.000  0.003  0.004
    9  0.000  0.001  0.011  0.012
   10  0.037  0.000  0.015  0.053
   11  0.001  0.002  0.015  0.017
   12  0.008  0.004  0.010  0.022
   13  0.000  0.002  0.015  0.017
   14  0.002  0.001  0.010  0.013
   15  0.016  0.001  0.034  0.051
   16  0.011  0.003  0.011  0.025
   17  0.013  0.001  0.037  0.050
   18  0.057  0.002  0.004  0.063
   19  0.013  0.001  0.027  0.042
   20  0.004  0.001  0.010  0.015
   21  0.001  0.001  0.015  0.018
   22  0.006  0.003  0.011  0.021
   23  0.001  0.001  0.015  0.017
   24  0.027  0.000  0.014  0.041
   25  0.046  0.002  0.004  0.052
   26  0.010  0.001  0.030  0.041
   27  0.008  0.003  0.012  0.022
   28  0.000  0.001  0.006  0.007
   29  0.000  0.000  0.002  0.002
   30  0.003  0.001  0.002  0.006
   31  0.000  0.000  0.002  0.002
   32  0.004  0.001  0.003  0.007
   33  0.003  0.001  0.002  0.005
   34  0.003  0.001  0.003  0.007
   35  0.000  0.001  0.003  0.003
   36  0.000  0.000  0.001  0.001
   37  0.000  0.000  0.000  0.000
   38  0.000  0.000  0.000  0.000
tot    0.299  0.042  0.353  0.694
 
band    11 # energy   -5.96353064 # occ.  2.00000000
 
ion      s      p      d    tot
    1  0.000  0.001  0.005  0.006
    2  0.003  0.001  0.003  0.007
    3  0.002  0.001  0.004  0.006
    4  0.002  0.001  0.003  0.006
    5  0.000  0.000  0.003  0.003
    6  0.008  0.001  0.004  0.014
    7  0.001  0.001  0.004  0.006
    8  0.008  0.001  0.004  0.014
    9  0.000  0.001  0.011  0.012
   10  0.000  0.004  0.009  0.013
   11  0.001  0.001  0.012  0.015
   12  0.029  0.001  0.014  0.044
   13  0.002  0.001  0.012  0.015
   14  0.000  0.002  0.016  0.019
   15  0.041  0.001  0.016  0.058
   16  0.027  0.001  0.014  0.042
   17  0.045  0.002  0.013  0.059
   18  0.000  0.000  0.046  0.047
   19  0.033  0.002  0.013  0.048
   20  0.000  0.001  0.017  0.018
   21  0.003  0.001  0.012  0.016
   22  0.021  0.001  0.013  0.035
   23  0.003  0.001  0.012  0.016
   24  0.000  0.004  0.011  0.015
   25  0.000  0.001  0.037  0.038
   26  0.036  0.002  0.011  0.049
   27  0.019  0.001  0.013  0.034
   28  0.000  0.001  0.006  0.007
   29  0.004  0.001  0.002  0.008
   30  0.001  0.000  0.002  0.004
   31  0.004  0.001  0.002  0.008
   32  0.001  0.000  0.001  0.003
   33  0.001  0.000  0.003  0.004
   34  0.001  0.000  0.001  0.003
   35  0.000  0.001  0.003  0.003
   36  0.000  0.000  0.001  0.001
   37  0.000  0.000  0.000  0.000
   38  0.000  0.000  0.000  0.000
tot    0.299  0.042  0.353  0.694
 
band    12 # energy   -5.89913409 # occ.  2.00000000
 
ion      s      p      d    tot
    1  0.000  0.000  0.000  0.000
    2  0.000  0.000  0.000  0.000
    3  0.000  0.000  0.000  0.000
    4  0.000  0.000  0.000  0.000
    5  0.001  0.000  0.000  0.001
    6  0.000  0.000  0.000  0.000
    7  0.000  0.000  0.000  0.000
    8  0.000  0.000  0.000  0.000
    9  0.000  0.000  0.000  0.000
   10  0.000  0.000  0.003  0.004
   11  0.001  0.000  0.003  0.004
   12  0.000  0.000  0.003  0.004
   13  0.001  0.000  0.003  0.004
   14  0.001  0.000  0.003  0.004
   15  0.000  0.000  0.003  0.004
   16  0.000  0.000  0.003  0.004
   17  0.000  0.000  0.003  0.004
   18  0.000  0.000  0.003  0.004
   19  0.007  0.001  0.020  0.028
   20  0.005  0.001  0.027  0.033
   21  0.005  0.001  0.027  0.033
   22  0.005  0.001  0.026  0.032
   23  0.005  0.001  0.027  0.033
   24  0.005  0.001  0.026  0.032
   25  0.007  0.001  0.020  0.028
   26  0.007  0.001  0.020  0.028
   27  0.005  0.001  0.026  0.032
   28  0.020  0.000  0.019  0.039
   29  0.023  0.000  0.020  0.043
   30  0.023  0.000  0.020  0.043
   31  0.023  0.000  0.020  0.043
   32  0.023  0.000  0.020  0.043
   33  0.023  0.000  0.020  0.043
   34  0.023  0.000  0.020  0.043
   35  0.026  0.000  0.019  0.045
   36  0.016  0.002  0.001  0.019
   37  0.000  0.014  0.000  0.014
   38  0.006  0.039  0.000  0.045
tot    0.264  0.064  0.407  0.735
 
band    13 # energy   -5.53619399 # occ.  2.00000000
 
ion      s      p      d    tot
    1  0.018  0.002  0.001  0.021
    2  0.000  0.001  0.007  0.008
    3  0.000  0.001  0.007  0.008
    4  0.000  0.001  0.007  0.008
    5  0.001  0.000  0.002  0.004
    6  0.000  0.001  0.007  0.008
    7  0.000  0.001  0.007  0.008
    8  0.000  0.001  0.007  0.008
    9  0.008  0.001  0.000  0.009
   10  0.008  0.001  0.010  0.019
   11  0.006  0.001  0.030  0.037
   12  0.008  0.001  0.010  0.019
   13  0.006  0.001  0.030  0.037
   14  0.006  0.001  0.030  0.037
   15  0.000  0.000  0.034  0.035
   16  0.008  0.001  0.010  0.019
   17  0.000  0.000  0.034  0.035
   18  0.000  0.000  0.034  0.035
   19  0.009  0.001  0.007  0.018
   20  0.000  0.000  0.046  0.046
   21  0.000  0.000  0.046  0.046
   22  0.008  0.001  0.033  0.042
   23  0.000  0.000  0.046  0.046
   24  0.008  0.001  0.033  0.042
   25  0.010  0.001  0.007  0.018
   26  0.009  0.001  0.007  0.018
   27  0.008  0.001  0.033  0.042
   28  0.015  0.002  0.001  0.018
   29  0.000  0.001  0.007  0.007
   30  0.000  0.001  0.007  0.008
   31  0.000  0.001  0.007  0.007
   32  0.000  0.001  0.007  0.008
   33  0.000  0.001  0.007  0.008
   34  0.000  0.001  0.007  0.008
   35  0.002  0.001  0.003  0.005
   36  0.007  0.000  0.000  0.008
   37  0.000  0.004  0.000  0.004
   38  0.001  0.007  0.000  0.008
tot    0.149  0.038  0.569  0.756
 
band    14 # energy   -5.52864933 # occ.  2.00000000
 
ion      s      p      d    tot
    1  0.000  0.001  0.004  0.005
    2  0.001  0.001  0.005  0.006
    3  0.009  0.001  0.004  0.014
    4  0.001  0.001  0.005  0.006
    5  0.000  0.001  0.010  0.012
    6  0.005  0.001  0.004  0.009
    7  0.009  0.001  0.004  0.014
    8  0.005  0.001  0.004  0.009
    9  0.000  0.000  0.008  0.008
   10  0.000  0.001  0.051  0.051
   11  0.017  0.001  0.020  0.038
   12  0.007  0.002  0.019  0.027
   13  0.017  0.001  0.020  0.038
   14  0.000  0.000  0.049  0.049
   15  0.002  0.000  0.019  0.021
   16  0.007  0.002  0.018  0.027
   17  0.002  0.000  0.019  0.021
   18  0.000  0.001  0.010  0.011
   19  0.006  0.000  0.018  0.025
   20  0.000  0.000  0.072  0.072
   21  0.016  0.001  0.022  0.040
   22  0.002  0.001  0.019  0.022
   23  0.016  0.001  0.022  0.040
   24  0.000  0.001  0.030  0.032
   25  0.000  0.001  0.014  0.015
   26  0.006  0.000  0.018  0.025
   27  0.002  0.001  0.018  0.022
   28  0.000  0.000  0.009  0.009
   29  0.002  0.001  0.004  0.007
   30  0.011  0.001  0.003  0.016
   31  0.002  0.001  0.004  0.007
   32  0.003  0.001  0.004  0.008
   33  0.011  0.001  0.003  0.016
   34  0.003  0.001  0.004  0.008
   35  0.000  0.000  0.004  0.004
   36  0.000  0.004  0.002  0.005
   37  0.000  0.001  0.000  0.001
   38  0.000  0.002  0.000  0.002
tot    0.162  0.037  0.546  0.745
 
band    15 # energy   -5.52863965 # occ.  2.00000000
 
ion      s      p      d    tot
    1  0.000  0.001  0.004  0.005
    2  0.009  0.001  0.004  0.014
    3  0.001  0.000  0.004  0.005
    4  0.009  0.001  0.004  0.014
    5  0.000  0.001  0.010  0.012
    6  0.005  0.001  0.005  0.011
    7  0.001  0.000  0.004  0.005
    8  0.005  0.001  0.005  0.011
    9  0.000  0.000  0.008  0.008
   10  0.010  0.002  0.008  0.019
   11  0.006  0.000  0.039  0.045
   12  0.002  0.001  0.040  0.043
   13  0.006  0.000  0.039  0.045
   14  0.022  0.001  0.010  0.034
   15  0.001  0.001  0.013  0.015
   16  0.002  0.001  0.040  0.043
   17  0.001  0.001  0.013  0.015
   18  0.002  0.000  0.022  0.025
   19  0.002  0.001  0.015  0.018
   20  0.022  0.002  0.006  0.029
   21  0.005  0.000  0.056  0.061
   22  0.001  0.001  0.027  0.028
   23  0.005  0.000  0.056  0.061
   24  0.003  0.001  0.014  0.019
   25  0.008  0.000  0.020  0.028
   26  0.002  0.001  0.015  0.018
   27  0.001  0.001  0.027  0.028
   28  0.000  0.000  0.009  0.009
   29  0.009  0.001  0.003  0.014
   30  0.000  0.001  0.005  0.005
   31  0.009  0.001  0.003  0.014
   32  0.008  0.001  0.004  0.013
   33  0.000  0.001  0.005  0.005
   34  0.008  0.001  0.004  0.013
   35  0.000  0.000  0.004  0.004
   36  0.000  0.004  0.002  0.005
   37  0.000  0.001  0.000  0.001
   38  0.000  0.002  0.000  0.002
tot    0.162  0.037  0.546  0.745
 
band    16 # energy   -5.52543361 # occ.  2.00000000
 
ion      s      p      d    tot
    1  0.000  0.000  0.002  0.002
    2  0.000  0.001  0.008  0.009
    3  0.000  0.001  0.008  0.009
    4  0.000  0.001  0.008  0.009
    5  0.015  0.001  0.000  0.016
    6  0.000  0.001  0.008  0.009
    7  0.000  0.001  0.008  0.009
    8  0.000  0.001  0.008  0.009
    9  0.013  0.002  0.002  0.017
   10  0.003  0.000  0.042  0.045
   11  0.003  0.001  0.020  0.024
   12  0.003  0.000  0.042  0.046
   13  0.003  0.001  0.020  0.024
   14  0.003  0.001  0.020  0.024
   15  0.013  0.002  0.011  0.026
   16  0.003  0.000  0.042  0.046
   17  0.013  0.002  0.011  0.026
   18  0.014  0.002  0.011  0.026
   19  0.003  0.000  0.034  0.037
   20  0.009  0.002  0.021  0.032
   21  0.009  0.002  0.021  0.032
   22  0.002  0.001  0.018  0.021
   23  0.009  0.002  0.021  0.032
   24  0.002  0.001  0.018  0.021
   25  0.003  0.000  0.034  0.037
   26  0.003  0.000  0.034  0.037
   27  0.002  0.001  0.018  0.021
   28  0.000  0.000  0.001  0.001
   29  0.000  0.001  0.005  0.005
   30  0.000  0.001  0.005  0.005
   31  0.000  0.001  0.005  0.005
   32  0.000  0.001  0.005  0.005
   33  0.000  0.001  0.005  0.005
   34  0.000  0.001  0.005  0.005
   35  0.012  0.001  0.000  0.013
   36  0.018  0.000  0.010  0.028
   37  0.000  0.015  0.000  0.015
   38  0.003  0.024  0.000  0.027
tot    0.165  0.069  0.527  0.761
 
band    17 # energy   -5.47074549 # occ.  2.00000000
 
ion      s      p      d    tot
    1  0.000  0.001  0.015  0.015
    2  0.001  0.001  0.006  0.007
    3  0.007  0.001  0.005  0.013
    4  0.000  0.000  0.005  0.006
    5  0.000  0.000  0.005  0.005
    6  0.005  0.001  0.005  0.011
    7  0.009  0.001  0.005  0.016
    8  0.008  0.001  0.005  0.014
    9  0.000  0.001  0.007  0.009
   10  0.009  0.000  0.021  0.030
   11  0.000  0.001  0.020  0.021
   12  0.004  0.001  0.025  0.029
   13  0.000  0.001  0.020  0.021
   14  0.001  0.001  0.020  0.022
   15  0.002  0.000  0.057  0.059
   16  0.001  0.001  0.027  0.029
   17  0.006  0.001  0.042  0.049
   18  0.015  0.002  0.007  0.025
   19  0.002  0.000  0.058  0.061
   20  0.000  0.000  0.023  0.024
   21  0.000  0.001  0.021  0.022
   22  0.009  0.001  0.027  0.037
   23  0.000  0.001  0.020  0.021
   24  0.023  0.001  0.017  0.040
   25  0.017  0.001  0.006  0.024
   26  0.007  0.001  0.043  0.050
   27  0.003  0.000  0.031  0.035
   28  0.000  0.001  0.004  0.005
   29  0.001  0.000  0.003  0.004
   30  0.005  0.001  0.002  0.008
   31  0.000  0.000  0.003  0.004
   32  0.002  0.001  0.005  0.007
   33  0.006  0.001  0.003  0.010
   34  0.003  0.001  0.004  0.009
   35  0.000  0.001  0.008  0.008
   36  0.000  0.000  0.001  0.001
   37  0.000  0.000  0.000  0.000
   38  0.000  0.000  0.000  0.000
tot    0.148  0.028  0.575  0.752
 
band    18 # energy   -5.47074512 # occ.  2.00000000
 
ion      s      p      d    tot
    1  0.000  0.001  0.015  0.015
    2  0.010  0.001  0.005  0.015
    3  0.003  0.000  0.005  0.009
    4  0.010  0.001  0.005  0.016
    5  0.000  0.000  0.005  0.005
    6  0.005  0.001  0.005  0.011
    7  0.001  0.000  0.005  0.006
    8  0.002  0.001  0.006  0.008
    9  0.000  0.001  0.007  0.009
   10  0.000  0.001  0.028  0.029
   11  0.001  0.001  0.020  0.022
   12  0.006  0.000  0.024  0.030
   13  0.001  0.001  0.020  0.022
   14  0.000  0.001  0.020  0.021
   15  0.013  0.002  0.014  0.029
   16  0.008  0.000  0.022  0.030
   17  0.009  0.001  0.029  0.039
   18  0.000  0.000  0.063  0.064
   19  0.015  0.001  0.013  0.029
   20  0.000  0.002  0.019  0.021
   21  0.000  0.001  0.022  0.023
   22  0.014  0.001  0.023  0.038
   23  0.000  0.000  0.023  0.024
   24  0.000  0.000  0.033  0.034
   25  0.000  0.000  0.065  0.066
   26  0.010  0.001  0.028  0.040
   27  0.020  0.001  0.019  0.040
   28  0.000  0.001  0.004  0.005
   29  0.005  0.001  0.004  0.010
   30  0.001  0.001  0.005  0.006
   31  0.006  0.001  0.003  0.010
   32  0.004  0.001  0.002  0.007
   33  0.000  0.000  0.004  0.004
   34  0.002  0.001  0.002  0.005
   35  0.000  0.001  0.008  0.008
   36  0.000  0.000  0.001  0.001
   37  0.000  0.000  0.000  0.000
   38  0.000  0.000  0.000  0.000
tot    0.148  0.028  0.575  0.752
 
band    19 # energy   -5.21664094 # occ.  2.00000000
 
ion      s      p      d    tot
    1  0.010  0.000  0.002  0.012
    2  0.000  0.000  0.010  0.010
    3  0.000  0.000  0.010  0.010
    4  0.000  0.000  0.010  0.010
    5  0.001  0.000  0.001  0.003
    6  0.000  0.000  0.010  0.010
    7  0.000  0.000  0.010  0.010
    8  0.000  0.000  0.010  0.010
    9  0.006  0.000  0.003  0.009
   10  0.001  0.001  0.006  0.007
   11  0.000  0.000  0.013  0.014
   12  0.001  0.001  0.006  0.007
   13  0.000  0.000  0.013  0.014
   14  0.000  0.000  0.013  0.014
   15  0.000  0.000  0.016  0.016
   16  0.001  0.001  0.006  0.007
   17  0.000  0.000  0.016  0.016
   18  0.000  0.000  0.016  0.016
   19  0.000  0.000  0.020  0.021
   20  0.001  0.000  0.027  0.028
   21  0.001  0.000  0.027  0.028
   22  0.000  0.000  0.011  0.012
   23  0.001  0.000  0.027  0.028
   24  0.000  0.000  0.011  0.012
   25  0.000  0.000  0.020  0.021
   26  0.000  0.000  0.020  0.021
   27  0.000  0.000  0.011  0.012
   28  0.014  0.000  0.008  0.022
   29  0.001  0.001  0.018  0.020
   30  0.001  0.001  0.018  0.020
   31  0.001  0.001  0.018  0.020
   32  0.001  0.001  0.018  0.020
   33  0.001  0.001  0.018  0.020
   34  0.001  0.001  0.018  0.020
   35  0.002  0.000  0.000  0.002
   36  0.042  0.009  0.033  0.084
   37  0.007  0.086  0.000  0.093
   38  0.009  0.119  0.000  0.129
tot    0.103  0.226  0.497  0.826
 
band    20 # energy   -5.17850196 # occ.  2.00000000
 
ion      s      p      d    tot
    1  0.000  0.000  0.008  0.009
    2  0.000  0.000  0.006  0.007
    3  0.005  0.000  0.009  0.014
    4  0.000  0.000  0.006  0.007
    5  0.000  0.000  0.021  0.021
    6  0.003  0.000  0.006  0.010
    7  0.005  0.000  0.009  0.014
    8  0.003  0.000  0.006  0.010
    9  0.000  0.001  0.005  0.006
   10  0.000  0.000  0.006  0.006
   11  0.000  0.000  0.021  0.021
   12  0.000  0.000  0.007  0.007
   13  0.000  0.000  0.021  0.021
   14  0.000  0.000  0.026  0.026
   15  0.000  0.000  0.007  0.008
   16  0.000  0.000  0.007  0.007
   17  0.000  0.000  0.007  0.008
   18  0.001  0.000  0.021  0.022
   19  0.000  0.000  0.011  0.011
   20  0.000  0.000  0.035  0.035
   21  0.000  0.000  0.027  0.027
   22  0.000  0.000  0.023  0.023
   23  0.000  0.000  0.027  0.027
   24  0.000  0.001  0.017  0.018
   25  0.000  0.000  0.009  0.009
   26  0.000  0.000  0.011  0.011
   27  0.000  0.000  0.023  0.023
   28  0.000  0.000  0.016  0.016
   29  0.014  0.001  0.012  0.027
   30  0.000  0.001  0.012  0.012
   31  0.014  0.001  0.012  0.027
   32  0.013  0.001  0.005  0.020
   33  0.000  0.001  0.012  0.012
   34  0.013  0.001  0.005  0.020
   35  0.000  0.000  0.023  0.023
   36  0.000  0.007  0.004  0.011
   37  0.000  0.055  0.000  0.055
   38  0.000  0.127  0.000  0.127
tot    0.074  0.200  0.484  0.758
 
band    21 # energy   -5.17847033 # occ.  2.00000000
 
ion      s      p      d    tot
    1  0.000  0.000  0.008  0.009
    2  0.005  0.000  0.008  0.014
    3  0.001  0.000  0.006  0.006
    4  0.005  0.000  0.008  0.014
    5  0.000  0.000  0.021  0.021
    6  0.003  0.000  0.008  0.011
    7  0.001  0.000  0.006  0.006
    8  0.003  0.000  0.008  0.011
    9  0.000  0.001  0.005  0.006
   10  0.000  0.000  0.008  0.008
   11  0.000  0.000  0.024  0.024
   12  0.000  0.000  0.006  0.007
   13  0.000  0.000  0.024  0.024
   14  0.000  0.000  0.019  0.019
   15  0.001  0.000  0.017  0.017
   16  0.000  0.000  0.006  0.007