PROCAR new format
# of k-points:   10         # of bands:  252         # of ions:   37

 k-point     1 :    0.00000000 0.00000000 0.00000000     weight = 0.01562500

band     1 # energy  -17.80370200 # occ.  2.00000000
 
ion      s      p      d    tot
    1  0.000  0.000  0.000  0.000
    2  0.000  0.000  0.000  0.000
    3  0.000  0.000  0.000  0.000
    4  0.000  0.000  0.000  0.000
    5  0.000  0.000  0.000  0.000
    6  0.000  0.000  0.000  0.000
    7  0.000  0.000  0.000  0.000
    8  0.000  0.000  0.000  0.000
    9  0.000  0.000  0.000  0.000
   10  0.000  0.000  0.000  0.000
   11  0.000  0.000  0.000  0.000
   12  0.000  0.000  0.000  0.000
   13  0.000  0.000  0.000  0.000
   14  0.000  0.000  0.000  0.000
   15  0.000  0.000  0.000  0.000
   16  0.000  0.000  0.000  0.000
   17  0.000  0.000  0.000  0.000
   18  0.000  0.000  0.000  0.000
   19  0.000  0.000  0.000  0.000
   20  0.000  0.000  0.000  0.000
   21  0.000  0.000  0.000  0.000
   22  0.000  0.000  0.000  0.000
   23  0.000  0.000  0.000  0.000
   24  0.000  0.000  0.000  0.000
   25  0.000  0.000  0.000  0.000
   26  0.000  0.000  0.000  0.000
   27  0.000  0.000  0.000  0.000
   28  0.000  0.000  0.000  0.000
   29  0.000  0.000  0.000  0.000
   30  0.000  0.000  0.000  0.000
   31  0.000  0.000  0.000  0.000
   32  0.000  0.000  0.000  0.000
   33  0.000  0.000  0.000  0.000
   34  0.000  0.000  0.000  0.000
   35  0.000  0.000  0.000  0.000
   36  0.038  0.053  0.117  0.208
   37  0.778  0.011  0.000  0.789
tot    0.816  0.064  0.117  0.998
 
band     2 # energy   -6.33837114 # occ.  2.00000000
 
ion      s      p      d    tot
    1  0.006  0.001  0.000  0.007
    2  0.006  0.001  0.000  0.006
    3  0.006  0.001  0.000  0.006
    4  0.006  0.001  0.000  0.006
    5  0.006  0.001  0.000  0.006
    6  0.006  0.001  0.000  0.006
    7  0.006  0.001  0.000  0.006
    8  0.006  0.001  0.000  0.006
    9  0.006  0.001  0.000  0.006
   10  0.023  0.000  0.000  0.024
   11  0.024  0.000  0.000  0.024
   12  0.023  0.000  0.000  0.024
   13  0.024  0.000  0.000  0.024
   14  0.024  0.000  0.000  0.024
   15  0.022  0.000  0.000  0.023
   16  0.023  0.000  0.000  0.024
   17  0.022  0.000  0.000  0.023
   18  0.022  0.000  0.000  0.023
   19  0.023  0.000  0.001  0.023
   20  0.027  0.000  0.001  0.028
   21  0.027  0.000  0.001  0.028
   22  0.022  0.000  0.000  0.023
   23  0.027  0.000  0.001  0.028
   24  0.022  0.000  0.000  0.023
   25  0.022  0.000  0.001  0.023
   26  0.022  0.000  0.001  0.023
   27  0.022  0.000  0.000  0.023
   28  0.005  0.001  0.000  0.006
   29  0.005  0.001  0.000  0.006
   30  0.005  0.001  0.000  0.006
   31  0.005  0.001  0.000  0.006
   32  0.005  0.001  0.000  0.006
   33  0.005  0.001  0.000  0.006
   34  0.005  0.001  0.000  0.006
   35  0.005  0.001  0.000  0.006
   36  0.008  0.001  0.000  0.010
   37  0.001  0.001  0.000  0.002
tot    0.524  0.015  0.008  0.547
 
band     3 # energy   -5.48069520 # occ.  2.00000000
 
ion      s      p      d    tot
    1  0.007  0.000  0.000  0.007
    2  0.007  0.000  0.000  0.008
    3  0.007  0.000  0.000  0.008
    4  0.007  0.000  0.000  0.008
    5  0.008  0.000  0.000  0.008
    6  0.007  0.000  0.000  0.008
    7  0.007  0.000  0.000  0.008
    8  0.007  0.000  0.000  0.008
    9  0.008  0.000  0.000  0.008
   10  0.010  0.001  0.019  0.030
   11  0.011  0.001  0.014  0.026
   12  0.010  0.001  0.019  0.030
   13  0.011  0.001  0.014  0.026
   14  0.011  0.001  0.014  0.026
   15  0.012  0.001  0.012  0.024
   16  0.010  0.001  0.019  0.030
   17  0.012  0.001  0.012  0.024
   18  0.012  0.001  0.012  0.024
   19  0.011  0.001  0.019  0.030
   20  0.016  0.001  0.033  0.050
   21  0.016  0.001  0.033  0.050
   22  0.008  0.001  0.015  0.024
   23  0.016  0.001  0.033  0.050
   24  0.008  0.001  0.015  0.024
   25  0.011  0.001  0.019  0.030
   26  0.011  0.001  0.019  0.030
   27  0.008  0.001  0.015  0.024
   28  0.005  0.000  0.000  0.005
   29  0.004  0.000  0.000  0.005
   30  0.004  0.000  0.000  0.005
   31  0.004  0.000  0.000  0.005
   32  0.004  0.000  0.000  0.005
   33  0.004  0.000  0.000  0.005
   34  0.004  0.000  0.000  0.005
   35  0.004  0.000  0.000  0.004
   36  0.010  0.001  0.005  0.015
   37  0.001  0.007  0.000  0.008
tot    0.312  0.030  0.340  0.681
 
band     4 # energy   -5.24424697 # occ.  2.00000000
 
ion      s      p      d    tot
    1  0.009  0.001  0.001  0.011
    2  0.003  0.000  0.004  0.007
    3  0.003  0.000  0.004  0.007
    4  0.003  0.000  0.004  0.007
    5  0.001  0.000  0.002  0.003
    6  0.003  0.000  0.004  0.007
    7  0.003  0.000  0.004  0.007
    8  0.003  0.000  0.004  0.007
    9  0.001  0.000  0.002  0.004
   10  0.003  0.000  0.013  0.016
   11  0.000  0.000  0.002  0.003
   12  0.003  0.000  0.013  0.016
   13  0.000  0.000  0.002  0.003
   14  0.000  0.000  0.002  0.003
   15  0.000  0.001  0.001  0.001
   16  0.003  0.000  0.013  0.016
   17  0.000  0.001  0.001  0.001
   18  0.000  0.001  0.001  0.001
   19  0.000  0.001  0.023  0.024
   20  0.003  0.001  0.105  0.108
   21  0.002  0.001  0.105  0.108
   22  0.010  0.000  0.002  0.012
   23  0.002  0.001  0.105  0.108
   24  0.010  0.000  0.002  0.012
   25  0.000  0.001  0.023  0.024
   26  0.000  0.001  0.023  0.024
   27  0.010  0.000  0.002  0.012
   28  0.007  0.000  0.002  0.009
   29  0.009  0.000  0.006  0.015
   30  0.009  0.000  0.006  0.015
   31  0.009  0.000  0.006  0.015
   32  0.009  0.000  0.006  0.015
   33  0.009  0.000  0.006  0.015
   34  0.009  0.000  0.006  0.015
   35  0.015  0.001  0.002  0.017
   36  0.001  0.000  0.082  0.083
   37  0.003  0.048  0.000  0.051
tot    0.154  0.060  0.586  0.800
 
band     5 # energy   -5.17023219 # occ.  2.00000000
 
ion      s      p      d    tot
    1  0.005  0.000  0.026  0.032
    2  0.012  0.000  0.018  0.030
    3  0.012  0.000  0.018  0.030
    4  0.012  0.000  0.018  0.030
    5  0.015  0.000  0.015  0.030
    6  0.012  0.000  0.018  0.030
    7  0.012  0.000  0.018  0.030
    8  0.012  0.000  0.018  0.030
    9  0.015  0.000  0.016  0.031
   10  0.003  0.001  0.015  0.019
   11  0.000  0.000  0.029  0.030
   12  0.003  0.001  0.015  0.019
   13  0.000  0.000  0.029  0.030
   14  0.000  0.000  0.029  0.030
   15  0.000  0.000  0.019  0.020
   16  0.003  0.001  0.015  0.019
   17  0.000  0.000  0.019  0.020
   18  0.000  0.000  0.019  0.020
   19  0.000  0.000  0.011  0.011
   20  0.002  0.000  0.041  0.043
   21  0.002  0.000  0.041  0.043
   22  0.003  0.000  0.011  0.014
   23  0.002  0.000  0.041  0.043
   24  0.003  0.000  0.011  0.014
   25  0.000  0.000  0.011  0.011
   26  0.000  0.000  0.011  0.011
   27  0.003  0.000  0.011  0.014
   28  0.003  0.000  0.008  0.011
   29  0.004  0.000  0.006  0.010
   30  0.004  0.000  0.006  0.010
   31  0.004  0.000  0.006  0.010
   32  0.004  0.000  0.006  0.010
   33  0.004  0.000  0.006  0.010
   34  0.004  0.000  0.006  0.010
   35  0.001  0.000  0.009  0.011
   36  0.015  0.001  0.001  0.017
   37  0.001  0.006  0.000  0.007
tot    0.172  0.013  0.604  0.790
 
band     6 # energy   -5.10237032 # occ.  2.00000000
 
ion      s      p      d    tot
    1  0.000  0.000  0.008  0.008
    2  0.000  0.000  0.002  0.003
    3  0.000  0.000  0.002  0.002
    4  0.000  0.000  0.002  0.003
    5  0.000  0.000  0.003  0.003
    6  0.001  0.000  0.002  0.003
    7  0.000  0.000  0.002  0.002
    8  0.001  0.000  0.002  0.003
    9  0.000  0.000  0.001  0.001
   10  0.010  0.001  0.016  0.026
   11  0.000  0.001  0.022  0.023
   12  0.002  0.001  0.018  0.021
   13  0.000  0.001  0.023  0.024
   14  0.001  0.000  0.019  0.020
   15  0.001  0.000  0.011  0.012
   16  0.003  0.001  0.018  0.022
   17  0.001  0.000  0.011  0.012
   18  0.003  0.001  0.008  0.012
   19  0.007  0.001  0.026  0.034
   20  0.030  0.000  0.008  0.038
   21  0.005  0.000  0.137  0.143
   22  0.000  0.001  0.040  0.041
   23  0.010  0.000  0.114  0.124
   24  0.000  0.000  0.028  0.029
   25  0.020  0.000  0.036  0.056
   26  0.004  0.001  0.024  0.029
   27  0.000  0.001  0.038  0.039
   28  0.000  0.000  0.004  0.004
   29  0.001  0.000  0.005  0.006
   30  0.000  0.000  0.007  0.007
   31  0.001  0.001  0.005  0.007
   32  0.000  0.000  0.007  0.007
   33  0.001  0.000  0.006  0.007
   34  0.000  0.000  0.007  0.007
   35  0.000  0.000  0.001  0.001
   36  0.000  0.000  0.023  0.023
   37  0.000  0.010  0.000  0.010
tot    0.102  0.024  0.686  0.812
 
band     7 # energy   -5.10236716 # occ.  2.00000000
 
ion      s      p      d    tot
    1  0.000  0.000  0.008  0.008
    2  0.001  0.000  0.002  0.003
    3  0.001  0.000  0.002  0.003
    4  0.001  0.000  0.002  0.003
    5  0.000  0.000  0.003  0.003
    6  0.000  0.000  0.002  0.002
    7  0.001  0.000  0.002  0.003
    8  0.000  0.000  0.002  0.002
    9  0.000  0.000  0.001  0.001
   10  0.000  0.001  0.019  0.019
   11  0.001  0.000  0.020  0.021
   12  0.008  0.001  0.016  0.025
   13  0.001  0.000  0.019  0.021
   14  0.000  0.001  0.023  0.024
   15  0.002  0.000  0.009  0.012
   16  0.007  0.001  0.017  0.024
   17  0.003  0.000  0.009  0.012
   18  0.000  0.000  0.012  0.012
   19  0.014  0.001  0.031  0.046
   20  0.000  0.000  0.165  0.165
   21  0.024  0.000  0.036  0.061
   22  0.000  0.001  0.031  0.031
   23  0.020  0.000  0.058  0.079
   24  0.000  0.001  0.042  0.043
   25  0.000  0.001  0.021  0.023
   26  0.016  0.001  0.033  0.050
   27  0.000  0.001  0.033  0.034
   28  0.000  0.000  0.004  0.004
   29  0.000  0.000  0.007  0.008
   30  0.000  0.000  0.006  0.007
   31  0.000  0.000  0.007  0.007
   32  0.001  0.001  0.005  0.007
   33  0.000  0.000  0.006  0.007
   34  0.001  0.001  0.006  0.007
   35  0.000  0.000  0.001  0.001
   36  0.000  0.000  0.023  0.023
   37  0.000  0.010  0.000  0.010
tot    0.102  0.024  0.686  0.812
 
band     8 # energy   -5.05985217 # occ.  2.00000000
 
ion      s      p      d    tot
    1  0.000  0.000  0.004  0.004
    2  0.000  0.000  0.002  0.002
    3  0.001  0.000  0.006  0.008
    4  0.000  0.000  0.002  0.002
    5  0.000  0.000  0.008  0.009
    6  0.001  0.001  0.005  0.007
    7  0.001  0.000  0.006  0.007
    8  0.001  0.001  0.005  0.006
    9  0.000  0.000  0.001  0.001
   10  0.006  0.001  0.018  0.025
   11  0.009  0.001  0.072  0.081
   12  0.001  0.000  0.077  0.079
   13  0.007  0.001  0.076  0.083
   14  0.031  0.001  0.015  0.046
   15  0.002  0.001  0.015  0.018
   16  0.002  0.000  0.073  0.075
   17  0.002  0.001  0.013  0.016
   18  0.009  0.000  0.038  0.047
   19  0.000  0.000  0.027  0.027
   20  0.008  0.001  0.042  0.051
   21  0.002  0.001  0.031  0.034
   22  0.003  0.000  0.021  0.024
   23  0.002  0.001  0.032  0.035
   24  0.012  0.001  0.010  0.023
   25  0.001  0.000  0.013  0.015
   26  0.000  0.000  0.027  0.028
   27  0.003  0.000  0.020  0.024
   28  0.000  0.000  0.001  0.001
   29  0.001  0.000  0.004  0.005
   30  0.000  0.000  0.003  0.003
   31  0.001  0.000  0.004  0.005
   32  0.000  0.000  0.002  0.003
   33  0.000  0.000  0.003  0.003
   34  0.000  0.000  0.003  0.003
   35  0.000  0.000  0.005  0.006
   36  0.000  0.000  0.004  0.004
   37  0.000  0.000  0.000  0.000
tot    0.108  0.015  0.689  0.812
 
band     9 # energy   -5.05984633 # occ.  2.00000000
 
ion      s      p      d    tot
    1  0.000  0.000  0.004  0.004
    2  0.001  0.001  0.007  0.009
    3  0.000  0.000  0.002  0.003
    4  0.001  0.001  0.007  0.009
    5  0.000  0.000  0.008  0.009
    6  0.000  0.000  0.004  0.004
    7  0.001  0.000  0.003  0.004
    8  0.000  0.000  0.004  0.005
    9  0.000  0.000  0.001  0.001
   10  0.000  0.000  0.094  0.094
   11  0.022  0.001  0.036  0.059
   12  0.005  0.001  0.035  0.040
   13  0.024  0.001  0.032  0.057
   14  0.000  0.001  0.093  0.094
   15  0.006  0.001  0.029  0.036
   16  0.004  0.001  0.039  0.044
   17  0.007  0.000  0.031  0.038
   18  0.000  0.002  0.006  0.007
   19  0.001  0.000  0.018  0.020
   20  0.000  0.001  0.028  0.029
   21  0.007  0.001  0.039  0.046
   22  0.010  0.001  0.013  0.023
   23  0.006  0.001  0.038  0.045
   24  0.000  0.000  0.025  0.025
   25  0.000  0.000  0.032  0.032
   26  0.001  0.000  0.017  0.019
   27  0.009  0.001  0.014  0.023
   28  0.000  0.000  0.001  0.001
   29  0.000  0.000  0.002  0.002
   30  0.001  0.000  0.003  0.004
   31  0.000  0.000  0.002  0.002
   32  0.001  0.000  0.003  0.005
   33  0.001  0.000  0.003  0.004
   34  0.001  0.000  0.003  0.005
   35  0.000  0.000  0.005  0.006
   36  0.000  0.000  0.004  0.004
   37  0.000  0.000  0.000  0.000
tot    0.108  0.015  0.689  0.812
 
band    10 # energy   -5.05481340 # occ.  2.00000000
 
ion      s      p      d    tot
    1  0.004  0.001  0.002  0.007
    2  0.000  0.000  0.006  0.007
    3  0.000  0.000  0.006  0.007
    4  0.000  0.000  0.006  0.007
    5  0.000  0.001  0.015  0.016
    6  0.000  0.000  0.006  0.007
    7  0.000  0.000  0.006  0.007
    8  0.000  0.000  0.006  0.007
    9  0.000  0.000  0.000  0.000
   10  0.009  0.001  0.014  0.023
   11  0.009  0.000  0.085  0.094
   12  0.009  0.001  0.014  0.023
   13  0.009  0.000  0.085  0.094
   14  0.009  0.000  0.085  0.094
   15  0.002  0.000  0.034  0.036
   16  0.009  0.001  0.014  0.023
   17  0.002  0.000  0.034  0.036
   18  0.002  0.000  0.034  0.036
   19  0.002  0.000  0.021  0.024
   20  0.002  0.001  0.047  0.049
   21  0.002  0.001  0.046  0.049
   22  0.000  0.000  0.016  0.016
   23  0.002  0.001  0.046  0.049
   24  0.000  0.000  0.016  0.016
   25  0.002  0.000  0.021  0.024
   26  0.002  0.000  0.021  0.024
   27  0.000  0.000  0.016  0.016
   28  0.000  0.000  0.000  0.001
   29  0.000  0.000  0.004  0.004
   30  0.000  0.000  0.004  0.004
   31  0.000  0.000  0.004  0.004
   32  0.000  0.000  0.004  0.004
   33  0.000  0.000  0.004  0.004
   34  0.000  0.000  0.004  0.004
   35  0.000  0.000  0.001  0.001
   36  0.003  0.000  0.001  0.004
   37  0.000  0.000  0.000  0.000
tot    0.084  0.012  0.730  0.826
 
band    11 # energy   -5.04017684 # occ.  2.00000000
 
ion      s      p      d    tot
    1  0.002  0.000  0.002  0.004
    2  0.001  0.000  0.009  0.010
    3  0.001  0.000  0.009  0.010
    4  0.001  0.000  0.009  0.010
    5  0.008  0.000  0.003  0.011
    6  0.001  0.000  0.009  0.010
    7  0.001  0.000  0.009  0.010
    8  0.001  0.000  0.009  0.010
    9  0.002  0.001  0.015  0.019
   10  0.000  0.001  0.064  0.064
   11  0.007  0.001  0.010  0.017
   12  0.000  0.001  0.064  0.064
   13  0.007  0.001  0.010  0.017
   14  0.007  0.001  0.010  0.017
   15  0.014  0.000  0.037  0.051
   16  0.000  0.001  0.064  0.064
   17  0.014  0.000  0.037  0.051
   18  0.014  0.000  0.037  0.051
   19  0.008  0.000  0.016  0.024
   20  0.006  0.000  0.018  0.025
   21  0.006  0.000  0.018  0.025
   22  0.000  0.000  0.028  0.029
   23  0.006  0.000  0.018  0.025
   24  0.000  0.000  0.028  0.029
   25  0.008  0.000  0.016  0.024
   26  0.008  0.000  0.016  0.024
   27  0.000  0.000  0.028  0.029
   28  0.004  0.001  0.004  0.009
   29  0.000  0.000  0.010  0.010
   30  0.000  0.000  0.010  0.010
   31  0.000  0.000  0.010  0.010
   32  0.000  0.000  0.010  0.010
   33  0.000  0.000  0.010  0.010
   34  0.000  0.000  0.010  0.010
   35  0.001  0.000  0.001  0.003
   36  0.006  0.001  0.003  0.010
   37  0.000  0.000  0.000  0.000
tot    0.135  0.015  0.656  0.806
 
band    12 # energy   -5.02253349 # occ.  2.00000000
 
ion      s      p      d    tot
    1  0.001  0.000  0.004  0.005
    2  0.002  0.000  0.009  0.011
    3  0.002  0.000  0.009  0.011
    4  0.002  0.000  0.009  0.011
    5  0.000  0.000  0.002  0.002
    6  0.002  0.000  0.009  0.011
    7  0.002  0.000  0.009  0.011
    8  0.002  0.000  0.009  0.011
    9  0.006  0.000  0.013  0.019
   10  0.001  0.000  0.019  0.019
   11  0.000  0.000  0.009  0.009
   12  0.001  0.000  0.019  0.019
   13  0.000  0.000  0.009  0.009
   14  0.000  0.000  0.009  0.009
   15  0.002  0.000  0.037  0.039
   16  0.001  0.000  0.019  0.019
   17  0.002  0.000  0.037  0.039
   18  0.002  0.000  0.037  0.039
   19  0.004  0.001  0.007  0.012
   20  0.001  0.000  0.043  0.044
   21  0.001  0.000  0.043  0.044
   22  0.005  0.000  0.063  0.068
   23  0.001  0.000  0.042  0.044
   24  0.005  0.000  0.063  0.068
   25  0.004  0.001  0.007  0.012
   26  0.004  0.001  0.007  0.012
   27  0.005  0.000  0.063  0.068
   28  0.010  0.001  0.001  0.011
   29  0.004  0.000  0.012  0.016
   30  0.004  0.000  0.012  0.016
   31  0.004  0.000  0.012  0.016
   32  0.004  0.000  0.012  0.016
   33  0.004  0.000  0.012  0.016
   34  0.004  0.000  0.012  0.016
   35  0.003  0.000  0.029  0.033
   36  0.000  0.000  0.008  0.008
   37  0.000  0.004  0.000  0.004
tot    0.093  0.013  0.714  0.820
 
band    13 # energy   -5.01314080 # occ.  2.00000000
 
ion      s      p      d    tot
    1  0.000  0.001  0.011  0.012
    2  0.004  0.001  0.007  0.012
    3  0.004  0.001  0.006  0.012
    4  0.001  0.001  0.010  0.012
    5  0.000  0.000  0.008  0.008
    6  0.000  0.000  0.010  0.011
    7  0.002  0.000  0.005  0.008
    8  0.001  0.000  0.006  0.007
    9  0.000  0.001  0.009  0.010
   10  0.017  0.000  0.030  0.047
   11  0.000  0.001  0.023  0.023
   12  0.015  0.000  0.032  0.048
   13  0.000  0.000  0.034  0.034
   14  0.000  0.000  0.036  0.036
   15  0.000  0.000  0.113  0.113
   16  0.000  0.001  0.052  0.053
   17  0.014  0.000  0.036  0.050
   18  0.015  0.000  0.027  0.042
   19  0.000  0.000  0.036  0.036
   20  0.002  0.000  0.019  0.021
   21  0.001  0.000  0.019  0.021
   22  0.006  0.000  0.019  0.025
   23  0.000  0.000  0.019  0.019
   24  0.007  0.000  0.018  0.025
   25  0.002  0.000  0.021  0.023
   26  0.002  0.000  0.022  0.024
   27  0.000  0.000  0.030  0.030
   28  0.000  0.000  0.011  0.011
   29  0.000  0.000  0.005  0.005
   30  0.000  0.000  0.004  0.005
   31  0.003  0.001  0.005  0.009
   32  0.003  0.001  0.005  0.009
   33  0.002  0.000  0.004  0.006
   34  0.002  0.000  0.004  0.006
   35  0.000  0.000  0.005  0.005
   36  0.000  0.000  0.002  0.002
   37  0.000  0.000  0.000  0.000
tot    0.104  0.013  0.700  0.817
 
band    14 # energy   -5.01313979 # occ.  2.00000000
 
ion      s      p      d    tot
    1  0.000  0.001  0.011  0.012
    2  0.000  0.000  0.008  0.009
    3  0.000  0.000  0.009  0.009
    4  0.003  0.001  0.005  0.009
    5  0.000  0.000  0.008  0.008
    6  0.004  0.001  0.005  0.009
    7  0.003  0.001  0.010  0.013
    8  0.003  0.001  0.009  0.013
    9  0.000  0.001  0.009  0.010
   10  0.004  0.001  0.046  0.051
   11  0.000  0.000  0.039  0.039
   12  0.006  0.001  0.044  0.050
   13  0.000  0.000  0.027  0.028
   14  0.000  0.000  0.026  0.026
   15  0.019  0.000  0.004  0.024
   16  0.021  0.000  0.024  0.046
   17  0.006  0.000  0.081  0.087
   18  0.004  0.000  0.090  0.094
   19  0.002  0.001  0.017  0.020
   20  0.000  0.000  0.019  0.020
   21  0.001  0.000  0.019  0.020
   22  0.003  0.000  0.025  0.028
   23  0.002  0.000  0.019  0.021
   24  0.002  0.000  0.027  0.029
   25  0.000  0.000  0.032  0.032
   26  0.001  0.000  0.030  0.031
   27  0.009  0.000  0.014  0.023
   28  0.000  0.000  0.011  0.011
   29  0.003  0.001  0.004  0.008
   30  0.004  0.001  0.004  0.008
   31  0.001  0.000  0.004  0.004
   32  0.000  0.000  0.004  0.004
   33  0.002  0.000  0.005  0.007
   34  0.001  0.000  0.005  0.007
   35  0.000  0.000  0.005  0.005
   36  0.000  0.000  0.002  0.002
   37  0.000  0.000  0.000  0.000
tot    0.104  0.013  0.700  0.817
 
band    15 # energy   -5.00140795 # occ.  2.00000000
 
ion      s      p      d    tot
    1  0.007  0.000  0.017  0.025
    2  0.003  0.000  0.012  0.014
    3  0.003  0.000  0.012  0.014
    4  0.003  0.000  0.012  0.014
    5  0.001  0.000  0.009  0.010
    6  0.003  0.000  0.012  0.014
    7  0.003  0.000  0.012  0.014
    8  0.003  0.000  0.012  0.014
    9  0.002  0.000  0.001  0.003
   10  0.001  0.000  0.038  0.039
   11  0.004  0.000  0.010  0.014
   12  0.001  0.000  0.038  0.039
   13  0.004  0.000  0.010  0.014
   14  0.004  0.000  0.010  0.014
   15  0.000  0.000  0.018  0.018
   16  0.001  0.000  0.038  0.039
   17  0.000  0.000  0.018  0.018
   18  0.000  0.000  0.018  0.018
   19  0.004  0.000  0.043  0.048
   20  0.000  0.001  0.005  0.006
   21  0.000  0.001  0.005  0.006
   22  0.001  0.000  0.031  0.032
   23  0.000  0.001  0.005  0.006
   24  0.001  0.000  0.031  0.032
   25  0.004  0.000  0.043  0.048
   26  0.004  0.000  0.043  0.048
   27  0.001  0.000  0.031  0.032
   28  0.008  0.000  0.034  0.041
   29  0.007  0.000  0.018  0.025
   30  0.007  0.000  0.018  0.025
   31  0.007  0.000  0.018  0.025
   32  0.007  0.000  0.018  0.025
   33  0.007  0.000  0.018  0.025
   34  0.007  0.000  0.018  0.025
   35  0.003  0.000  0.009  0.012
   36  0.011  0.001  0.003  0.015
   37  0.000  0.000  0.000  0.000
tot    0.119  0.008  0.685  0.812
 
band    16 # energy   -4.99907074 # occ.  2.00000000
 
ion      s      p      d    tot
    1  0.000  0.000  0.006  0.006
    2  0.002  0.000  0.007  0.009
    3  0.000  0.000  0.008  0.008
    4  0.002  0.000  0.007  0.009
    5  0.000  0.000  0.005  0.005
    6  0.002  0.000  0.005  0.007
    7  0.000  0.000  0.007  0.008
    8  0.002  0.000  0.005  0.007
    9  0.000  0.000  0.018  0.018
   10  0.000  0.000  0.036  0.036
   11  0.001  0.000  0.045  0.046
   12  0.000  0.000  0.016  0.016
   13  0.001  0.000  0.041  0.042
   14  0.003  0.000  0.008  0.012
   15  0.000  0.000  0.043  0.044
   16  0.000  0.000  0.013  0.013
   17  0.001  0.000  0.042  0.043
   18  0.002  0.000  0.031  0.033
   19  0.002  0.000  0.078  0.080
   20  0.000  0.000  0.054  0.054
   21  0.000  0.000  0.024  0.024
   22  0.003  0.000  0.055  0.059
   23  0.000  0.000  0.020  0.020
   24  0.011  0.000  0.029  0.041
   25  0.007  0.000  0.007  0.014
   26  0.002  0.000  0.071  0.073
   27  0.002  0.000  0.058  0.061
   28  0.000  0.000  0.005  0.005
   29  0.000  0.000  0.007  0.008
   30  0.002  0.000  0.003  0.004
   31  0.000  0.000  0.008  0.008
   32  0.000  0.000  0.008  0.009
   33  0.002  0.000  0.003  0.005
   34  0.000  0.000  0.008  0.008
   35  0.000  0.000  0.011  0.011
   36  0.000  0.000  0.001  0.001
   37  0.000  0.000  0.000  0.000
tot    0.047  0.006  0.795  0.849
 
band    17 # energy   -4.99905462 # occ.  2.00000000
 
ion      s      p      d    tot
    1  0.000  0.000  0.006  0.006
    2  0.001  0.000  0.006  0.007
    3  0.002  0.000  0.005  0.008
    4  0.000  0.000  0.006  0.007
    5  0.000  0.000  0.005  0.005
    6  0.000  0.000  0.008  0.009
    7  0.002  0.000  0.006  0.008
    8  0.001  0.000  0.008  0.009
    9  0.000  0.000  0.018  0.018
   10  0.000  0.000  0.007  0.007
   11  0.002  0.000  0.018  0.021
   12  0.000  0.000  0.028  0.028
   13  0.002  0.000  0.022  0.024
   14  0.000  0.000  0.055  0.055
   15  0.002  0.000  0.034  0.036
   16  0.000  0.000  0.030  0.030
   17  0.002  0.000  0.035  0.037
   18  0.000  0.000  0.047  0.047
   19  0.006  0.000  0.026  0.032
   20  0.000  0.000  0.011  0.011
   21  0.000  0.000  0.042  0.042
   22  0.008  0.000  0.040  0.048
   23  0.000  0.000  0.045  0.045
   24  0.000  0.000  0.066  0.066
   25  0.000  0.000  0.098  0.098
   26  0.005  0.000  0.033  0.038
   27  0.009  0.000  0.037  0.046
   28  0.000  0.000  0.005  0.005
   29  0.001  0.000  0.005  0.006
   30  0.000  0.000  0.009  0.010
   31  0.001  0.000  0.004  0.006
   32  0.001  0.000  0.004  0.005
   33  0.000  0.000  0.009  0.010
   34  0.001  0.000  0.004  0.006
   35  0.000  0.000  0.011  0.011
   36  0.000  0.000  0.001  0.001
   37  0.000  0.000  0.000  0.000
tot    0.047  0.006  0.795  0.849
 
band    18 # energy   -4.89913070 # occ.  2.00000000
 
ion      s      p      d    tot
    1  0.000  0.000  0.002  0.002
    2  0.001  0.001  0.007  0.008
    3  0.000  0.000  0.006  0.006
    4  0.001  0.001  0.007  0.008
    5  0.000  0.001  0.014  0.014
    6  0.002  0.001  0.004  0.007
    7  0.000  0.000  0.006  0.006
    8  0.002  0.001  0.004  0.007
    9  0.000  0.000  0.007  0.007
   10  0.000  0.001  0.025  0.026
   11  0.001  0.000  0.058  0.059
   12  0.000  0.000  0.008  0.009
   13  0.001  0.000  0.059  0.060
   14  0.003  0.000  0.046  0.049
   15  0.000  0.000  0.018  0.018
   16  0.000  0.000  0.009  0.009
   17  0.000  0.000  0.018  0.018
   18  0.001  0.000  0.023  0.024
   19  0.000  0.000  0.006  0.006
   20  0.001  0.000  0.085  0.086
   21  0.000  0.000  0.107  0.107
   22  0.000  0.000  0.038  0.038
   23  0.000  0.000  0.107  0.107
   24  0.000  0.001  0.023  0.024
   25  0.000  0.001  0.022  0.023
   26  0.000  0.000  0.006  0.006
   27  0.000  0.000  0.038  0.038
   28  0.000  0.000  0.001  0.001
   29  0.000  0.000  0.007  0.007
   30  0.001  0.000  0.008  0.009
   31  0.000  0.000  0.007  0.007
   32  0.001  0.001  0.010  0.011
   33  0.001  0.000  0.008  0.009
   34  0.001  0.001  0.010  0.011
   35  0.000  0.000  0.000  0.000
   36  0.000  0.000  0.028  0.028
   37  0.000  0.016  0.000  0.016
tot    0.017  0.027  0.829  0.873
 
band    19 # energy   -4.89912086 # occ.  2.00000000
 
ion      s      p      d    tot
    1  0.000  0.000  0.002  0.002
    2  0.001  0.000  0.005  0.006
    3  0.002  0.001  0.005  0.008
    4  0.001  0.000  0.005  0.006
    5  0.000  0.001  0.014  0.014
    6  0.000  0.000  0.007  0.007
    7  0.002  0.001  0.005  0.008
    8  0.000  0.000  0.007  0.007
    9  0.000  0.000  0.007  0.007
   10  0.000  0.000  0.003  0.003
   11  0.002  0.000  0.050  0.053
   12  0.000  0.001  0.020  0.020
   13  0.002  0.000  0.050  0.052
   14  0.000  0.000  0.063  0.063
   15  0.001  0.000  0.021  0.022
   16  0.000  0.001  0.019  0.020
   17  0.001  0.000  0.021  0.022
   18  0.000  0.000  0.016  0.016
   19  0.000  0.001  0.017  0.017
   20  0.000  0.000  0.114  0.114
   21  0.001  0.000  0.092  0.093
   22  0.000  0.001  0.028  0.028
   23  0.001  0.000  0.093  0.093
   24  0.000  0.000  0.043  0.043
   25  0.000  0.000  0.000  0.000
   26  0.000  0.001  0.017  0.017
   27  0.000  0.001  0.028  0.029
   28  0.000  0.000  0.001  0.001
   29  0.001  0.001  0.010  0.011
   30  0.000  0.000  0.008  0.009
   31  0.001  0.001  0.010  0.011
   32  0.000  0.000  0.007  0.007
   33  0.000  0.000  0.009  0.009
   34  0.000  0.000  0.007  0.007
   35  0.000  0.000  0.000  0.000
   36  0.000  0.000  0.028  0.028
   37  0.000  0.016  0.000  0.016
tot    0.017  0.027  0.829  0.873
 
band    20 # energy   -4.89680184 # occ.  2.00000000
 
ion      s      p      d    tot
    1  0.000  0.000  0.000  0.000
    2  0.000  0.000  0.004  0.005
    3  0.000  0.000  0.004  0.005
    4  0.000  0.000  0.004  0.005
    5  0.002  0.001  0.012  0.014
    6  0.000  0.000  0.004  0.005
    7  0.000  0.000  0.004  0.005
    8  0.000  0.000  0.004  0.005
    9  0.000  0.000  0.011  0.011
   10  0.001  0.000  0.005  0.006
   11  0.000  0.001  0.080  0.081
   12  0.001  0.000  0.005  0.006
   13  0.000  0.001  0.080  0.081
   14  0.000  0.001  0.081  0.081
   15  0.001  0.001  0.039  0.040
   16  0.001  0.000  0.005  0.006
   17  0.001  0.001  0.039  0.040
   18  0.001  0.001  0.039  0.040
   19  0.001  0.000  0.012  0.013
   20  0.003  0.001  0.055  0.059
   21  0.003  0.001  0.055  0.059
   22  0.004  0.000  0.023  0.028
   23  0.003  0.001  0.055  0.059
   24  0.004  0.000  0.024  0.028
   25  0.001  0.000  0.012  0.013
   26  0.001  0.000  0.012  0.013
   27  0.004  0.000  0.023  0.028
   28  0.002  0.001  0.000  0.002
   29  0.000  0.001  0.014  0.015
   30  0.000  0.001  0.014  0.015
   31  0.000  0.001  0.014  0.015
   32  0.000  0.001  0.014  0.015
   33  0.000  0.001  0.014  0.015
   34  0.000  0.001  0.014  0.015
   35  0.006  0.001  0.003  0.009
   36  0.002  0.000  0.009  0.011
   37  0.001  0.010  0.000  0.011
tot    0.043  0.023  0.793  0.859
 
band    21 # energy   -4.83903787 # occ.  2.00000000
 
ion      s      p      d    tot
    1  0.000  0.000  0.006  0.006
    2  0.000  0.001  0.012  0.013
    3  0.000  0.001  0.012  0.013
    4  0.000  0.001  0.012  0.013
    5  0.005  0.001  0.000  0.006
    6  0.000  0.001  0.012  0.013
    7  0.000  0.001  0.012  0.013
    8  0.000  0.001  0.012  0.013
    9  0.002  0.000  0.002  0.004
   10  0.002  0.001  0.053  0.055
   11  0.000  0.000  0.025  0.025
   12  0.002  0.001  0.053  0.055
   13  0.000  0.000  0.025  0.025
   14  0.000  0.000  0.025  0.025
   15  0.003  0.000  0.022  0.025
   16  0.002  0.001  0.053  0.055
   17  0.003  0.000  0.022  0.025
   18  0.003  0.000  0.022  0.025
   19  0.001  0.001  0.058  0.060
   20  0.001  0.000  0.015  0.016
   21  0.001  0.000  0.015  0.016
   22  0.000  0.001  0.041  0.042
   23  0.001  0.000  0.015  0.016
   24  0.000  0.001  0.041  0.042
   25  0.001  0.000  0.058  0.060
   26  0.001  0.001  0.058  0.060
   27  0.000  0.001  0.041  0.042
   28  0.000  0.000  0.016  0.017
   29  0.000  0.000  0.010  0.010
   30  0.000  0.000  0.010  0.010
   31  0.000  0.000  0.010  0.010
   32  0.000  0.000  0.010  0.010
   33  0.000  0.000  0.010  0.010
   34  0.000  0.000  0.010  0.010
   35  0.004  0.001  0.002  0.007
   36  0.003  0.000  0.000  0.003