PROCAR new format
# of k-points:   10         # of bands:  252         # of ions:   39

 k-point     1 :    0.00000000 0.00000000 0.00000000     weight = 0.01562500

band     1 # energy  -24.34618015 # occ.  2.00000000
 
ion      s      p      d    tot
    1  0.000  0.000  0.000  0.000
    2  0.000  0.000  0.000  0.000
    3  0.000  0.000  0.000  0.000
    4  0.000  0.000  0.000  0.000
    5  0.000  0.000  0.000  0.000
    6  0.000  0.000  0.000  0.000
    7  0.000  0.000  0.000  0.000
    8  0.000  0.000  0.000  0.000
    9  0.000  0.000  0.000  0.000
   10  0.000  0.000  0.000  0.000
   11  0.000  0.000  0.000  0.000
   12  0.000  0.000  0.000  0.000
   13  0.000  0.000  0.000  0.000
   14  0.000  0.000  0.000  0.000
   15  0.000  0.000  0.000  0.000
   16  0.000  0.000  0.000  0.000
   17  0.000  0.000  0.000  0.000
   18  0.000  0.000  0.000  0.000
   19  0.000  0.000  0.000  0.000
   20  0.000  0.000  0.000  0.000
   21  0.000  0.000  0.000  0.000
   22  0.000  0.000  0.000  0.000
   23  0.000  0.000  0.000  0.000
   24  0.000  0.000  0.000  0.000
   25  0.000  0.000  0.000  0.000
   26  0.000  0.000  0.000  0.000
   27  0.000  0.000  0.000  0.000
   28  0.000  0.000  0.000  0.000
   29  0.000  0.000  0.000  0.000
   30  0.000  0.000  0.000  0.000
   31  0.000  0.000  0.000  0.000
   32  0.000  0.000  0.000  0.000
   33  0.000  0.000  0.000  0.000
   34  0.000  0.000  0.000  0.000
   35  0.000  0.000  0.000  0.000
   36  0.000  0.000  0.000  0.000
   37  0.074  0.055  0.000  0.129
   38  0.726  0.006  0.000  0.731
   39  0.064  0.014  0.000  0.078
tot    0.864  0.074  0.000  0.938
 
band     2 # energy  -15.09056404 # occ.  2.00000000
 
ion      s      p      d    tot
    1  0.000  0.000  0.000  0.000
    2  0.000  0.000  0.000  0.000
    3  0.000  0.000  0.000  0.000
    4  0.000  0.000  0.000  0.000
    5  0.000  0.000  0.000  0.000
    6  0.000  0.000  0.000  0.000
    7  0.000  0.000  0.000  0.000
    8  0.000  0.000  0.000  0.000
    9  0.000  0.000  0.000  0.000
   10  0.000  0.000  0.000  0.000
   11  0.000  0.000  0.000  0.000
   12  0.000  0.000  0.000  0.000
   13  0.000  0.000  0.000  0.000
   14  0.000  0.000  0.000  0.000
   15  0.000  0.000  0.000  0.000
   16  0.000  0.000  0.000  0.000
   17  0.000  0.000  0.000  0.000
   18  0.000  0.000  0.000  0.000
   19  0.000  0.000  0.000  0.000
   20  0.000  0.000  0.000  0.000
   21  0.000  0.000  0.000  0.000
   22  0.000  0.000  0.000  0.000
   23  0.000  0.000  0.000  0.000
   24  0.000  0.000  0.000  0.000
   25  0.000  0.000  0.000  0.000
   26  0.000  0.000  0.000  0.000
   27  0.000  0.000  0.000  0.000
   28  0.000  0.000  0.000  0.000
   29  0.000  0.000  0.000  0.000
   30  0.000  0.000  0.000  0.000
   31  0.000  0.000  0.000  0.000
   32  0.000  0.000  0.000  0.000
   33  0.000  0.000  0.000  0.000
   34  0.000  0.000  0.000  0.000
   35  0.000  0.000  0.000  0.000
   36  0.002  0.002  0.002  0.005
   37  0.159  0.051  0.000  0.209
   38  0.016  0.521  0.000  0.536
   39  0.201  0.032  0.000  0.233
tot    0.377  0.605  0.002  0.984
 
band     3 # energy   -8.95686773 # occ.  2.00000000
 
ion      s      p      d    tot
    1  0.006  0.001  0.000  0.007
    2  0.006  0.001  0.000  0.007
    3  0.006  0.001  0.000  0.007
    4  0.006  0.001  0.000  0.007
    5  0.006  0.001  0.000  0.007
    6  0.006  0.001  0.000  0.007
    7  0.006  0.001  0.000  0.007
    8  0.006  0.001  0.000  0.007
    9  0.006  0.001  0.000  0.007
   10  0.023  0.000  0.000  0.023
   11  0.023  0.000  0.000  0.023
   12  0.023  0.000  0.000  0.023
   13  0.023  0.000  0.000  0.023
   14  0.023  0.000  0.000  0.023
   15  0.022  0.000  0.000  0.023
   16  0.023  0.000  0.000  0.023
   17  0.022  0.000  0.000  0.023
   18  0.022  0.000  0.000  0.023
   19  0.024  0.000  0.000  0.024
   20  0.026  0.000  0.000  0.026
   21  0.026  0.000  0.000  0.026
   22  0.024  0.000  0.000  0.024
   23  0.026  0.000  0.000  0.026
   24  0.024  0.000  0.000  0.024
   25  0.024  0.000  0.000  0.024
   26  0.024  0.000  0.000  0.024
   27  0.024  0.000  0.000  0.024
   28  0.007  0.001  0.000  0.008
   29  0.008  0.001  0.000  0.008
   30  0.008  0.001  0.000  0.008
   31  0.008  0.001  0.000  0.008
   32  0.008  0.001  0.000  0.008
   33  0.008  0.001  0.000  0.008
   34  0.008  0.001  0.000  0.008
   35  0.007  0.001  0.000  0.007
   36  0.016  0.000  0.004  0.019
   37  0.006  0.006  0.000  0.012
   38  0.001  0.002  0.000  0.003
   39  0.001  0.000  0.000  0.001
tot    0.560  0.023  0.005  0.587
 
band     4 # energy   -7.96840111 # occ.  2.00000000
 
ion      s      p      d    tot
    1  0.009  0.001  0.000  0.009
    2  0.009  0.001  0.000  0.009
    3  0.009  0.001  0.000  0.009
    4  0.009  0.001  0.000  0.009
    5  0.008  0.000  0.000  0.009
    6  0.009  0.001  0.000  0.009
    7  0.009  0.001  0.000  0.009
    8  0.009  0.001  0.000  0.009
    9  0.009  0.001  0.000  0.010
   10  0.009  0.001  0.000  0.010
   11  0.008  0.001  0.000  0.009
   12  0.009  0.001  0.000  0.010
   13  0.008  0.001  0.000  0.009
   14  0.008  0.001  0.000  0.009
   15  0.010  0.000  0.000  0.010
   16  0.009  0.001  0.000  0.010
   17  0.010  0.000  0.000  0.010
   18  0.010  0.000  0.000  0.010
   19  0.000  0.001  0.000  0.002
   20  0.003  0.003  0.001  0.006
   21  0.003  0.003  0.001  0.006
   22  0.001  0.001  0.000  0.002
   23  0.003  0.003  0.001  0.006
   24  0.001  0.001  0.000  0.002
   25  0.000  0.001  0.000  0.002
   26  0.000  0.001  0.000  0.002
   27  0.001  0.001  0.000  0.002
   28  0.005  0.000  0.000  0.005
   29  0.010  0.000  0.001  0.011
   30  0.010  0.000  0.001  0.011
   31  0.010  0.000  0.001  0.011
   32  0.010  0.000  0.001  0.011
   33  0.010  0.000  0.001  0.011
   34  0.010  0.000  0.001  0.011
   35  0.005  0.000  0.000  0.005
   36  0.084  0.023  0.063  0.170
   37  0.101  0.092  0.000  0.193
   38  0.008  0.030  0.000  0.038
   39  0.009  0.001  0.000  0.009
tot    0.443  0.173  0.075  0.691
 
band     5 # energy   -7.28403289 # occ.  2.00000000
 
ion      s      p      d    tot
    1  0.012  0.000  0.001  0.013
    2  0.012  0.000  0.001  0.013
    3  0.012  0.000  0.001  0.013
    4  0.012  0.000  0.001  0.013
    5  0.013  0.000  0.001  0.014
    6  0.012  0.000  0.001  0.013
    7  0.012  0.000  0.001  0.013
    8  0.012  0.000  0.001  0.013
    9  0.011  0.000  0.001  0.012
   10  0.002  0.002  0.000  0.005
   11  0.003  0.002  0.000  0.006
   12  0.002  0.002  0.000  0.005
   13  0.003  0.002  0.000  0.006
   14  0.003  0.002  0.000  0.006
   15  0.002  0.003  0.000  0.005
   16  0.002  0.002  0.000  0.005
   17  0.002  0.003  0.000  0.005
   18  0.002  0.003  0.000  0.005
   19  0.016  0.001  0.001  0.018
   20  0.005  0.001  0.002  0.008
   21  0.005  0.001  0.002  0.008
   22  0.015  0.001  0.001  0.017
   23  0.005  0.001  0.002  0.008
   24  0.015  0.001  0.001  0.017
   25  0.016  0.001  0.001  0.018
   26  0.016  0.001  0.001  0.018
   27  0.015  0.001  0.001  0.017
   28  0.013  0.001  0.000  0.014
   29  0.005  0.002  0.001  0.008
   30  0.005  0.002  0.001  0.008
   31  0.005  0.002  0.001  0.008
   32  0.005  0.002  0.001  0.008
   33  0.005  0.002  0.001  0.008
   34  0.005  0.002  0.001  0.008
   35  0.013  0.001  0.000  0.014
   36  0.022  0.030  0.075  0.127
   37  0.087  0.071  0.000  0.158
   38  0.006  0.020  0.000  0.026
   39  0.006  0.000  0.000  0.006
tot    0.419  0.167  0.101  0.686
 
band     6 # energy   -7.15524493 # occ.  2.00000000
 
ion      s      p      d    tot
    1  0.000  0.000  0.000  0.000
    2  0.000  0.000  0.000  0.000
    3  0.000  0.000  0.000  0.000
    4  0.000  0.000  0.000  0.000
    5  0.000  0.000  0.000  0.000
    6  0.000  0.000  0.000  0.000
    7  0.000  0.000  0.000  0.000
    8  0.000  0.000  0.000  0.000
    9  0.000  0.000  0.000  0.000
   10  0.000  0.000  0.000  0.000
   11  0.000  0.000  0.000  0.000
   12  0.000  0.000  0.000  0.000
   13  0.000  0.000  0.000  0.000
   14  0.000  0.000  0.000  0.000
   15  0.000  0.000  0.000  0.000
   16  0.000  0.000  0.000  0.000
   17  0.000  0.000  0.000  0.000
   18  0.000  0.000  0.000  0.000
   19  0.000  0.000  0.000  0.000
   20  0.000  0.000  0.000  0.000
   21  0.000  0.000  0.000  0.000
   22  0.000  0.000  0.000  0.000
   23  0.000  0.000  0.000  0.000
   24  0.000  0.000  0.000  0.000
   25  0.000  0.000  0.000  0.000
   26  0.000  0.000  0.000  0.000
   27  0.000  0.000  0.000  0.000
   28  0.000  0.000  0.000  0.000
   29  0.001  0.000  0.000  0.002
   30  0.000  0.000  0.000  0.000
   31  0.001  0.000  0.000  0.002
   32  0.001  0.000  0.000  0.002
   33  0.000  0.000  0.000  0.000
   34  0.001  0.000  0.000  0.002
   35  0.000  0.000  0.000  0.000
   36  0.000  0.003  0.011  0.013
   37  0.000  0.111  0.000  0.111
   38  0.000  0.532  0.000  0.532
   39  0.000  0.008  0.000  0.008
tot    0.003  0.655  0.013  0.672
 
band     7 # energy   -7.15507823 # occ.  2.00000000
 
ion      s      p      d    tot
    1  0.000  0.000  0.000  0.000
    2  0.000  0.000  0.000  0.000
    3  0.000  0.000  0.000  0.000
    4  0.000  0.000  0.000  0.000
    5  0.000  0.000  0.000  0.000
    6  0.000  0.000  0.000  0.000
    7  0.000  0.000  0.000  0.000
    8  0.000  0.000  0.000  0.000
    9  0.000  0.000  0.000  0.000
   10  0.000  0.000  0.000  0.000
   11  0.000  0.000  0.000  0.000
   12  0.000  0.000  0.000  0.000
   13  0.000  0.000  0.000  0.000
   14  0.000  0.000  0.000  0.000
   15  0.000  0.000  0.000  0.000
   16  0.000  0.000  0.000  0.000
   17  0.000  0.000  0.000  0.000
   18  0.000  0.000  0.000  0.000
   19  0.000  0.000  0.000  0.000
   20  0.000  0.000  0.000  0.000
   21  0.000  0.000  0.000  0.000
   22  0.000  0.000  0.000  0.000
   23  0.000  0.000  0.000  0.000
   24  0.000  0.000  0.000  0.000
   25  0.000  0.000  0.000  0.000
   26  0.000  0.000  0.000  0.000
   27  0.000  0.000  0.000  0.000
   28  0.000  0.000  0.000  0.000
   29  0.000  0.000  0.000  0.001
   30  0.001  0.000  0.001  0.002
   31  0.000  0.000  0.000  0.001
   32  0.000  0.000  0.000  0.001
   33  0.001  0.000  0.001  0.002
   34  0.000  0.000  0.000  0.001
   35  0.000  0.000  0.000  0.000
   36  0.000  0.003  0.011  0.013
   37  0.000  0.111  0.000  0.111
   38  0.000  0.532  0.000  0.532
   39  0.000  0.008  0.000  0.008
tot    0.003  0.655  0.013  0.672
 
band     8 # energy   -5.97466943 # occ.  2.00000000
 
ion      s      p      d    tot
    1  0.014  0.000  0.004  0.018
    2  0.010  0.001  0.005  0.016
    3  0.010  0.001  0.005  0.016
    4  0.010  0.001  0.005  0.016
    5  0.000  0.001  0.006  0.008
    6  0.010  0.001  0.005  0.016
    7  0.010  0.001  0.005  0.016
    8  0.010  0.001  0.005  0.016
    9  0.027  0.000  0.002  0.029
   10  0.002  0.003  0.005  0.010
   11  0.023  0.007  0.001  0.030
   12  0.002  0.003  0.005  0.010
   13  0.023  0.007  0.001  0.030
   14  0.023  0.007  0.001  0.030
   15  0.002  0.002  0.007  0.010
   16  0.002  0.003  0.005  0.010
   17  0.002  0.002  0.007  0.010
   18  0.002  0.002  0.007  0.010
   19  0.000  0.002  0.007  0.009
   20  0.027  0.006  0.002  0.035
   21  0.027  0.006  0.002  0.036
   22  0.000  0.005  0.004  0.009
   23  0.027  0.006  0.002  0.036
   24  0.000  0.005  0.004  0.009
   25  0.000  0.002  0.007  0.009
   26  0.000  0.002  0.007  0.009
   27  0.000  0.005  0.004  0.009
   28  0.021  0.000  0.002  0.023
   29  0.011  0.001  0.006  0.017
   30  0.011  0.001  0.006  0.017
   31  0.011  0.001  0.006  0.017
   32  0.011  0.001  0.006  0.017
   33  0.011  0.001  0.006  0.017
   34  0.011  0.001  0.006  0.017
   35  0.026  0.000  0.003  0.030
   36  0.000  0.001  0.011  0.012
   37  0.000  0.000  0.000  0.001
   38  0.000  0.000  0.000  0.000
   39  0.000  0.000  0.000  0.000
tot    0.371  0.085  0.173  0.629
 
band     9 # energy   -5.93501456 # occ.  2.00000000
 
ion      s      p      d    tot
    1  0.000  0.002  0.006  0.008
    2  0.010  0.002  0.002  0.015
    3  0.000  0.001  0.002  0.003
    4  0.009  0.002  0.002  0.013
    5  0.000  0.003  0.004  0.007
    6  0.003  0.001  0.002  0.007
    7  0.002  0.001  0.002  0.005
    8  0.006  0.002  0.002  0.010
    9  0.000  0.000  0.002  0.002
   10  0.055  0.005  0.003  0.063
   11  0.013  0.008  0.005  0.027
   12  0.008  0.001  0.015  0.024
   13  0.005  0.011  0.004  0.020
   14  0.035  0.001  0.007  0.043
   15  0.001  0.005  0.006  0.012
   16  0.021  0.002  0.012  0.035
   17  0.000  0.006  0.007  0.014
   18  0.002  0.002  0.004  0.008
   19  0.007  0.009  0.004  0.019
   20  0.064  0.004  0.005  0.073
   21  0.009  0.003  0.014  0.027
   22  0.002  0.004  0.010  0.016
   23  0.024  0.004  0.012  0.040
   24  0.012  0.003  0.003  0.018
   25  0.019  0.000  0.007  0.026
   26  0.003  0.012  0.003  0.017
   27  0.005  0.004  0.008  0.017
   28  0.000  0.002  0.003  0.005
   29  0.010  0.003  0.003  0.015
   30  0.001  0.001  0.002  0.004
   31  0.010  0.003  0.003  0.015
   32  0.002  0.001  0.002  0.005
   33  0.003  0.001  0.002  0.007
   34  0.004  0.002  0.002  0.008
   35  0.000  0.000  0.003  0.003
   36  0.000  0.003  0.005  0.008
   37  0.000  0.000  0.000  0.000
   38  0.000  0.000  0.000  0.000
   39  0.000  0.000  0.000  0.000
tot    0.346  0.115  0.179  0.641
 
band    10 # energy   -5.93500958 # occ.  2.00000000
 
ion      s      p      d    tot
    1  0.000  0.002  0.006  0.008
    2  0.000  0.001  0.002  0.003
    3  0.010  0.002  0.003  0.015
    4  0.001  0.001  0.002  0.004
    5  0.000  0.003  0.004  0.007
    6  0.007  0.002  0.002  0.011
    7  0.008  0.002  0.002  0.013
    8  0.004  0.001  0.002  0.008
    9  0.000  0.000  0.002  0.002
   10  0.001  0.001  0.016  0.018
   11  0.022  0.005  0.006  0.033
   12  0.048  0.004  0.005  0.057
   13  0.030  0.002  0.006  0.039
   14  0.001  0.012  0.004  0.017
   15  0.001  0.004  0.005  0.011
   16  0.035  0.003  0.008  0.046
   17  0.002  0.003  0.004  0.009
   18  0.000  0.007  0.007  0.014
   19  0.012  0.005  0.005  0.022
   20  0.001  0.003  0.016  0.020
   21  0.056  0.004  0.006  0.066
   22  0.011  0.003  0.004  0.018
   23  0.041  0.004  0.009  0.053
   24  0.000  0.004  0.011  0.015
   25  0.000  0.013  0.002  0.016
   26  0.016  0.002  0.006  0.024
   27  0.008  0.004  0.006  0.017
   28  0.000  0.002  0.003  0.005
   29  0.000  0.001  0.002  0.003
   30  0.009  0.002  0.003  0.014
   31  0.000  0.001  0.002  0.003
   32  0.008  0.002  0.003  0.013
   33  0.007  0.002  0.003  0.011
   34  0.006  0.002  0.003  0.010
   35  0.000  0.000  0.003  0.003
   36  0.000  0.003  0.005  0.008
   37  0.000  0.000  0.000  0.000
   38  0.000  0.000  0.000  0.000
   39  0.000  0.000  0.000  0.000
tot    0.346  0.115  0.179  0.641
 
band    11 # energy   -5.91894417 # occ.  2.00000000
 
ion      s      p      d    tot
    1  0.021  0.003  0.001  0.025
    2  0.000  0.002  0.004  0.006
    3  0.000  0.002  0.004  0.006
    4  0.000  0.002  0.004  0.006
    5  0.001  0.000  0.000  0.002
    6  0.000  0.002  0.004  0.006
    7  0.000  0.002  0.004  0.006
    8  0.000  0.002  0.004  0.006
    9  0.010  0.002  0.000  0.012
   10  0.031  0.006  0.006  0.042
   11  0.005  0.000  0.012  0.017
   12  0.030  0.006  0.006  0.042
   13  0.005  0.000  0.012  0.017
   14  0.005  0.000  0.012  0.017
   15  0.012  0.008  0.003  0.024
   16  0.030  0.006  0.006  0.042
   17  0.012  0.008  0.003  0.024
   18  0.013  0.008  0.003  0.024
   19  0.022  0.009  0.002  0.033
   20  0.000  0.002  0.010  0.013
   21  0.000  0.002  0.010  0.013
   22  0.024  0.002  0.009  0.036
   23  0.000  0.002  0.010  0.013
   24  0.024  0.002  0.009  0.036
   25  0.022  0.009  0.002  0.033
   26  0.022  0.009  0.002  0.033
   27  0.024  0.002  0.009  0.036
   28  0.018  0.003  0.001  0.021
   29  0.000  0.002  0.004  0.006
   30  0.000  0.002  0.004  0.006
   31  0.000  0.002  0.004  0.006
   32  0.000  0.002  0.004  0.006
   33  0.000  0.002  0.004  0.006
   34  0.000  0.002  0.004  0.006
   35  0.012  0.002  0.001  0.016
   36  0.000  0.000  0.000  0.000
   37  0.000  0.000  0.000  0.000
   38  0.000  0.000  0.000  0.000
   39  0.000  0.000  0.000  0.000
tot    0.345  0.115  0.179  0.639
 
band    12 # energy   -5.90853780 # occ.  2.00000000
 
ion      s      p      d    tot
    1  0.000  0.001  0.003  0.004
    2  0.010  0.003  0.003  0.015
    3  0.001  0.001  0.002  0.004
    4  0.010  0.002  0.003  0.015
    5  0.000  0.001  0.004  0.005
    6  0.004  0.002  0.003  0.009
    7  0.001  0.001  0.002  0.004
    8  0.005  0.002  0.003  0.010
    9  0.000  0.004  0.006  0.009
   10  0.000  0.013  0.002  0.015
   11  0.019  0.003  0.006  0.029
   12  0.005  0.003  0.005  0.014
   13  0.021  0.004  0.005  0.030
   14  0.000  0.001  0.015  0.016
   15  0.044  0.004  0.007  0.055
   16  0.005  0.004  0.005  0.014
   17  0.048  0.004  0.007  0.058
   18  0.000  0.006  0.012  0.018
   19  0.031  0.003  0.006  0.040
   20  0.000  0.011  0.004  0.015
   21  0.000  0.003  0.005  0.008
   22  0.039  0.003  0.006  0.049
   23  0.000  0.004  0.005  0.009
   24  0.000  0.010  0.007  0.017
   25  0.000  0.000  0.017  0.017
   26  0.034  0.004  0.005  0.043
   27  0.036  0.004  0.006  0.046
   28  0.000  0.001  0.005  0.006
   29  0.010  0.002  0.002  0.015
   30  0.002  0.001  0.002  0.005
   31  0.010  0.002  0.002  0.015
   32  0.002  0.001  0.002  0.006
   33  0.002  0.001  0.002  0.006
   34  0.003  0.001  0.002  0.006
   35  0.000  0.003  0.005  0.008
   36  0.000  0.000  0.002  0.002
   37  0.000  0.000  0.000  0.000
   38  0.000  0.000  0.000  0.000
   39  0.000  0.000  0.000  0.000
tot    0.344  0.116  0.178  0.638
 
band    13 # energy   -5.90853531 # occ.  2.00000000
 
ion      s      p      d    tot
    1  0.000  0.001  0.003  0.004
    2  0.000  0.001  0.002  0.004
    3  0.010  0.003  0.003  0.015
    4  0.001  0.001  0.002  0.004
    5  0.000  0.001  0.004  0.005
    6  0.006  0.002  0.002  0.010
    7  0.009  0.002  0.003  0.015
    8  0.005  0.002  0.002  0.009
    9  0.000  0.004  0.006  0.009
   10  0.007  0.000  0.006  0.014
   11  0.008  0.002  0.011  0.021
   12  0.002  0.010  0.003  0.015
   13  0.006  0.002  0.012  0.020
   14  0.027  0.004  0.002  0.034
   15  0.018  0.005  0.010  0.033
   16  0.002  0.010  0.003  0.015
   17  0.013  0.006  0.010  0.029
   18  0.061  0.003  0.005  0.069
   19  0.012  0.001  0.013  0.026
   20  0.000  0.001  0.005  0.007
   21  0.000  0.009  0.004  0.013
   22  0.011  0.008  0.007  0.026
   23  0.000  0.008  0.004  0.012
   24  0.050  0.002  0.006  0.058
   25  0.043  0.005  0.002  0.050
   26  0.009  0.001  0.014  0.024
   27  0.014  0.007  0.007  0.029
   28  0.000  0.001  0.005  0.006
   29  0.000  0.001  0.002  0.003
   30  0.008  0.002  0.002  0.012
   31  0.000  0.001  0.002  0.003
   32  0.007  0.002  0.003  0.012
   33  0.007  0.002  0.002  0.011
   34  0.007  0.002  0.003  0.011
   35  0.000  0.003  0.005  0.008
   36  0.000  0.000  0.002  0.002
   37  0.000  0.000  0.000  0.000
   38  0.000  0.000  0.000  0.000
   39  0.000  0.000  0.000  0.000
tot    0.344  0.116  0.178  0.638
 
band    14 # energy   -5.78151436 # occ.  2.00000000
 
ion      s      p      d    tot
    1  0.001  0.001  0.003  0.005
    2  0.006  0.002  0.007  0.015
    3  0.006  0.002  0.007  0.015
    4  0.006  0.002  0.007  0.015
    5  0.046  0.002  0.001  0.049
    6  0.006  0.002  0.007  0.015
    7  0.006  0.002  0.007  0.015
    8  0.006  0.002  0.007  0.015
    9  0.000  0.002  0.007  0.009
   10  0.006  0.004  0.008  0.018
   11  0.010  0.007  0.006  0.023
   12  0.006  0.004  0.008  0.018
   13  0.010  0.007  0.006  0.023
   14  0.010  0.007  0.006  0.023
   15  0.028  0.002  0.010  0.040
   16  0.006  0.004  0.008  0.018
   17  0.028  0.002  0.010  0.040
   18  0.028  0.002  0.010  0.040
   19  0.006  0.003  0.005  0.014
   20  0.008  0.002  0.007  0.017
   21  0.008  0.002  0.007  0.017
   22  0.005  0.006  0.004  0.015
   23  0.008  0.002  0.007  0.017
   24  0.005  0.006  0.004  0.015
   25  0.006  0.003  0.005  0.014
   26  0.006  0.003  0.005  0.014
   27  0.005  0.006  0.004  0.015
   28  0.005  0.000  0.004  0.010
   29  0.007  0.000  0.004  0.011
   30  0.007  0.000  0.004  0.011
   31  0.007  0.000  0.004  0.011
   32  0.007  0.000  0.004  0.011
   33  0.007  0.000  0.004  0.011
   34  0.007  0.000  0.004  0.011
   35  0.003  0.000  0.003  0.006
   36  0.002  0.007  0.017  0.025
   37  0.009  0.006  0.000  0.016
   38  0.001  0.001  0.000  0.002
   39  0.000  0.000  0.000  0.000
tot    0.335  0.104  0.219  0.657
 
band    15 # energy   -5.17044982 # occ.  2.00000000
 
ion      s      p      d    tot
    1  0.006  0.000  0.008  0.014
    2  0.004  0.001  0.009  0.014
    3  0.004  0.001  0.009  0.014
    4  0.004  0.001  0.009  0.014
    5  0.000  0.002  0.009  0.010
    6  0.004  0.001  0.009  0.014
    7  0.004  0.001  0.009  0.014
    8  0.004  0.001  0.009  0.014
    9  0.016  0.000  0.006  0.022
   10  0.006  0.000  0.025  0.031
   11  0.011  0.001  0.020  0.032
   12  0.006  0.000  0.025  0.031
   13  0.011  0.001  0.020  0.032
   14  0.011  0.001  0.020  0.032
   15  0.001  0.000  0.020  0.022
   16  0.006  0.000  0.025  0.031
   17  0.001  0.000  0.020  0.022
   18  0.001  0.000  0.020  0.022
   19  0.004  0.000  0.020  0.023
   20  0.012  0.001  0.026  0.039
   21  0.012  0.001  0.026  0.039
   22  0.002  0.000  0.023  0.025
   23  0.012  0.001  0.026  0.039
   24  0.002  0.000  0.023  0.025
   25  0.004  0.000  0.020  0.023
   26  0.004  0.000  0.020  0.023
   27  0.002  0.000  0.023  0.025
   28  0.005  0.000  0.006  0.012
   29  0.004  0.001  0.008  0.013
   30  0.004  0.001  0.008  0.013
   31  0.004  0.001  0.008  0.013
   32  0.004  0.001  0.008  0.013
   33  0.004  0.001  0.008  0.013
   34  0.004  0.001  0.008  0.013
   35  0.015  0.000  0.006  0.021
   36  0.000  0.002  0.008  0.010
   37  0.000  0.000  0.000  0.000
   38  0.000  0.000  0.000  0.000
   39  0.000  0.000  0.000  0.000
tot    0.202  0.021  0.547  0.770
 
band    16 # energy   -5.15146523 # occ.  2.00000000
 
ion      s      p      d    tot
    1  0.036  0.003  0.000  0.039
    2  0.000  0.003  0.011  0.014
    3  0.000  0.004  0.010  0.014
    4  0.000  0.003  0.011  0.014
    5  0.000  0.000  0.001  0.001
    6  0.001  0.003  0.010  0.014
    7  0.000  0.004  0.010  0.014
    8  0.001  0.003  0.010  0.014
    9  0.027  0.003  0.001  0.032
   10  0.005  0.003  0.012  0.021
   11  0.002  0.000  0.015  0.017
   12  0.009  0.004  0.010  0.023
   13  0.002  0.000  0.015  0.017
   14  0.000  0.000  0.015  0.016
   15  0.006  0.003  0.017  0.027
   16  0.009  0.004  0.010  0.023
   17  0.006  0.003  0.017  0.027
   18  0.007  0.003  0.020  0.031
   19  0.005  0.004  0.016  0.024
   20  0.000  0.000  0.017  0.017
   21  0.000  0.000  0.016  0.016
   22  0.013  0.003  0.010  0.027
   23  0.000  0.000  0.016  0.016
   24  0.009  0.003  0.011  0.024
   25  0.005  0.004  0.018  0.028
   26  0.005  0.004  0.016  0.025
   27  0.014  0.003  0.010  0.027
   28  0.037  0.003  0.000  0.040
   29  0.000  0.003  0.010  0.013
   30  0.000  0.003  0.010  0.013
   31  0.000  0.003  0.010  0.012
   32  0.001  0.003  0.010  0.013
   33  0.000  0.003  0.010  0.013
   34  0.001  0.003  0.010  0.013
   35  0.024  0.003  0.002  0.029
   36  0.000  0.000  0.000  0.000
   37  0.000  0.000  0.000  0.000
   38  0.000  0.000  0.000  0.000
   39  0.000  0.000  0.000  0.000
tot    0.227  0.091  0.388  0.706
 
band    17 # energy   -5.15126880 # occ.  2.00000000
 
ion      s      p      d    tot
    1  0.001  0.002  0.010  0.012
    2  0.018  0.004  0.005  0.027
    3  0.000  0.001  0.006  0.007
    4  0.016  0.003  0.005  0.024
    5  0.000  0.006  0.009  0.015
    6  0.013  0.003  0.006  0.022
    7  0.000  0.001  0.006  0.007
    8  0.016  0.004  0.006  0.026
    9  0.000  0.001  0.013  0.014
   10  0.014  0.004  0.008  0.026
   11  0.006  0.002  0.020  0.028
   12  0.001  0.001  0.015  0.018
   13  0.003  0.002  0.023  0.028
   14  0.021  0.005  0.005  0.030
   15  0.001  0.003  0.017  0.021
   16  0.003  0.002  0.015  0.019
   17  0.001  0.003  0.019  0.023
   18  0.001  0.000  0.006  0.007
   19  0.001  0.003  0.017  0.020
   20  0.020  0.005  0.005  0.029
   21  0.004  0.002  0.027  0.033
   22  0.001  0.001  0.015  0.017
   23  0.006  0.002  0.024  0.032
   24  0.014  0.004  0.009  0.027
   25  0.001  0.000  0.006  0.007
   26  0.001  0.003  0.018  0.022
   27  0.002  0.002  0.014  0.018
   28  0.001  0.001  0.012  0.014
   29  0.016  0.003  0.006  0.025
   30  0.000  0.001  0.005  0.007
   31  0.013  0.003  0.006  0.022
   32  0.015  0.003  0.005  0.023
   33  0.000  0.001  0.005  0.006
   34  0.017  0.004  0.006  0.026
   35  0.000  0.002  0.009  0.011
   36  0.000  0.006  0.005  0.011
   37  0.000  0.000  0.000  0.000
   38  0.000  0.001  0.000  0.001
   39  0.000  0.000  0.000  0.000
tot    0.226  0.094  0.386  0.706
 
band    18 # energy   -5.15125968 # occ.  2.00000000
 
ion      s      p      d    tot
    1  0.000  0.002  0.010  0.012
    2  0.003  0.002  0.005  0.011
    3  0.022  0.004  0.006  0.031
    4  0.006  0.002  0.005  0.014
    5  0.000  0.006  0.009  0.015
    6  0.008  0.002  0.005  0.015
    7  0.021  0.004  0.006  0.031
    8  0.005  0.002  0.005  0.012
    9  0.000  0.001  0.013  0.014
   10  0.000  0.001  0.016  0.017
   11  0.014  0.004  0.012  0.029
   12  0.010  0.003  0.011  0.024
   13  0.016  0.004  0.009  0.029
   14  0.000  0.001  0.027  0.029
   15  0.001  0.001  0.012  0.014
   16  0.008  0.003  0.011  0.023
   17  0.001  0.001  0.010  0.012
   18  0.000  0.004  0.020  0.024
   19  0.001  0.001  0.012  0.013
   20  0.000  0.001  0.032  0.034
   21  0.016  0.004  0.010  0.030
   22  0.009  0.003  0.011  0.023
   23  0.014  0.004  0.014  0.031
   24  0.000  0.001  0.015  0.016
   25  0.000  0.004  0.020  0.023
   26  0.001  0.001  0.010  0.012
   27  0.008  0.003  0.011  0.022
   28  0.000  0.001  0.012  0.013
   29  0.005  0.002  0.005  0.012
   30  0.020  0.004  0.006  0.030
   31  0.008  0.002  0.005  0.015
   32  0.006  0.002  0.005  0.013
   33  0.021  0.004  0.006  0.030
   34  0.003  0.002  0.005  0.010
   35  0.000  0.002  0.009  0.011
   36  0.000  0.006  0.005  0.011
   37  0.000  0.000  0.000  0.000
   38  0.000  0.001  0.000  0.001
   39  0.000  0.000  0.000  0.000
tot    0.226  0.094  0.386  0.706
 
band    19 # energy   -5.13925361 # occ.  2.00000000
 
ion      s      p      d    tot
    1  0.000  0.005  0.011  0.016
    2  0.005  0.002  0.005  0.013
    3  0.021  0.004  0.006  0.031
    4  0.004  0.002  0.005  0.012
    5  0.000  0.000  0.012  0.012
    6  0.006  0.002  0.005  0.013
    7  0.022  0.004  0.006  0.031
    8  0.006  0.002  0.005  0.014
    9  0.000  0.005  0.008  0.013
   10  0.010  0.002  0.005  0.017
   11  0.000  0.002  0.013  0.016
   12  0.003  0.003  0.022  0.028
   13  0.000  0.002  0.013  0.016
   14  0.002  0.001  0.010  0.013
   15  0.005  0.001  0.018  0.024
   16  0.002  0.003  0.023  0.028
   17  0.005  0.002  0.018  0.025
   18  0.019  0.006  0.007  0.033
   19  0.005  0.001  0.019  0.025
   20  0.002  0.001  0.011  0.014
   21  0.001  0.002  0.015  0.018
   22  0.003  0.003  0.020  0.026
   23  0.000  0.002  0.015  0.018
   24  0.011  0.002  0.005  0.018
   25  0.022  0.005  0.006  0.033
   26  0.006  0.001  0.018  0.026
   27  0.003  0.003  0.020  0.026
   28  0.000  0.005  0.008  0.013
   29  0.006  0.002  0.005  0.014
   30  0.021  0.004  0.005  0.029
   31  0.005  0.002  0.005  0.013
   32  0.004  0.002  0.006  0.012
   33  0.021  0.004  0.005  0.029
   34  0.005  0.002  0.006  0.013
   35  0.000  0.004  0.010  0.015
   36  0.000  0.000  0.007  0.007
   37  0.000  0.000  0.000  0.000
   38  0.000  0.000  0.000  0.000
   39  0.000  0.000  0.000  0.000
tot    0.226  0.093  0.382  0.701
 
band    20 # energy   -5.13924196 # occ.  2.00000000
 
ion      s      p      d    tot
    1  0.000  0.005  0.011  0.016
    2  0.017  0.003  0.005  0.025
    3  0.000  0.002  0.005  0.007
    4  0.017  0.003  0.005  0.026
    5  0.000  0.000  0.012  0.012
    6  0.016  0.003  0.006  0.025
    7  0.000  0.002  0.005  0.007
    8  0.015  0.003  0.006  0.024
    9  0.000  0.005  0.008  0.013
   10  0.000  0.003  0.029  0.032
   11  0.001  0.001  0.011  0.014
   12  0.007  0.002  0.011  0.021
   13  0.001  0.001  0.011  0.014
   14  0.000  0.002  0.015  0.017
   15  0.015  0.004  0.011  0.030
   16  0.008  0.002  0.011  0.020
   17  0.014  0.004  0.011  0.030
   18  0.000  0.000  0.022  0.022
   19  0.017  0.004  0.010  0.031
   20  0.000  0.003  0.016  0.019
   21  0.001  0.002  0.012  0.015
   22  0.008  0.002  0.011  0.021
   23  0.002  0.002  0.012  0.015
   24  0.000  0.003  0.025  0.028
   25  0.000  0.000  0.023  0.023
   26  0.016  0.004  0.011  0.031
   27  0.008  0.002  0.010  0.021
   28  0.000  0.005  0.008  0.013
   29  0.015  0.003  0.005  0.023
   30  0.000  0.002  0.006  0.007
   31  0.015  0.003  0.005  0.024
   32  0.016  0.003  0.005  0.025
   33  0.000  0.002  0.006  0.007
   34  0.016  0.003  0.005  0.024
   35  0.000  0.004  0.010  0.015
   36  0.000  0.000  0.007  0.007
   37  0.000  0.000  0.000  0.000
   38  0.000  0.000  0.000  0.000
   39  0.000  0.000  0.000  0.000