PROCAR new format
# of k-points:   10         # of bands:  252         # of ions:   37

 k-point     1 :    0.00000000 0.00000000 0.00000000     weight = 0.01562500

band     1 # energy   -8.76708910 # occ.  2.00000000
 
ion      s      p      d    tot
    1  0.007  0.001  0.000  0.008
    2  0.007  0.001  0.000  0.008
    3  0.007  0.001  0.000  0.008
    4  0.007  0.001  0.000  0.008
    5  0.007  0.001  0.000  0.008
    6  0.007  0.001  0.000  0.008
    7  0.007  0.001  0.000  0.008
    8  0.007  0.001  0.000  0.008
    9  0.007  0.001  0.000  0.008
   10  0.025  0.000  0.000  0.025
   11  0.025  0.000  0.000  0.025
   12  0.025  0.000  0.000  0.025
   13  0.025  0.000  0.000  0.025
   14  0.025  0.000  0.000  0.025
   15  0.025  0.000  0.000  0.025
   16  0.025  0.000  0.000  0.025
   17  0.025  0.000  0.000  0.025
   18  0.025  0.000  0.000  0.025
   19  0.024  0.000  0.000  0.025
   20  0.025  0.000  0.000  0.025
   21  0.025  0.000  0.000  0.025
   22  0.024  0.000  0.000  0.025
   23  0.025  0.000  0.000  0.025
   24  0.024  0.000  0.000  0.025
   25  0.024  0.000  0.000  0.025
   26  0.024  0.000  0.000  0.025
   27  0.024  0.000  0.000  0.025
   28  0.007  0.001  0.000  0.007
   29  0.006  0.001  0.000  0.007
   30  0.006  0.001  0.000  0.007
   31  0.006  0.001  0.000  0.007
   32  0.006  0.001  0.000  0.007
   33  0.006  0.001  0.000  0.007
   34  0.006  0.001  0.000  0.007
   35  0.006  0.001  0.000  0.007
   36  0.008  0.001  0.000  0.008
   37  0.000  0.000  0.000  0.000
tot    0.565  0.016  0.001  0.582
 
band     2 # energy   -7.45631407 # occ.  2.00000000
 
ion      s      p      d    tot
    1  0.018  0.001  0.001  0.020
    2  0.018  0.001  0.001  0.020
    3  0.018  0.001  0.001  0.020
    4  0.018  0.001  0.001  0.020
    5  0.018  0.001  0.001  0.019
    6  0.018  0.001  0.001  0.020
    7  0.018  0.001  0.001  0.020
    8  0.018  0.001  0.001  0.020
    9  0.018  0.001  0.001  0.020
   10  0.010  0.002  0.001  0.013
   11  0.010  0.002  0.001  0.012
   12  0.010  0.002  0.001  0.013
   13  0.010  0.002  0.001  0.012
   14  0.010  0.002  0.001  0.012
   15  0.010  0.002  0.001  0.012
   16  0.010  0.002  0.001  0.013
   17  0.010  0.002  0.001  0.012
   18  0.010  0.002  0.001  0.012
   19  0.011  0.002  0.001  0.014
   20  0.011  0.002  0.001  0.013
   21  0.011  0.002  0.001  0.013
   22  0.011  0.002  0.001  0.014
   23  0.011  0.002  0.001  0.013
   24  0.011  0.002  0.001  0.014
   25  0.011  0.002  0.001  0.014
   26  0.011  0.002  0.001  0.014
   27  0.011  0.002  0.001  0.014
   28  0.018  0.001  0.000  0.019
   29  0.017  0.001  0.000  0.019
   30  0.017  0.001  0.000  0.019
   31  0.017  0.001  0.000  0.019
   32  0.017  0.001  0.000  0.019
   33  0.017  0.001  0.000  0.019
   34  0.017  0.001  0.000  0.019
   35  0.018  0.001  0.000  0.019
   36  0.020  0.000  0.000  0.020
   37  0.002  0.000  0.000  0.002
tot    0.509  0.054  0.018  0.581
 
band     3 # energy   -5.80074181 # occ.  2.00000000
 
ion      s      p      d    tot
    1  0.021  0.000  0.007  0.027
    2  0.017  0.000  0.007  0.024
    3  0.017  0.000  0.007  0.024
    4  0.017  0.000  0.007  0.024
    5  0.010  0.000  0.008  0.018
    6  0.017  0.000  0.007  0.024
    7  0.017  0.000  0.007  0.024
    8  0.017  0.000  0.007  0.024
    9  0.021  0.000  0.006  0.027
   10  0.003  0.003  0.003  0.010
   11  0.011  0.004  0.002  0.017
   12  0.003  0.003  0.003  0.010
   13  0.011  0.004  0.002  0.017
   14  0.011  0.004  0.002  0.017
   15  0.002  0.003  0.004  0.009
   16  0.003  0.003  0.003  0.010
   17  0.002  0.003  0.004  0.009
   18  0.002  0.003  0.004  0.009
   19  0.001  0.003  0.003  0.007
   20  0.009  0.004  0.002  0.015
   21  0.009  0.004  0.002  0.015
   22  0.002  0.004  0.003  0.009
   23  0.009  0.004  0.002  0.015
   24  0.002  0.004  0.003  0.009
   25  0.001  0.003  0.003  0.007
   26  0.001  0.003  0.003  0.007
   27  0.002  0.004  0.003  0.009
   28  0.022  0.000  0.005  0.027
   29  0.016  0.000  0.006  0.023
   30  0.016  0.000  0.006  0.023
   31  0.016  0.000  0.006  0.023
   32  0.016  0.000  0.006  0.022
   33  0.016  0.000  0.006  0.023
   34  0.016  0.000  0.006  0.022
   35  0.019  0.000  0.006  0.025
   36  0.011  0.002  0.002  0.015
   37  0.003  0.000  0.000  0.003
tot    0.388  0.068  0.163  0.619
 
band     4 # energy   -5.76705883 # occ.  2.00000000
 
ion      s      p      d    tot
    1  0.000  0.002  0.005  0.008
    2  0.010  0.002  0.002  0.015
    3  0.000  0.001  0.002  0.003
    4  0.010  0.002  0.002  0.014
    5  0.000  0.003  0.004  0.007
    6  0.005  0.002  0.002  0.009
    7  0.001  0.001  0.002  0.004
    8  0.005  0.002  0.002  0.010
    9  0.000  0.000  0.002  0.003
   10  0.055  0.005  0.003  0.063
   11  0.012  0.009  0.006  0.026
   12  0.012  0.001  0.014  0.027
   13  0.010  0.009  0.005  0.025
   14  0.039  0.001  0.006  0.046
   15  0.000  0.007  0.006  0.012
   16  0.014  0.002  0.013  0.029
   17  0.000  0.007  0.006  0.013
   18  0.001  0.002  0.004  0.008
   19  0.004  0.010  0.003  0.017
   20  0.067  0.004  0.004  0.075
   21  0.013  0.004  0.012  0.029
   22  0.003  0.003  0.010  0.017
   23  0.016  0.004  0.012  0.031
   24  0.018  0.003  0.003  0.023
   25  0.016  0.000  0.006  0.022
   26  0.003  0.011  0.003  0.017
   27  0.003  0.003  0.010  0.017
   28  0.000  0.002  0.003  0.005
   29  0.010  0.003  0.003  0.015
   30  0.001  0.001  0.002  0.004
   31  0.010  0.003  0.003  0.015
   32  0.003  0.001  0.002  0.007
   33  0.002  0.001  0.002  0.005
   34  0.004  0.001  0.002  0.007
   35  0.000  0.000  0.003  0.003
   36  0.000  0.004  0.004  0.008
   37  0.000  0.000  0.000  0.000
tot    0.347  0.117  0.178  0.642
 
band     5 # energy   -5.76701694 # occ.  2.00000000
 
ion      s      p      d    tot
    1  0.000  0.002  0.005  0.008
    2  0.001  0.001  0.002  0.004
    3  0.010  0.002  0.003  0.015
    4  0.001  0.001  0.002  0.004
    5  0.000  0.003  0.004  0.007
    6  0.005  0.002  0.002  0.009
    7  0.010  0.002  0.003  0.015
    8  0.005  0.002  0.002  0.008
    9  0.000  0.000  0.002  0.003
   10  0.000  0.000  0.017  0.018
   11  0.030  0.004  0.006  0.040
   12  0.041  0.004  0.006  0.051
   13  0.031  0.004  0.006  0.041
   14  0.000  0.012  0.005  0.017
   15  0.001  0.004  0.005  0.009
   16  0.039  0.004  0.007  0.050
   17  0.001  0.003  0.005  0.009
   18  0.000  0.008  0.006  0.015
   19  0.011  0.004  0.005  0.020
   20  0.000  0.004  0.014  0.018
   21  0.049  0.004  0.007  0.060
   22  0.012  0.004  0.005  0.021
   23  0.047  0.004  0.007  0.058
   24  0.000  0.003  0.013  0.016
   25  0.000  0.014  0.002  0.015
   26  0.012  0.003  0.005  0.021
   27  0.012  0.003  0.005  0.021
   28  0.000  0.002  0.003  0.005
   29  0.000  0.001  0.002  0.003
   30  0.009  0.002  0.002  0.013
   31  0.000  0.001  0.002  0.003
   32  0.007  0.002  0.003  0.011
   33  0.008  0.002  0.002  0.013
   34  0.006  0.002  0.003  0.011
   35  0.000  0.000  0.003  0.003
   36  0.000  0.004  0.004  0.008
   37  0.000  0.000  0.000  0.000
tot    0.347  0.117  0.178  0.642
 
band     6 # energy   -5.76680306 # occ.  2.00000000
 
ion      s      p      d    tot
    1  0.004  0.000  0.000  0.005
    2  0.000  0.002  0.004  0.006
    3  0.000  0.002  0.004  0.006
    4  0.000  0.002  0.004  0.006
    5  0.012  0.001  0.000  0.013
    6  0.000  0.002  0.004  0.006
    7  0.000  0.002  0.004  0.006
    8  0.000  0.002  0.004  0.006
    9  0.015  0.003  0.002  0.020
   10  0.003  0.000  0.012  0.016
   11  0.007  0.008  0.004  0.019
   12  0.005  0.000  0.012  0.018
   13  0.007  0.008  0.004  0.019
   14  0.010  0.007  0.004  0.021
   15  0.034  0.006  0.005  0.045
   16  0.005  0.000  0.012  0.018
   17  0.034  0.006  0.005  0.045
   18  0.034  0.007  0.004  0.045
   19  0.000  0.003  0.008  0.011
   20  0.016  0.002  0.011  0.029
   21  0.021  0.002  0.011  0.033
   22  0.028  0.009  0.002  0.039
   23  0.021  0.002  0.011  0.033
   24  0.025  0.010  0.002  0.037
   25  0.000  0.003  0.009  0.012
   26  0.000  0.003  0.008  0.011
   27  0.028  0.009  0.002  0.039
   28  0.002  0.000  0.000  0.002
   29  0.000  0.002  0.004  0.005
   30  0.000  0.002  0.004  0.006
   31  0.000  0.002  0.004  0.005
   32  0.000  0.002  0.004  0.006
   33  0.000  0.002  0.004  0.006
   34  0.000  0.002  0.004  0.006
   35  0.013  0.003  0.001  0.018
   36  0.020  0.001  0.002  0.023
   37  0.003  0.000  0.000  0.003
tot    0.353  0.113  0.178  0.645
 
band     7 # energy   -5.75912135 # occ.  2.00000000
 
ion      s      p      d    tot
    1  0.014  0.003  0.002  0.018
    2  0.000  0.002  0.004  0.006
    3  0.000  0.002  0.004  0.006
    4  0.000  0.002  0.004  0.006
    5  0.016  0.002  0.000  0.018
    6  0.000  0.002  0.004  0.006
    7  0.000  0.002  0.004  0.006
    8  0.000  0.002  0.004  0.006
    9  0.002  0.000  0.000  0.003
   10  0.030  0.009  0.001  0.040
   11  0.018  0.001  0.011  0.030
   12  0.029  0.009  0.001  0.040
   13  0.018  0.001  0.011  0.030
   14  0.018  0.001  0.011  0.030
   15  0.000  0.003  0.009  0.012
   16  0.029  0.009  0.001  0.040
   17  0.000  0.003  0.009  0.012
   18  0.000  0.003  0.009  0.012
   19  0.034  0.007  0.004  0.044
   20  0.007  0.007  0.004  0.018
   21  0.007  0.007  0.004  0.019
   22  0.005  0.000  0.012  0.017
   23  0.007  0.007  0.004  0.019
   24  0.005  0.000  0.012  0.017
   25  0.033  0.007  0.004  0.044
   26  0.034  0.007  0.004  0.044
   27  0.005  0.000  0.012  0.017
   28  0.014  0.003  0.002  0.020
   29  0.000  0.002  0.004  0.006
   30  0.000  0.002  0.004  0.006
   31  0.000  0.002  0.004  0.006
   32  0.000  0.002  0.004  0.006
   33  0.000  0.002  0.004  0.006
   34  0.000  0.002  0.004  0.006
   35  0.005  0.000  0.000  0.006
   36  0.014  0.000  0.001  0.015
   37  0.002  0.000  0.000  0.002
tot    0.351  0.114  0.176  0.641
 
band     8 # energy   -5.75454775 # occ.  2.00000000
 
ion      s      p      d    tot
    1  0.000  0.001  0.003  0.004
    2  0.010  0.002  0.002  0.015
    3  0.001  0.001  0.002  0.004
    4  0.010  0.002  0.002  0.015
    5  0.000  0.000  0.004  0.004
    6  0.005  0.002  0.003  0.010
    7  0.001  0.001  0.002  0.004
    8  0.006  0.002  0.003  0.010
    9  0.000  0.003  0.006  0.009
   10  0.000  0.014  0.002  0.015
   11  0.017  0.004  0.005  0.026
   12  0.008  0.003  0.005  0.016
   13  0.017  0.004  0.005  0.026
   14  0.000  0.002  0.014  0.016
   15  0.047  0.004  0.007  0.058
   16  0.007  0.004  0.005  0.016
   17  0.048  0.004  0.007  0.058
   18  0.000  0.005  0.013  0.018
   19  0.035  0.004  0.006  0.045
   20  0.000  0.010  0.005  0.015
   21  0.000  0.003  0.005  0.008
   22  0.035  0.004  0.006  0.045
   23  0.000  0.004  0.005  0.008
   24  0.000  0.011  0.006  0.017
   25  0.000  0.000  0.017  0.017
   26  0.036  0.004  0.006  0.045
   27  0.035  0.004  0.006  0.045
   28  0.000  0.002  0.005  0.007
   29  0.009  0.002  0.002  0.014
   30  0.001  0.001  0.002  0.005
   31  0.009  0.002  0.002  0.014
   32  0.003  0.001  0.002  0.007
   33  0.002  0.001  0.002  0.005
   34  0.003  0.001  0.002  0.007
   35  0.000  0.003  0.005  0.008
   36  0.000  0.000  0.001  0.002
   37  0.000  0.000  0.000  0.000
tot    0.345  0.116  0.178  0.639
 
band     9 # energy   -5.75451298 # occ.  2.00000000
 
ion      s      p      d    tot
    1  0.000  0.001  0.003  0.004
    2  0.001  0.001  0.002  0.004
    3  0.010  0.003  0.003  0.015
    4  0.001  0.001  0.002  0.004
    5  0.000  0.000  0.004  0.004
    6  0.005  0.002  0.002  0.009
    7  0.010  0.003  0.003  0.015
    8  0.005  0.002  0.002  0.009
    9  0.000  0.003  0.006  0.009
   10  0.010  0.000  0.007  0.016
   11  0.006  0.002  0.011  0.020
   12  0.002  0.010  0.003  0.016
   13  0.006  0.002  0.011  0.019
   14  0.023  0.004  0.002  0.030
   15  0.016  0.005  0.011  0.032
   16  0.003  0.010  0.003  0.016
   17  0.015  0.005  0.011  0.031
   18  0.063  0.003  0.005  0.071
   19  0.012  0.001  0.013  0.027
   20  0.000  0.001  0.005  0.006
   21  0.000  0.008  0.005  0.013
   22  0.011  0.008  0.006  0.026
   23  0.000  0.008  0.005  0.013
   24  0.047  0.001  0.006  0.055
   25  0.048  0.005  0.002  0.055
   26  0.011  0.001  0.014  0.026
   27  0.012  0.008  0.006  0.027
   28  0.000  0.002  0.005  0.007
   29  0.000  0.001  0.002  0.003
   30  0.008  0.002  0.002  0.012
   31  0.000  0.001  0.002  0.003
   32  0.006  0.002  0.002  0.011
   33  0.008  0.002  0.002  0.012
   34  0.006  0.002  0.002  0.011
   35  0.000  0.003  0.005  0.008
   36  0.000  0.000  0.001  0.002
   37  0.000  0.000  0.000  0.000
tot    0.345  0.116  0.178  0.639
 
band    10 # energy   -4.99640722 # occ.  2.00000000
 
ion      s      p      d    tot
    1  0.019  0.004  0.003  0.025
    2  0.001  0.003  0.010  0.013
    3  0.001  0.003  0.010  0.013
    4  0.001  0.003  0.010  0.013
    5  0.033  0.002  0.000  0.036
    6  0.001  0.003  0.010  0.013
    7  0.001  0.003  0.010  0.013
    8  0.001  0.003  0.010  0.013
    9  0.001  0.000  0.002  0.003
   10  0.010  0.003  0.017  0.030
   11  0.003  0.003  0.011  0.017
   12  0.010  0.003  0.017  0.030
   13  0.003  0.003  0.011  0.017
   14  0.003  0.003  0.011  0.017
   15  0.003  0.000  0.018  0.020
   16  0.010  0.003  0.017  0.030
   17  0.003  0.000  0.018  0.020
   18  0.003  0.000  0.018  0.020
   19  0.016  0.003  0.012  0.031
   20  0.001  0.003  0.021  0.026
   21  0.001  0.003  0.021  0.026
   22  0.000  0.000  0.014  0.014
   23  0.001  0.003  0.021  0.026
   24  0.000  0.000  0.014  0.014
   25  0.016  0.003  0.012  0.031
   26  0.016  0.003  0.012  0.031
   27  0.000  0.000  0.014  0.014
   28  0.018  0.004  0.004  0.026
   29  0.001  0.003  0.008  0.012
   30  0.001  0.003  0.008  0.012
   31  0.001  0.003  0.008  0.012
   32  0.001  0.003  0.008  0.012
   33  0.001  0.003  0.008  0.012
   34  0.001  0.003  0.008  0.012
   35  0.001  0.000  0.001  0.001
   36  0.049  0.000  0.003  0.052
   37  0.012  0.000  0.000  0.012
tot    0.242  0.077  0.401  0.720
 
band    11 # energy   -4.99000055 # occ.  2.00000000
 
ion      s      p      d    tot
    1  0.015  0.001  0.000  0.016
    2  0.000  0.003  0.010  0.014
    3  0.000  0.003  0.010  0.014
    4  0.000  0.003  0.010  0.014
    5  0.011  0.001  0.000  0.012
    6  0.000  0.003  0.010  0.014
    7  0.000  0.003  0.010  0.014
    8  0.000  0.003  0.010  0.014
    9  0.037  0.005  0.002  0.044
   10  0.004  0.001  0.010  0.015
   11  0.000  0.001  0.019  0.020
   12  0.004  0.001  0.010  0.015
   13  0.000  0.001  0.019  0.020
   14  0.000  0.001  0.019  0.020
   15  0.013  0.005  0.015  0.032
   16  0.004  0.001  0.010  0.015
   17  0.013  0.005  0.015  0.032
   18  0.013  0.005  0.015  0.032
   19  0.001  0.001  0.019  0.021
   20  0.002  0.001  0.012  0.015
   21  0.002  0.001  0.012  0.015
   22  0.014  0.005  0.013  0.031
   23  0.002  0.001  0.012  0.015
   24  0.014  0.005  0.013  0.031
   25  0.001  0.001  0.019  0.021
   26  0.001  0.001  0.019  0.021
   27  0.014  0.005  0.013  0.031
   28  0.016  0.001  0.000  0.018
   29  0.000  0.003  0.009  0.012
   30  0.000  0.003  0.009  0.012
   31  0.000  0.003  0.009  0.012
   32  0.000  0.003  0.009  0.012
   33  0.000  0.003  0.009  0.012
   34  0.000  0.003  0.009  0.012
   35  0.035  0.005  0.002  0.042
   36  0.012  0.000  0.002  0.014
   37  0.003  0.000  0.000  0.003
tot    0.233  0.090  0.386  0.708
 
band    12 # energy   -4.98349593 # occ.  2.00000000
 
ion      s      p      d    tot
    1  0.012  0.000  0.006  0.019
    2  0.003  0.001  0.009  0.013
    3  0.003  0.001  0.009  0.013
    4  0.003  0.001  0.009  0.013
    5  0.001  0.002  0.008  0.012
    6  0.003  0.001  0.009  0.013
    7  0.003  0.001  0.009  0.013
    8  0.003  0.001  0.009  0.013
    9  0.009  0.000  0.005  0.015
   10  0.003  0.000  0.025  0.028
   11  0.013  0.001  0.020  0.034
   12  0.003  0.000  0.025  0.028
   13  0.013  0.001  0.020  0.034
   14  0.013  0.001  0.020  0.034
   15  0.002  0.000  0.019  0.021
   16  0.003  0.000  0.025  0.028
   17  0.002  0.000  0.019  0.021
   18  0.002  0.000  0.019  0.021
   19  0.001  0.000  0.021  0.022
   20  0.014  0.001  0.022  0.037
   21  0.014  0.001  0.023  0.037
   22  0.004  0.000  0.025  0.029
   23  0.014  0.001  0.023  0.037
   24  0.004  0.000  0.025  0.029
   25  0.001  0.000  0.021  0.022
   26  0.001  0.000  0.021  0.022
   27  0.004  0.000  0.025  0.029
   28  0.013  0.000  0.006  0.019
   29  0.004  0.001  0.009  0.014
   30  0.004  0.001  0.009  0.014
   31  0.004  0.001  0.009  0.014
   32  0.004  0.001  0.009  0.014
   33  0.004  0.001  0.009  0.014
   34  0.004  0.001  0.009  0.014
   35  0.012  0.000  0.007  0.019
   36  0.001  0.003  0.006  0.011
   37  0.000  0.000  0.000  0.000
tot    0.202  0.025  0.541  0.769
 
band    13 # energy   -4.97846494 # occ.  2.00000000
 
ion      s      p      d    tot
    1  0.000  0.003  0.009  0.012
    2  0.021  0.004  0.006  0.030
    3  0.002  0.002  0.005  0.009
    4  0.021  0.004  0.005  0.030
    5  0.000  0.006  0.010  0.016
    6  0.009  0.003  0.006  0.017
    7  0.003  0.002  0.005  0.010
    8  0.010  0.003  0.006  0.018
    9  0.000  0.000  0.013  0.013
   10  0.017  0.005  0.009  0.031
   11  0.004  0.002  0.023  0.029
   12  0.004  0.001  0.017  0.022
   13  0.003  0.002  0.024  0.029
   14  0.015  0.003  0.005  0.023
   15  0.000  0.002  0.015  0.018
   16  0.005  0.001  0.016  0.022
   17  0.000  0.002  0.016  0.018
   18  0.000  0.000  0.009  0.010
   19  0.002  0.003  0.019  0.024
   20  0.023  0.005  0.006  0.034
   21  0.005  0.002  0.022  0.029
   22  0.001  0.002  0.014  0.017
   23  0.006  0.002  0.021  0.029
   24  0.006  0.002  0.010  0.018
   25  0.006  0.001  0.007  0.013
   26  0.001  0.003  0.020  0.024
   27  0.002  0.002  0.014  0.017
   28  0.000  0.003  0.012  0.015
   29  0.020  0.004  0.006  0.029
   30  0.001  0.002  0.005  0.008
   31  0.019  0.004  0.006  0.028
   32  0.010  0.002  0.005  0.018
   33  0.001  0.002  0.005  0.008
   34  0.011  0.003  0.005  0.019
   35  0.000  0.000  0.010  0.011
   36  0.000  0.007  0.004  0.011
   37  0.000  0.000  0.000  0.000
tot    0.227  0.095  0.387  0.708
 
band    14 # energy   -4.97844082 # occ.  2.00000000
 
ion      s      p      d    tot
    1  0.000  0.003  0.009  0.012
    2  0.001  0.002  0.005  0.008
    3  0.020  0.004  0.006  0.029
    4  0.001  0.002  0.005  0.008
    5  0.000  0.006  0.010  0.016
    6  0.013  0.003  0.005  0.021
    7  0.019  0.004  0.006  0.028
    8  0.012  0.003  0.005  0.020
    9  0.000  0.000  0.013  0.013
   10  0.000  0.000  0.019  0.019
   11  0.011  0.003  0.011  0.025
   12  0.013  0.004  0.011  0.028
   13  0.011  0.003  0.010  0.025
   14  0.000  0.002  0.029  0.032
   15  0.000  0.001  0.012  0.013
   16  0.012  0.004  0.011  0.027
   17  0.000  0.001  0.011  0.012
   18  0.000  0.003  0.017  0.021
   19  0.004  0.002  0.011  0.017
   20  0.000  0.000  0.026  0.027
   21  0.018  0.004  0.011  0.032
   22  0.005  0.002  0.011  0.018
   23  0.017  0.004  0.011  0.032
   24  0.000  0.002  0.015  0.017
   25  0.000  0.004  0.024  0.028
   26  0.004  0.001  0.011  0.016
   27  0.005  0.002  0.011  0.018
   28  0.000  0.003  0.012  0.015
   29  0.001  0.002  0.005  0.008
   30  0.020  0.004  0.006  0.029
   31  0.002  0.002  0.005  0.009
   32  0.010  0.003  0.005  0.018
   33  0.020  0.004  0.006  0.029
   34  0.009  0.003  0.005  0.017
   35  0.000  0.000  0.010  0.011
   36  0.000  0.007  0.004  0.011
   37  0.000  0.000  0.000  0.000
tot    0.227  0.095  0.387  0.708
 
band    15 # energy   -4.97174918 # occ.  2.00000000
 
ion      s      p      d    tot
    1  0.000  0.003  0.013  0.016
    2  0.021  0.004  0.006  0.030
    3  0.002  0.002  0.005  0.009
    4  0.021  0.004  0.006  0.030
    5  0.000  0.001  0.011  0.012
    6  0.010  0.003  0.006  0.018
    7  0.002  0.002  0.005  0.009
    8  0.009  0.003  0.006  0.018
    9  0.000  0.006  0.008  0.014
   10  0.000  0.003  0.026  0.030
   11  0.005  0.002  0.011  0.018
   12  0.003  0.001  0.012  0.016
   13  0.005  0.002  0.011  0.018
   14  0.000  0.001  0.014  0.015
   15  0.015  0.004  0.011  0.031
   16  0.003  0.001  0.011  0.016
   17  0.015  0.004  0.011  0.031
   18  0.000  0.000  0.027  0.027
   19  0.014  0.004  0.011  0.028
   20  0.000  0.004  0.018  0.021
   21  0.000  0.001  0.012  0.013
   22  0.013  0.003  0.011  0.027
   23  0.000  0.001  0.011  0.012
   24  0.000  0.002  0.027  0.030
   25  0.000  0.000  0.020  0.020
   26  0.014  0.004  0.011  0.028
   27  0.013  0.003  0.011  0.027
   28  0.000  0.003  0.008  0.011
   29  0.018  0.004  0.005  0.027
   30  0.001  0.002  0.005  0.008
   31  0.018  0.004  0.005  0.027
   32  0.010  0.003  0.005  0.017
   33  0.001  0.002  0.005  0.008
   34  0.010  0.003  0.005  0.017
   35  0.000  0.006  0.010  0.015
   36  0.000  0.000  0.006  0.007
   37  0.000  0.000  0.000  0.000
tot    0.225  0.094  0.385  0.704
 
band    16 # energy   -4.97173490 # occ.  2.00000000
 
ion      s      p      d    tot
    1  0.000  0.003  0.013  0.016
    2  0.001  0.002  0.005  0.008
    3  0.019  0.004  0.006  0.029
    4  0.001  0.002  0.005  0.008
    5  0.000  0.001  0.011  0.012
    6  0.012  0.003  0.005  0.020
    7  0.020  0.004  0.006  0.029
    8  0.013  0.003  0.005  0.021
    9  0.000  0.006  0.008  0.014
   10  0.004  0.001  0.007  0.011
   11  0.002  0.002  0.013  0.016
   12  0.001  0.003  0.021  0.025
   13  0.002  0.002  0.013  0.016
   14  0.006  0.003  0.011  0.020
   15  0.005  0.002  0.022  0.029
   16  0.001  0.003  0.021  0.025
   17  0.005  0.002  0.021  0.029
   18  0.020  0.006  0.006  0.032
   19  0.004  0.001  0.017  0.023
   20  0.000  0.000  0.009  0.010
   21  0.000  0.003  0.016  0.018
   22  0.005  0.003  0.022  0.029
   23  0.000  0.003  0.016  0.018
   24  0.018  0.003  0.005  0.026
   25  0.018  0.005  0.007  0.031
   26  0.005  0.001  0.017  0.023
   27  0.004  0.003  0.022  0.029
   28  0.000  0.003  0.008  0.011
   29  0.001  0.002  0.005  0.008
   30  0.018  0.004  0.005  0.027
   31  0.001  0.002  0.005  0.008
   32  0.010  0.003  0.005  0.018
   33  0.018  0.004  0.005  0.027
   34  0.010  0.003  0.005  0.018
   35  0.000  0.006  0.010  0.015
   36  0.000  0.000  0.006  0.007
   37  0.000  0.000  0.000  0.000
tot    0.225  0.094  0.385  0.704
 
band    17 # energy   -4.32841041 # occ.  2.00000000
 
ion      s      p      d    tot
    1  0.029  0.001  0.001  0.031
    2  0.000  0.001  0.017  0.018
    3  0.000  0.001  0.017  0.018
    4  0.000  0.001  0.017  0.018
    5  0.011  0.000  0.001  0.013
    6  0.000  0.001  0.017  0.018
    7  0.000  0.001  0.017  0.018
    8  0.000  0.001  0.017  0.018
    9  0.004  0.000  0.000  0.004
   10  0.000  0.003  0.039  0.043
   11  0.001  0.003  0.020  0.023
   12  0.000  0.003  0.039  0.043
   13  0.001  0.003  0.020  0.023
   14  0.001  0.003  0.020  0.023
   15  0.000  0.000  0.008  0.008
   16  0.000  0.003  0.039  0.043
   17  0.000  0.000  0.008  0.008
   18  0.000  0.000  0.008  0.008
   19  0.001  0.003  0.025  0.029
   20  0.000  0.002  0.041  0.043
   21  0.000  0.002  0.041  0.043
   22  0.000  0.000  0.005  0.006
   23  0.000  0.002  0.041  0.043
   24  0.000  0.000  0.005  0.006
   25  0.001  0.003  0.025  0.029
   26  0.001  0.003  0.025  0.029
   27  0.000  0.000  0.005  0.006
   28  0.014  0.000  0.003  0.017
   29  0.000  0.001  0.015  0.016
   30  0.000  0.001  0.015  0.016
   31  0.000  0.001  0.015  0.016
   32  0.000  0.001  0.015  0.016
   33  0.000  0.001  0.015  0.016
   34  0.000  0.001  0.015  0.016
   35  0.002  0.000  0.000  0.002
   36  0.038  0.001  0.010  0.049
   37  0.020  0.000  0.000  0.020
tot    0.126  0.051  0.617  0.793
 
band    18 # energy   -4.29005941 # occ.  2.00000000
 
ion      s      p      d    tot
    1  0.000  0.002  0.002  0.004
    2  0.014  0.001  0.011  0.026
    3  0.008  0.001  0.010  0.018
    4  0.014  0.001  0.011  0.026
    5  0.000  0.002  0.021  0.023
    6  0.001  0.001  0.010  0.012
    7  0.008  0.001  0.010  0.018
    8  0.001  0.001  0.010  0.012
    9  0.000  0.000  0.034  0.034
   10  0.001  0.007  0.022  0.030
   11  0.000  0.001  0.040  0.041
   12  0.000  0.002  0.012  0.014
   13  0.000  0.001  0.041  0.041
   14  0.001  0.002  0.005  0.009
   15  0.000  0.000  0.033  0.033
   16  0.000  0.002  0.012  0.014
   17  0.000  0.000  0.033  0.034
   18  0.000  0.001  0.012  0.013
   19  0.000  0.000  0.049  0.049
   20  0.001  0.007  0.020  0.028
   21  0.000  0.002  0.016  0.018
   22  0.000  0.001  0.022  0.023
   23  0.000  0.002  0.016  0.018
   24  0.000  0.003  0.017  0.020
   25  0.001  0.001  0.003  0.004
   26  0.000  0.000  0.049  0.049
   27  0.000  0.001  0.022  0.023
   28  0.000  0.002  0.028  0.030
   29  0.012  0.001  0.010  0.023
   30  0.000  0.001  0.008  0.009
   31  0.012  0.001  0.010  0.023
   32  0.011  0.001  0.009  0.022
   33  0.000  0.001  0.008  0.009
   34  0.012  0.001  0.009  0.022
   35  0.000  0.000  0.023  0.023
   36  0.000  0.003  0.000  0.003
   37  0.000  0.000  0.000  0.000
tot    0.099  0.053  0.648  0.800
 
band    19 # energy   -4.29001762 # occ.  2.00000000
 
ion      s      p      d    tot
    1  0.000  0.002  0.002  0.004
    2  0.001  0.001  0.010  0.011
    3  0.008  0.001  0.011  0.019
    4  0.001  0.001  0.010  0.011
    5  0.000  0.002  0.021  0.023
    6  0.014  0.001  0.010  0.026
    7  0.008  0.001  0.011  0.019
    8  0.014  0.001  0.010  0.026
    9  0.000  0.000  0.034  0.034
   10  0.000  0.000  0.009  0.009
   11  0.001  0.002  0.017  0.020
   12  0.001  0.005  0.019  0.025
   13  0.001  0.002  0.017  0.019
   14  0.000  0.000  0.052  0.052
   15  0.000  0.001  0.019  0.020
   16  0.001  0.005  0.018  0.025
   17  0.000  0.001  0.019  0.020
   18  0.000  0.000  0.040  0.041
   19  0.000  0.001  0.018  0.020
   20  0.000  0.000  0.015  0.015
   21  0.001  0.005  0.018  0.025
   22  0.000  0.002  0.019  0.021
   23  0.001  0.005  0.018  0.025
   24  0.000  0.000  0.024  0.024
   25  0.000  0.000  0.064  0.064
   26  0.000  0.001  0.018  0.019
   27  0.000  0.002  0.019  0.021
   28  0.000  0.002  0.028  0.030
   29  0.004  0.001  0.008  0.013
   30  0.016  0.001  0.010  0.027
   31  0.004  0.001  0.008  0.013
   32  0.004  0.001  0.009  0.014
   33  0.016  0.001  0.010  0.027
   34  0.004  0.001  0.009  0.014
   35  0.000  0.000  0.023  0.023
   36  0.000  0.003  0.000  0.003
   37  0.000  0.000  0.000  0.000
tot    0.099  0.053  0.648  0.800
 
band    20 # energy   -4.28776075 # occ.  2.00000000
 
ion      s      p      d    tot
    1  0.000  0.000  0.001  0.001
    2  0.000  0.001  0.019  0.020
    3  0.000  0.001  0.019  0.020
    4  0.000  0.001  0.019  0.020
    5  0.021  0.001  0.001  0.023
    6  0.000  0.001  0.019  0.020
    7  0.000  0.001  0.019  0.020
    8  0.000  0.001  0.019  0.020
    9  0.025  0.001  0.003  0.028
   10  0.000  0.001  0.007  0.008
   11  0.000  0.001  0.027  0.028
   12  0.000  0.001  0.007  0.008
   13  0.000  0.001  0.027  0.028
   14  0.000  0.001  0.027  0.028
   15  0.001  0.003  0.037  0.042
   16  0.000  0.001  0.007  0.008
   17  0.001  0.003  0.037  0.042
   18  0.001  0.003  0.037  0.041
   19  0.000  0.001  0.022  0.023
   20  0.000  0.001  0.008  0.009
   21  0.000  0.001  0.008  0.009
   22  0.000  0.004  0.041  0.045
   23  0.000  0.001  0.008  0.009
   24  0.000  0.004  0.040  0.045
   25  0.000  0.001  0.022  0.023
   26  0.000  0.001  0.022  0.023
   27  0.000  0.004  0.041  0.045
   28  0.016  0.001  0.000  0.017
   29  0.000  0.001  0.017  0.018
   30  0.000  0.001  0.017  0.019
   31  0.000  0.001  0.017  0.018
   32  0.000  0.001  0.017  0.018
   33  0.000  0.001  0.017  0.019
   34  0.000  0.001  0.017  0.018
   35  0.028  0.001  0.001  0.031
   36  0.002  0.000  0.000  0.002
   37  0.000  0.000  0.000  0.000
tot    0.099  0.053  0.647  0.799
 
band    21 # energy   -4.27055886 # occ.  2.00000000
 
ion      s      p      d    tot
    1  0.000  0.001  0.039  0.039
    2  0.014  0.001  0.011  0.027
    3  0.008  0.001  0.010  0.019
    4  0.014  0.001  0.011  0.027
    5  0.000  0.001  0.017  0.018
    6  0.001  0.001  0.011  0.012
    7  0.008  0.001  0.010  0.019
    8  0.001  0.001  0.011  0.012
    9  0.000  0.003  0.005  0.007
   10  0.000  0.000  0.061  0.061
   11  0.000  0.004  0.019  0.023
   12  0.000  0.000  0.019  0.020
   13  0.000  0.004  0.019  0.023
   14  0.000  0.000  0.017  0.018
   15  0.001  0.004  0.018  0.024
   16  0.000  0.000  0.019  0.019
   17  0.001  0.004  0.018  0.024
   18  0.000  0.000  0.028  0.028
   19  0.000  0.005  0.018  0.023
   20  0.000  0.000  0.058  0.058
   21  0.000  0.000  0.021  0.021
   22  0.000  0.004  0.018  0.022
   23  0.000  0.000  0.020  0.021
   24  0.000  0.000  0.047  0.047
   25  0.000  0.000  0.004  0.004
   26  0.000  0.005  0.018  0.023
   27  0.000  0.004  0.018  0.022
   28  0.000  0.002  0.007  0.008
   29  0.011  0.001  0.008  0.020
   30  0.000  0.001  0.008  0.009
   31  0.011  0.001  0.008  0.020
   32  0.011  0.001  0.007  0.019
   33  0.000  0.001  0.008  0.009
   34  0.011  0.001  0.007  0.019
   35  0.000  0.003  0.012  0.015
   36  0.000  0.000  0.014  0.014