PROCAR new format
# of k-points:   10         # of bands:  252         # of ions:   37

 k-point     1 :    0.00000000 0.00000000 0.00000000     weight = 0.01562500

band     1 # energy   -9.98530252 # occ.  2.00000000
 
ion      s      p      d    tot
    1  0.000  0.000  0.000  0.000
    2  0.000  0.000  0.000  0.000
    3  0.000  0.000  0.000  0.000
    4  0.000  0.000  0.000  0.000
    5  0.000  0.000  0.000  0.000
    6  0.000  0.000  0.000  0.000
    7  0.000  0.000  0.000  0.000
    8  0.000  0.000  0.000  0.000
    9  0.000  0.000  0.000  0.000
   10  0.001  0.000  0.000  0.001
   11  0.001  0.000  0.000  0.001
   12  0.001  0.000  0.000  0.001
   13  0.001  0.000  0.000  0.001
   14  0.001  0.000  0.000  0.001
   15  0.001  0.000  0.000  0.001
   16  0.001  0.000  0.000  0.001
   17  0.001  0.000  0.000  0.001
   18  0.001  0.000  0.000  0.001
   19  0.002  0.000  0.000  0.002
   20  0.006  0.001  0.000  0.006
   21  0.006  0.001  0.000  0.006
   22  0.002  0.000  0.000  0.002
   23  0.006  0.001  0.000  0.006
   24  0.002  0.000  0.000  0.002
   25  0.002  0.000  0.000  0.002
   26  0.002  0.000  0.000  0.002
   27  0.002  0.000  0.000  0.002
   28  0.002  0.000  0.000  0.002
   29  0.005  0.001  0.001  0.006
   30  0.005  0.001  0.001  0.006
   31  0.005  0.001  0.001  0.006
   32  0.005  0.001  0.001  0.006
   33  0.005  0.001  0.001  0.006
   34  0.005  0.001  0.001  0.006
   35  0.002  0.000  0.000  0.002
   36  0.121  0.056  0.108  0.284
   37  0.382  0.019  0.000  0.400
tot    0.576  0.080  0.113  0.768
 
band     2 # energy   -9.21440942 # occ.  2.00000000
 
ion      s      p      d    tot
    1  0.008  0.001  0.000  0.008
    2  0.008  0.001  0.000  0.008
    3  0.008  0.001  0.000  0.008
    4  0.008  0.001  0.000  0.008
    5  0.007  0.001  0.000  0.008
    6  0.008  0.001  0.000  0.008
    7  0.008  0.001  0.000  0.008
    8  0.008  0.001  0.000  0.008
    9  0.008  0.001  0.000  0.008
   10  0.026  0.000  0.000  0.026
   11  0.025  0.000  0.000  0.026
   12  0.026  0.000  0.000  0.026
   13  0.025  0.000  0.000  0.026
   14  0.025  0.000  0.000  0.026
   15  0.026  0.000  0.000  0.026
   16  0.026  0.000  0.000  0.026
   17  0.026  0.000  0.000  0.026
   18  0.026  0.000  0.000  0.026
   19  0.022  0.000  0.000  0.022
   20  0.019  0.001  0.000  0.020
   21  0.019  0.001  0.000  0.020
   22  0.021  0.000  0.000  0.022
   23  0.019  0.001  0.000  0.020
   24  0.021  0.000  0.000  0.022
   25  0.022  0.000  0.000  0.022
   26  0.022  0.000  0.000  0.022
   27  0.021  0.000  0.000  0.022
   28  0.004  0.001  0.000  0.005
   29  0.003  0.001  0.000  0.004
   30  0.003  0.001  0.000  0.004
   31  0.003  0.001  0.000  0.004
   32  0.003  0.001  0.000  0.004
   33  0.003  0.001  0.000  0.004
   34  0.003  0.001  0.000  0.004
   35  0.004  0.001  0.000  0.005
   36  0.002  0.013  0.013  0.027
   37  0.042  0.001  0.000  0.044
tot    0.554  0.032  0.015  0.601
 
band     3 # energy   -7.88543331 # occ.  2.00000000
 
ion      s      p      d    tot
    1  0.018  0.001  0.001  0.020
    2  0.018  0.001  0.001  0.020
    3  0.018  0.001  0.001  0.020
    4  0.018  0.001  0.001  0.020
    5  0.019  0.001  0.001  0.020
    6  0.018  0.001  0.001  0.020
    7  0.018  0.001  0.001  0.020
    8  0.018  0.001  0.001  0.020
    9  0.018  0.001  0.001  0.019
   10  0.008  0.003  0.001  0.011
   11  0.008  0.003  0.000  0.011
   12  0.008  0.003  0.001  0.011
   13  0.008  0.003  0.000  0.011
   14  0.008  0.003  0.000  0.011
   15  0.007  0.003  0.001  0.011
   16  0.008  0.003  0.001  0.011
   17  0.007  0.003  0.001  0.011
   18  0.007  0.003  0.001  0.011
   19  0.014  0.002  0.001  0.017
   20  0.011  0.002  0.001  0.013
   21  0.011  0.002  0.001  0.013
   22  0.014  0.002  0.001  0.017
   23  0.011  0.002  0.001  0.013
   24  0.014  0.002  0.001  0.017
   25  0.014  0.002  0.001  0.017
   26  0.014  0.002  0.001  0.017
   27  0.014  0.002  0.001  0.017
   28  0.019  0.001  0.000  0.020
   29  0.015  0.001  0.000  0.016
   30  0.015  0.001  0.000  0.016
   31  0.015  0.001  0.000  0.016
   32  0.015  0.001  0.000  0.016
   33  0.015  0.001  0.000  0.016
   34  0.015  0.001  0.000  0.016
   35  0.018  0.001  0.000  0.020
   36  0.002  0.008  0.011  0.021
   37  0.018  0.000  0.000  0.018
tot    0.497  0.064  0.032  0.593
 
band     4 # energy   -6.34227893 # occ.  2.00000000
 
ion      s      p      d    tot
    1  0.013  0.000  0.003  0.016
    2  0.008  0.001  0.005  0.014
    3  0.008  0.001  0.005  0.014
    4  0.008  0.001  0.005  0.014
    5  0.000  0.002  0.006  0.007
    6  0.008  0.001  0.005  0.014
    7  0.008  0.001  0.005  0.014
    8  0.008  0.001  0.005  0.014
    9  0.026  0.001  0.001  0.028
   10  0.001  0.003  0.005  0.009
   11  0.024  0.007  0.001  0.032
   12  0.001  0.003  0.005  0.009
   13  0.024  0.007  0.001  0.032
   14  0.024  0.007  0.001  0.032
   15  0.003  0.001  0.008  0.012
   16  0.001  0.003  0.005  0.009
   17  0.003  0.001  0.008  0.012
   18  0.003  0.001  0.008  0.012
   19  0.001  0.001  0.008  0.010
   20  0.030  0.007  0.002  0.039
   21  0.030  0.007  0.002  0.039
   22  0.001  0.005  0.004  0.010
   23  0.030  0.007  0.002  0.039
   24  0.001  0.005  0.004  0.010
   25  0.001  0.001  0.008  0.010
   26  0.001  0.001  0.008  0.010
   27  0.001  0.005  0.004  0.010
   28  0.019  0.000  0.002  0.021
   29  0.009  0.001  0.005  0.016
   30  0.009  0.001  0.005  0.016
   31  0.009  0.001  0.005  0.016
   32  0.009  0.001  0.005  0.016
   33  0.009  0.001  0.005  0.016
   34  0.009  0.001  0.005  0.016
   35  0.025  0.000  0.002  0.028
   36  0.001  0.003  0.013  0.017
   37  0.000  0.001  0.000  0.001
tot    0.367  0.091  0.176  0.634
 
band     5 # energy   -6.30860233 # occ.  2.00000000
 
ion      s      p      d    tot
    1  0.000  0.002  0.005  0.006
    2  0.008  0.002  0.002  0.013
    3  0.000  0.001  0.002  0.003
    4  0.008  0.002  0.002  0.013
    5  0.000  0.003  0.004  0.008
    6  0.006  0.002  0.002  0.010
    7  0.000  0.001  0.002  0.003
    8  0.006  0.002  0.002  0.011
    9  0.000  0.000  0.002  0.002
   10  0.047  0.005  0.003  0.054
   11  0.012  0.008  0.006  0.027
   12  0.011  0.001  0.013  0.026
   13  0.011  0.009  0.006  0.026
   14  0.046  0.001  0.006  0.053
   15  0.000  0.007  0.005  0.012
   16  0.012  0.001  0.013  0.026
   17  0.000  0.007  0.005  0.012
   18  0.000  0.001  0.004  0.006
   19  0.003  0.010  0.003  0.015
   20  0.065  0.003  0.006  0.074
   21  0.016  0.005  0.012  0.032
   22  0.005  0.002  0.011  0.019
   23  0.017  0.005  0.011  0.034
   24  0.023  0.004  0.002  0.029
   25  0.010  0.000  0.006  0.016
   26  0.002  0.010  0.003  0.015
   27  0.006  0.002  0.011  0.019
   28  0.000  0.001  0.003  0.004
   29  0.010  0.003  0.003  0.016
   30  0.001  0.001  0.002  0.004
   31  0.010  0.003  0.003  0.016
   32  0.005  0.002  0.002  0.009
   33  0.001  0.001  0.002  0.004
   34  0.005  0.002  0.002  0.009
   35  0.000  0.000  0.004  0.004
   36  0.000  0.005  0.006  0.011
   37  0.000  0.000  0.000  0.000
tot    0.347  0.117  0.178  0.642
 
band     6 # energy   -6.30850217 # occ.  2.00000000
 
ion      s      p      d    tot
    1  0.000  0.002  0.005  0.006
    2  0.001  0.001  0.002  0.005
    3  0.010  0.002  0.002  0.014
    4  0.002  0.001  0.002  0.005
    5  0.000  0.003  0.004  0.008
    6  0.004  0.001  0.002  0.007
    7  0.010  0.002  0.002  0.014
    8  0.003  0.001  0.002  0.007
    9  0.000  0.000  0.002  0.002
   10  0.000  0.000  0.016  0.016
   11  0.034  0.004  0.006  0.044
   12  0.036  0.004  0.006  0.045
   13  0.035  0.004  0.006  0.045
   14  0.000  0.011  0.006  0.017
   15  0.000  0.003  0.005  0.008
   16  0.035  0.004  0.006  0.044
   17  0.000  0.003  0.005  0.008
   18  0.000  0.009  0.005  0.014
   19  0.007  0.004  0.005  0.016
   20  0.000  0.006  0.014  0.019
   21  0.050  0.004  0.007  0.061
   22  0.017  0.004  0.005  0.026
   23  0.048  0.004  0.008  0.060
   24  0.000  0.002  0.014  0.016
   25  0.000  0.013  0.002  0.015
   26  0.008  0.003  0.005  0.016
   27  0.017  0.004  0.005  0.026
   28  0.000  0.001  0.003  0.004
   29  0.001  0.001  0.002  0.004
   30  0.010  0.003  0.003  0.015
   31  0.001  0.001  0.002  0.004
   32  0.006  0.002  0.003  0.010
   33  0.010  0.002  0.003  0.015
   34  0.005  0.002  0.003  0.010
   35  0.000  0.000  0.004  0.004
   36  0.000  0.005  0.006  0.011
   37  0.000  0.000  0.000  0.000
tot    0.347  0.117  0.178  0.642
 
band     7 # energy   -6.28562603 # occ.  2.00000000
 
ion      s      p      d    tot
    1  0.021  0.003  0.001  0.025
    2  0.000  0.002  0.004  0.006
    3  0.000  0.002  0.004  0.006
    4  0.000  0.002  0.004  0.006
    5  0.001  0.000  0.000  0.002
    6  0.000  0.002  0.004  0.006
    7  0.000  0.002  0.004  0.006
    8  0.000  0.002  0.004  0.006
    9  0.009  0.002  0.000  0.011
   10  0.030  0.005  0.006  0.041
   11  0.004  0.000  0.012  0.016
   12  0.030  0.005  0.006  0.041
   13  0.004  0.000  0.012  0.016
   14  0.004  0.000  0.012  0.016
   15  0.013  0.008  0.003  0.024
   16  0.030  0.005  0.006  0.041
   17  0.013  0.008  0.003  0.024
   18  0.013  0.008  0.003  0.024
   19  0.022  0.009  0.002  0.033
   20  0.000  0.002  0.011  0.013
   21  0.000  0.002  0.011  0.013
   22  0.025  0.003  0.009  0.037
   23  0.000  0.002  0.011  0.013
   24  0.025  0.003  0.009  0.037
   25  0.022  0.009  0.002  0.033
   26  0.022  0.009  0.002  0.033
   27  0.025  0.003  0.009  0.037
   28  0.018  0.003  0.001  0.022
   29  0.000  0.002  0.004  0.006
   30  0.000  0.002  0.004  0.006
   31  0.000  0.002  0.004  0.006
   32  0.000  0.002  0.004  0.006
   33  0.000  0.002  0.004  0.006
   34  0.000  0.002  0.004  0.006
   35  0.012  0.002  0.001  0.016
   36  0.000  0.000  0.000  0.000
   37  0.000  0.000  0.000  0.000
tot    0.345  0.115  0.179  0.640
 
band     8 # energy   -6.28072361 # occ.  2.00000000
 
ion      s      p      d    tot
    1  0.000  0.002  0.003  0.005
    2  0.009  0.002  0.002  0.014
    3  0.000  0.001  0.002  0.003
    4  0.009  0.002  0.002  0.013
    5  0.000  0.000  0.003  0.004
    6  0.007  0.002  0.003  0.011
    7  0.000  0.001  0.002  0.003
    8  0.007  0.002  0.003  0.011
    9  0.000  0.003  0.006  0.009
   10  0.000  0.014  0.002  0.015
   11  0.012  0.004  0.005  0.021
   12  0.012  0.003  0.006  0.021
   13  0.012  0.004  0.005  0.021
   14  0.000  0.003  0.013  0.016
   15  0.047  0.004  0.007  0.058
   16  0.011  0.004  0.005  0.021
   17  0.048  0.004  0.007  0.059
   18  0.000  0.004  0.014  0.018
   19  0.039  0.004  0.006  0.049
   20  0.000  0.009  0.006  0.015
   21  0.001  0.003  0.005  0.009
   22  0.031  0.004  0.006  0.041
   23  0.001  0.004  0.005  0.009
   24  0.000  0.012  0.005  0.017
   25  0.000  0.000  0.017  0.017
   26  0.040  0.004  0.006  0.050
   27  0.030  0.004  0.006  0.040
   28  0.000  0.002  0.005  0.007
   29  0.009  0.002  0.002  0.014
   30  0.001  0.001  0.002  0.004
   31  0.009  0.002  0.003  0.014
   32  0.004  0.001  0.002  0.008
   33  0.001  0.001  0.002  0.004
   34  0.004  0.002  0.002  0.008
   35  0.000  0.003  0.004  0.007
   36  0.000  0.000  0.002  0.002
   37  0.000  0.000  0.000  0.000
tot    0.345  0.116  0.178  0.639
 
band     9 # energy   -6.28063988 # occ.  2.00000000
 
ion      s      p      d    tot
    1  0.000  0.002  0.003  0.005
    2  0.001  0.001  0.002  0.005
    3  0.010  0.003  0.003  0.015
    4  0.002  0.001  0.002  0.005
    5  0.000  0.000  0.003  0.004
    6  0.004  0.001  0.002  0.008
    7  0.010  0.003  0.003  0.015
    8  0.004  0.001  0.002  0.007
    9  0.000  0.003  0.006  0.009
   10  0.015  0.000  0.007  0.022
   11  0.004  0.003  0.010  0.018
   12  0.004  0.010  0.003  0.017
   13  0.004  0.003  0.010  0.017
   14  0.016  0.004  0.003  0.023
   15  0.016  0.004  0.012  0.032
   16  0.004  0.010  0.003  0.017
   17  0.015  0.004  0.012  0.031
   18  0.063  0.004  0.004  0.072
   19  0.014  0.001  0.013  0.028
   20  0.001  0.002  0.005  0.007
   21  0.000  0.007  0.006  0.013
   22  0.010  0.009  0.005  0.024
   23  0.000  0.007  0.006  0.013
   24  0.041  0.001  0.007  0.048
   25  0.053  0.005  0.003  0.060
   26  0.013  0.001  0.014  0.028
   27  0.010  0.009  0.005  0.025
   28  0.000  0.002  0.005  0.007
   29  0.000  0.001  0.002  0.003
   30  0.009  0.002  0.002  0.013
   31  0.000  0.001  0.002  0.003
   32  0.005  0.002  0.002  0.010
   33  0.009  0.002  0.002  0.013
   34  0.005  0.002  0.002  0.010
   35  0.000  0.003  0.004  0.007
   36  0.000  0.000  0.002  0.002
   37  0.000  0.000  0.000  0.000
tot    0.345  0.116  0.178  0.639
 
band    10 # energy   -6.19122033 # occ.  2.00000000
 
ion      s      p      d    tot
    1  0.002  0.000  0.004  0.007
    2  0.008  0.001  0.007  0.016
    3  0.008  0.001  0.007  0.016
    4  0.008  0.001  0.007  0.016
    5  0.044  0.002  0.002  0.048
    6  0.008  0.001  0.007  0.016
    7  0.008  0.001  0.007  0.016
    8  0.008  0.001  0.007  0.016
    9  0.000  0.002  0.008  0.009
   10  0.007  0.004  0.007  0.018
   11  0.006  0.006  0.006  0.019
   12  0.007  0.004  0.007  0.018
   13  0.006  0.006  0.006  0.019
   14  0.006  0.006  0.006  0.019
   15  0.026  0.002  0.008  0.036
   16  0.007  0.004  0.007  0.018
   17  0.026  0.002  0.008  0.036
   18  0.026  0.002  0.008  0.036
   19  0.008  0.003  0.005  0.016
   20  0.007  0.003  0.005  0.015
   21  0.007  0.003  0.005  0.016
   22  0.006  0.006  0.003  0.015
   23  0.007  0.003  0.005  0.016
   24  0.006  0.006  0.003  0.015
   25  0.008  0.003  0.005  0.016
   26  0.008  0.003  0.005  0.016
   27  0.006  0.006  0.003  0.015
   28  0.005  0.000  0.005  0.011
   29  0.008  0.000  0.004  0.013
   30  0.008  0.000  0.004  0.013
   31  0.008  0.000  0.004  0.013
   32  0.008  0.000  0.004  0.013
   33  0.008  0.000  0.004  0.013
   34  0.008  0.000  0.004  0.013
   35  0.004  0.000  0.004  0.008
   36  0.010  0.005  0.010  0.025
   37  0.007  0.000  0.000  0.007
tot    0.352  0.093  0.204  0.649
 
band    11 # energy   -5.54599354 # occ.  2.00000000
 
ion      s      p      d    tot
    1  0.009  0.000  0.007  0.016
    2  0.004  0.001  0.009  0.014
    3  0.004  0.001  0.009  0.014
    4  0.004  0.001  0.009  0.014
    5  0.001  0.002  0.009  0.012
    6  0.004  0.001  0.009  0.014
    7  0.004  0.001  0.009  0.014
    8  0.004  0.001  0.009  0.014
    9  0.016  0.000  0.005  0.021
   10  0.005  0.000  0.024  0.029
   11  0.014  0.001  0.020  0.035
   12  0.005  0.000  0.024  0.029
   13  0.014  0.001  0.020  0.035
   14  0.014  0.001  0.020  0.035
   15  0.001  0.000  0.019  0.021
   16  0.005  0.000  0.024  0.029
   17  0.001  0.000  0.019  0.021
   18  0.001  0.000  0.019  0.021
   19  0.002  0.000  0.018  0.020
   20  0.013  0.001  0.026  0.041
   21  0.013  0.001  0.026  0.041
   22  0.002  0.000  0.022  0.024
   23  0.013  0.001  0.026  0.041
   24  0.002  0.000  0.022  0.025
   25  0.002  0.000  0.018  0.020
   26  0.002  0.000  0.018  0.020
   27  0.002  0.000  0.022  0.024
   28  0.007  0.000  0.005  0.012
   29  0.004  0.001  0.008  0.012
   30  0.004  0.001  0.008  0.012
   31  0.004  0.001  0.008  0.012
   32  0.004  0.001  0.008  0.012
   33  0.004  0.001  0.008  0.012
   34  0.004  0.001  0.008  0.012
   35  0.013  0.000  0.005  0.018
   36  0.002  0.003  0.014  0.019
   37  0.000  0.001  0.000  0.001
tot    0.203  0.028  0.535  0.767
 
band    12 # energy   -5.52775880 # occ.  2.00000000
 
ion      s      p      d    tot
    1  0.000  0.002  0.010  0.011
    2  0.017  0.003  0.005  0.026
    3  0.000  0.002  0.005  0.007
    4  0.016  0.003  0.005  0.025
    5  0.000  0.006  0.009  0.015
    6  0.015  0.003  0.005  0.024
    7  0.000  0.002  0.005  0.007
    8  0.016  0.003  0.006  0.025
    9  0.000  0.001  0.012  0.014
   10  0.012  0.004  0.009  0.025
   11  0.006  0.002  0.021  0.029
   12  0.003  0.001  0.015  0.019
   13  0.005  0.002  0.022  0.029
   14  0.021  0.004  0.005  0.031
   15  0.000  0.003  0.016  0.020
   16  0.003  0.002  0.014  0.019
   17  0.000  0.003  0.017  0.020
   18  0.001  0.000  0.008  0.009
   19  0.000  0.003  0.017  0.020
   20  0.019  0.005  0.005  0.029
   21  0.004  0.002  0.026  0.032
   22  0.003  0.001  0.014  0.017
   23  0.005  0.002  0.024  0.032
   24  0.011  0.004  0.010  0.025
   25  0.001  0.000  0.007  0.009
   26  0.000  0.003  0.017  0.020
   27  0.003  0.002  0.013  0.018
   28  0.000  0.001  0.012  0.013
   29  0.016  0.003  0.005  0.024
   30  0.000  0.002  0.005  0.007
   31  0.015  0.003  0.005  0.023
   32  0.017  0.003  0.005  0.025
   33  0.000  0.002  0.005  0.007
   34  0.018  0.003  0.005  0.026
   35  0.000  0.002  0.009  0.010
   36  0.000  0.009  0.004  0.013
   37  0.000  0.001  0.000  0.001
tot    0.229  0.097  0.379  0.705
 
band    13 # energy   -5.52772981 # occ.  2.00000000
 
ion      s      p      d    tot
    1  0.000  0.002  0.010  0.011
    2  0.004  0.002  0.005  0.012
    3  0.021  0.004  0.005  0.031
    4  0.005  0.002  0.005  0.013
    5  0.000  0.006  0.009  0.015
    6  0.007  0.002  0.005  0.014
    7  0.021  0.004  0.005  0.031
    8  0.005  0.002  0.005  0.013
    9  0.000  0.001  0.012  0.014
   10  0.000  0.001  0.017  0.017
   11  0.015  0.004  0.011  0.030
   12  0.010  0.003  0.011  0.023
   13  0.016  0.004  0.010  0.030
   14  0.000  0.001  0.027  0.028
   15  0.001  0.001  0.011  0.013
   16  0.009  0.003  0.011  0.023
   17  0.001  0.001  0.011  0.012
   18  0.000  0.004  0.020  0.024
   19  0.001  0.001  0.011  0.013
   20  0.000  0.001  0.032  0.033
   21  0.015  0.004  0.011  0.030
   22  0.009  0.003  0.011  0.023
   23  0.014  0.004  0.012  0.030
   24  0.000  0.001  0.015  0.015
   25  0.000  0.003  0.020  0.024
   26  0.001  0.001  0.010  0.012
   27  0.008  0.003  0.011  0.022
   28  0.000  0.001  0.012  0.013
   29  0.006  0.002  0.005  0.013
   30  0.022  0.004  0.005  0.031
   31  0.007  0.002  0.005  0.014
   32  0.005  0.002  0.005  0.012
   33  0.022  0.004  0.005  0.031
   34  0.004  0.002  0.005  0.011
   35  0.000  0.002  0.009  0.010
   36  0.000  0.009  0.004  0.013
   37  0.000  0.001  0.000  0.001
tot    0.229  0.097  0.379  0.705
 
band    14 # energy   -5.51373583 # occ.  2.00000000
 
ion      s      p      d    tot
    1  0.035  0.003  0.000  0.038
    2  0.000  0.003  0.010  0.014
    3  0.000  0.003  0.010  0.014
    4  0.000  0.003  0.010  0.014
    5  0.000  0.000  0.000  0.000
    6  0.000  0.003  0.010  0.014
    7  0.000  0.003  0.010  0.014
    8  0.000  0.003  0.010  0.014
    9  0.030  0.004  0.001  0.034
   10  0.009  0.004  0.010  0.023
   11  0.001  0.000  0.015  0.017
   12  0.009  0.004  0.011  0.023
   13  0.001  0.000  0.015  0.017
   14  0.001  0.000  0.015  0.017
   15  0.006  0.003  0.018  0.028
   16  0.009  0.004  0.011  0.023
   17  0.006  0.003  0.018  0.028
   18  0.006  0.003  0.018  0.028
   19  0.005  0.004  0.017  0.026
   20  0.000  0.000  0.017  0.017
   21  0.000  0.000  0.017  0.017
   22  0.011  0.003  0.010  0.025
   23  0.000  0.000  0.017  0.017
   24  0.011  0.003  0.010  0.025
   25  0.005  0.004  0.017  0.026
   26  0.005  0.004  0.017  0.026
   27  0.011  0.003  0.010  0.025
   28  0.035  0.003  0.000  0.039
   29  0.000  0.003  0.010  0.013
   30  0.000  0.003  0.010  0.013
   31  0.000  0.003  0.010  0.013
   32  0.000  0.003  0.010  0.013
   33  0.000  0.003  0.010  0.013
   34  0.000  0.003  0.010  0.013
   35  0.026  0.003  0.001  0.031
   36  0.000  0.000  0.000  0.000
   37  0.000  0.000  0.000  0.000
tot    0.226  0.092  0.388  0.706
 
band    15 # energy   -5.50186853 # occ.  2.00000000
 
ion      s      p      d    tot
    1  0.000  0.005  0.011  0.016
    2  0.017  0.003  0.005  0.026
    3  0.000  0.002  0.005  0.007
    4  0.017  0.003  0.005  0.025
    5  0.000  0.000  0.012  0.012
    6  0.015  0.003  0.006  0.024
    7  0.000  0.002  0.005  0.007
    8  0.016  0.003  0.006  0.024
    9  0.000  0.005  0.008  0.013
   10  0.000  0.003  0.028  0.031
   11  0.001  0.001  0.011  0.014
   12  0.008  0.002  0.011  0.021
   13  0.001  0.001  0.011  0.014
   14  0.000  0.002  0.015  0.017
   15  0.015  0.004  0.011  0.030
   16  0.007  0.002  0.011  0.021
   17  0.015  0.004  0.011  0.030
   18  0.000  0.000  0.022  0.022
   19  0.016  0.004  0.011  0.031
   20  0.000  0.003  0.016  0.019
   21  0.001  0.002  0.012  0.015
   22  0.008  0.002  0.010  0.021
   23  0.001  0.002  0.012  0.015
   24  0.000  0.003  0.026  0.029
   25  0.000  0.000  0.023  0.023
   26  0.017  0.004  0.010  0.031
   27  0.008  0.002  0.011  0.021
   28  0.000  0.005  0.008  0.013
   29  0.015  0.003  0.005  0.023
   30  0.000  0.002  0.005  0.007
   31  0.014  0.003  0.005  0.023
   32  0.016  0.003  0.005  0.024
   33  0.000  0.002  0.005  0.007
   34  0.016  0.003  0.005  0.024
   35  0.000  0.004  0.010  0.015
   36  0.000  0.000  0.007  0.007
   37  0.000  0.000  0.000  0.000
tot    0.225  0.094  0.384  0.703
 
band    16 # energy   -5.50184369 # occ.  2.00000000
 
ion      s      p      d    tot
    1  0.000  0.005  0.011  0.016
    2  0.005  0.002  0.005  0.012
    3  0.021  0.004  0.006  0.031
    4  0.005  0.002  0.005  0.012
    5  0.000  0.000  0.012  0.012
    6  0.006  0.002  0.005  0.014
    7  0.021  0.004  0.006  0.031
    8  0.006  0.002  0.005  0.013
    9  0.000  0.005  0.008  0.013
   10  0.010  0.002  0.005  0.017
   11  0.000  0.002  0.014  0.016
   12  0.002  0.003  0.023  0.028
   13  0.000  0.002  0.014  0.016
   14  0.002  0.001  0.010  0.013
   15  0.005  0.002  0.018  0.025
   16  0.003  0.003  0.022  0.028
   17  0.005  0.001  0.019  0.025
   18  0.020  0.006  0.007  0.033
   19  0.006  0.001  0.019  0.026
   20  0.002  0.001  0.011  0.014
   21  0.000  0.002  0.015  0.018
   22  0.003  0.003  0.021  0.027
   23  0.001  0.002  0.015  0.018
   24  0.011  0.002  0.006  0.018
   25  0.022  0.005  0.006  0.034
   26  0.005  0.001  0.019  0.026
   27  0.003  0.003  0.021  0.026
   28  0.000  0.005  0.008  0.013
   29  0.006  0.002  0.005  0.013
   30  0.020  0.004  0.005  0.029
   31  0.006  0.002  0.005  0.013
   32  0.005  0.002  0.005  0.012
   33  0.020  0.004  0.005  0.029
   34  0.004  0.002  0.005  0.012
   35  0.000  0.004  0.010  0.015
   36  0.000  0.000  0.007  0.007
   37  0.000  0.000  0.000  0.000
tot    0.225  0.094  0.384  0.703
 
band    17 # energy   -5.38385496 # occ.  2.00000000
 
ion      s      p      d    tot
    1  0.009  0.002  0.001  0.011
    2  0.000  0.002  0.010  0.013
    3  0.000  0.002  0.010  0.013
    4  0.000  0.002  0.010  0.013
    5  0.042  0.003  0.000  0.045
    6  0.000  0.002  0.010  0.013
    7  0.000  0.002  0.010  0.013
    8  0.000  0.002  0.010  0.013
    9  0.003  0.001  0.002  0.006
   10  0.002  0.001  0.023  0.026
   11  0.002  0.003  0.020  0.025
   12  0.002  0.001  0.023  0.026
   13  0.002  0.003  0.020  0.025
   14  0.002  0.003  0.020  0.025
   15  0.005  0.001  0.012  0.018
   16  0.002  0.001  0.023  0.026
   17  0.005  0.001  0.012  0.018
   18  0.005  0.001  0.012  0.018
   19  0.012  0.000  0.023  0.035
   20  0.006  0.004  0.012  0.022
   21  0.006  0.004  0.012  0.022
   22  0.004  0.001  0.019  0.025
   23  0.006  0.004  0.012  0.022
   24  0.004  0.001  0.019  0.025
   25  0.012  0.000  0.023  0.035
   26  0.012  0.000  0.023  0.035
   27  0.004  0.001  0.019  0.025
   28  0.000  0.002  0.009  0.011
   29  0.003  0.001  0.011  0.015
   30  0.003  0.001  0.011  0.015
   31  0.003  0.001  0.011  0.015
   32  0.003  0.001  0.011  0.015
   33  0.003  0.001  0.011  0.015
   34  0.003  0.001  0.011  0.015
   35  0.001  0.001  0.005  0.007
   36  0.025  0.009  0.007  0.041
   37  0.007  0.000  0.000  0.007
tot    0.200  0.074  0.477  0.751
 
band    18 # energy   -4.84361084 # occ.  2.00000000
 
ion      s      p      d    tot
    1  0.000  0.002  0.001  0.003
    2  0.013  0.001  0.009  0.024
    3  0.008  0.001  0.009  0.018
    4  0.013  0.001  0.009  0.024
    5  0.000  0.002  0.022  0.023
    6  0.001  0.001  0.009  0.010
    7  0.008  0.001  0.009  0.018
    8  0.001  0.001  0.009  0.010
    9  0.000  0.000  0.028  0.028
   10  0.001  0.007  0.020  0.028
   11  0.000  0.000  0.041  0.042
   12  0.000  0.002  0.011  0.013
   13  0.000  0.000  0.041  0.042
   14  0.001  0.002  0.004  0.006
   15  0.000  0.000  0.027  0.027
   16  0.000  0.002  0.011  0.013
   17  0.000  0.000  0.027  0.028
   18  0.000  0.002  0.012  0.014
   19  0.000  0.000  0.044  0.045
   20  0.002  0.006  0.024  0.032
   21  0.000  0.002  0.015  0.017
   22  0.000  0.001  0.026  0.027
   23  0.000  0.002  0.015  0.017
   24  0.000  0.002  0.014  0.016
   25  0.001  0.001  0.003  0.005
   26  0.000  0.000  0.044  0.045
   27  0.000  0.001  0.026  0.027
   28  0.000  0.002  0.026  0.028
   29  0.015  0.001  0.011  0.027
   30  0.000  0.001  0.010  0.011
   31  0.015  0.001  0.011  0.027
   32  0.012  0.001  0.009  0.022
   33  0.000  0.001  0.010  0.011
   34  0.012  0.001  0.009  0.022
   35  0.000  0.000  0.027  0.027
   36  0.000  0.005  0.005  0.010
   37  0.000  0.005  0.000  0.005
tot    0.105  0.059  0.626  0.790
 
band    19 # energy   -4.84355602 # occ.  2.00000000
 
ion      s      p      d    tot
    1  0.000  0.002  0.001  0.003
    2  0.002  0.001  0.008  0.011
    3  0.006  0.001  0.009  0.016
    4  0.002  0.001  0.008  0.011
    5  0.000  0.002  0.022  0.023
    6  0.014  0.001  0.009  0.024
    7  0.006  0.001  0.009  0.016
    8  0.014  0.001  0.009  0.024
    9  0.000  0.000  0.028  0.028
   10  0.000  0.000  0.008  0.008
   11  0.001  0.001  0.016  0.018
   12  0.001  0.005  0.017  0.023
   13  0.001  0.001  0.016  0.018
   14  0.000  0.000  0.054  0.054
   15  0.000  0.001  0.017  0.018
   16  0.001  0.005  0.017  0.023
   17  0.000  0.001  0.017  0.018
   18  0.000  0.000  0.032  0.032
   19  0.000  0.001  0.017  0.019
   20  0.000  0.000  0.011  0.011
   21  0.001  0.005  0.021  0.027
   22  0.000  0.002  0.018  0.019
   23  0.001  0.005  0.021  0.027
   24  0.000  0.000  0.031  0.031
   25  0.000  0.000  0.058  0.058
   26  0.000  0.001  0.017  0.018
   27  0.000  0.002  0.018  0.019
   28  0.000  0.002  0.026  0.028
   29  0.003  0.001  0.009  0.013
   30  0.018  0.001  0.010  0.029
   31  0.003  0.001  0.009  0.013
   32  0.006  0.001  0.011  0.018
   33  0.018  0.001  0.010  0.029
   34  0.006  0.001  0.011  0.018
   35  0.000  0.000  0.027  0.027
   36  0.000  0.005  0.005  0.010
   37  0.000  0.005  0.000  0.005
tot    0.105  0.059  0.626  0.790
 
band    20 # energy   -4.81676593 # occ.  2.00000000
 
ion      s      p      d    tot
    1  0.000  0.000  0.038  0.038
    2  0.013  0.001  0.011  0.025
    3  0.010  0.001  0.010  0.021
    4  0.013  0.001  0.011  0.025
    5  0.000  0.001  0.012  0.013
    6  0.000  0.001  0.010  0.011
    7  0.010  0.001  0.010  0.021
    8  0.000  0.001  0.010  0.011
    9  0.000  0.003  0.008  0.011
   10  0.000  0.000  0.058  0.058
   11  0.001  0.004  0.018  0.023
   12  0.000  0.000  0.019  0.019
   13  0.000  0.004  0.018  0.023
   14  0.000  0.000  0.011  0.011
   15  0.001  0.004  0.017  0.022
   16  0.000  0.000  0.019  0.019
   17  0.001  0.004  0.017  0.022
   18  0.000  0.000  0.034  0.034
   19  0.000  0.004  0.016  0.021
   20  0.000  0.000  0.071  0.071
   21  0.000  0.000  0.024  0.024
   22  0.001  0.004  0.018  0.023
   23  0.000  0.000  0.024  0.024
   24  0.000  0.000  0.036  0.037
   25  0.000  0.000  0.007  0.007
   26  0.000  0.004  0.016  0.021
   27  0.001  0.004  0.018  0.023
   28  0.000  0.001  0.008  0.009
   29  0.012  0.001  0.008  0.022
   30  0.000  0.001  0.010  0.011
   31  0.012  0.001  0.008  0.022
   32  0.010  0.001  0.008  0.019
   33  0.000  0.001  0.010  0.011
   34  0.010  0.001  0.008  0.019
   35  0.000  0.003  0.008  0.010
   36  0.000  0.000  0.019  0.020
   37  0.000  0.000  0.000  0.000
tot    0.097  0.054  0.647  0.798
 
band    21 # energy   -4.81670483 # occ.  2.00000000
 
ion      s      p      d    tot
    1  0.000  0.000  0.038  0.038
    2  0.002  0.001  0.010  0.013
    3  0.006  0.001  0.010  0.017
    4  0.002  0.001  0.010  0.013
    5  0.000  0.001  0.012  0.013
    6  0.015  0.001  0.010  0.027
    7  0.006  0.001  0.010  0.017
    8  0.015  0.001  0.010  0.027
    9  0.000  0.003  0.008  0.011
   10  0.000  0.000  0.006  0.006
   11  0.000  0.001  0.014  0.015
   12  0.000  0.000  0.045  0.045
   13  0.000  0.002  0.014  0.016
   14  0.001  0.006  0.020  0.027
   15  0.000  0.001  0.029  0.030
   16  0.000  0.000  0.045  0.045
   17  0.000  0.001  0.029  0.030
   18  0.001  0.005  0.011  0.017
   19  0.000  0.002  0.010  0.011
   20  0.000  0.000  0.008  0.008
   21  0.000  0.000  0.055  0.055
   22  0.000  0.001  0.030  0.032
   23  0.000  0.000  0.055  0.055
   24  0.001  0.005  0.013  0.019
   25  0.000  0.006  0.020  0.026
   26  0.000  0.002  0.010  0.011
   27  0.000  0.001  0.030  0.032
   28  0.000  0.001  0.008  0.009
   29  0.003  0.001  0.009  0.012
   30  0.015  0.001  0.007  0.023
   31  0.003  0.001  0.009  0.012
   32  0.005  0.001  0.010  0.016
   33  0.015  0.001  0.007  0.023
   34  0.005  0.001  0.010  0.016
   35  0.000  0.003  0.008  0.011
   36  0.000  0.000  0.019  0.020