 vasp.6.2.0 18Jan21 (build Jun 12 2021 23:27:24) complex                        
  
 executed on             LinuxIFC date 2022.05.27  05:33:03
 running on   16 total cores
 distrk:  each k-point on   16 cores,    1 groups
 distr:  one band on NCORE=   1 cores,   16 groups


--------------------------------------------------------------------------------------------------------


 INCAR:
   ISMEAR = -5
   SIGMA = 0.1
   ISPIN = 1
   EDIFF = 1.d-5
   EDIFFG = -0.01
   NSW = 0
   NELM = 150
   ENCUT = 500
   ISIF = 2
   IBRION = 2
   LREAL = Auto
   ALGO = Fast
   ICHARG = 11
   LORBIT = 10
   LCHARG = .F.
   LWAVE = .F.

 POTCAR:    PAW_PBE Ag 02Apr2005                  
 POTCAR:    PAW_PBE V 08Apr2002                   
 POTCAR:    PAW_PBE H 15Jun2001                   
 -----------------------------------------------------------------------------
|                                                                             |
|           W    W    AA    RRRRR   N    N  II  N    N   GGGG   !!!           |
|           W    W   A  A   R    R  NN   N  II  NN   N  G    G  !!!           |
|           W    W  A    A  R    R  N N  N  II  N N  N  G       !!!           |
|           W WW W  AAAAAA  RRRRR   N  N N  II  N  N N  G  GGG   !            |
|           WW  WW  A    A  R   R   N   NN  II  N   NN  G    G                |
|           W    W  A    A  R    R  N    N  II  N    N   GGGG   !!!           |
|                                                                             |
|     For optimal performance we recommend to set                             |
|       NCORE = 2 up to number-of-cores-per-socket                            |
|     NCORE specifies how many cores store one orbital (NPAR=cpu/NCORE).      |
|     This setting can greatly improve the performance of VASP for DFT.       |
|     The default, NCORE=1 might be grossly inefficient on modern             |
|     multi-core architectures or massively parallel machines. Do your        |
|     own testing! More info at https://www.vasp.at/wiki/index.php/NCORE      |
|     Unfortunately you need to use the default for GW and RPA                |
|     calculations (for HF NCORE is supported but not extensively tested      |
|     yet).                                                                   |
|                                                                             |
 -----------------------------------------------------------------------------

 POTCAR:    PAW_PBE Ag 02Apr2005                  
   VRHFIN =Ag : s1 d10                                                                              
   LEXCH  = PE                                                                                      
   EATOM  =  1037.2675 eV,   76.2370 Ry                                                             
                                                                                                    
   TITEL  = PAW_PBE Ag 02Apr2005                                                                    
   LULTRA =        F    use ultrasoft PP ?                                                          
   IUNSCR =        1    unscreen: 0-lin 1-nonlin 2-no                                               
   RPACOR =    2.000    partial core radius                                                         
   POMASS =  107.868; ZVAL   =   11.000    mass and valenz                                          
   RCORE  =    2.500    outmost cutoff radius                                                       
   RWIGS  =    2.840; RWIGS  =    1.503    wigner-seitz radius (au A)                               
   ENMAX  =  249.844; ENMIN  =  187.383 eV                                                          
   ICORE  =        3    local potential                                                             
   LCOR   =        T    correct aug charges                                                         
   LPAW   =        T    paw PP                                                                      
   EAUG   =  412.496                                                                                
   DEXC   =    0.000                                                                                
   RMAX   =    2.560    core radius for proj-oper                                                   
   RAUG   =    1.300    factor for augmentation sphere                                              
   RDEP   =    2.576    radius for radial grids                                                     
   RDEPT  =    2.072    core radius for aug-charge                                                  
                                                                                                    
   Atomic configuration                                                                             
   12 entries                                                                                       
     n  l   j            E        occ.                                                              
     1  0  0.50    -25324.9161   2.0000                                                             
     2  0  0.50     -3728.5341   2.0000                                                             
     2  1  1.50     -3344.0404   6.0000                                                             
     3  0  0.50      -683.5581   2.0000                                                             
     3  1  1.50      -557.3225   6.0000                                                             
     3  2  2.50      -358.3853  10.0000                                                             
     4  0  0.50       -95.0341   2.0000                                                             
     4  1  1.50       -58.5511   6.0000                                                             
     4  2  2.50        -7.4440  10.0000                                                             
     5  0  0.50        -4.4045   1.0000                                                             
     5  1  0.50        -1.3606   0.0000                                                             
     4  3  2.50        -1.3606   0.0000                                                             
   Description                                                                                      
     l       E           TYP  RCUT    TYP  RCUT                                                     
     2     -7.4439781     23  2.400                                                                 
     2     -8.8045607     23  2.400                                                                 
     0     -4.4044681     23  2.400                                                                 
     0      1.9520038     23  2.400                                                                 
     1     -1.3605826     23  2.500                                                                 
     1     27.2116520     23  2.500                                                                 
     3     -4.0817478     23  2.400                                                                 
  local pseudopotential read in
  partial core-charges read in
  partial kinetic energy density read in
  atomic valenz-charges read in
  non local Contribution for L=           2  read in
    real space projection operators read in
  non local Contribution for L=           2  read in
    real space projection operators read in
  non local Contribution for L=           0  read in
    real space projection operators read in
  non local Contribution for L=           0  read in
    real space projection operators read in
  non local Contribution for L=           1  read in
    real space projection operators read in
  non local Contribution for L=           1  read in
    real space projection operators read in
    PAW grid and wavefunctions read in
 
   number of l-projection  operators is LMAX  =           6
   number of lm-projection operators is LMMAX =          18
 
 POTCAR:    PAW_PBE V 08Apr2002                   
   VRHFIN =V: p6 d4 s1                                                                              
   LEXCH  = PE                                                                                      
   EATOM  =   170.8679 eV,   12.5584 Ry                                                             
                                                                                                    
   TITEL  = PAW_PBE V 08Apr2002                                                                     
   LULTRA =        F    use ultrasoft PP ?                                                          
   IUNSCR =        1    unscreen: 0-lin 1-nonlin 2-no                                               
   RPACOR =    2.000    partial core radius                                                         
   POMASS =   50.941; ZVAL   =    5.000    mass and valenz                                          
   RCORE  =    2.700    outmost cutoff radius                                                       
   RWIGS  =    2.500; RWIGS  =    1.323    wigner-seitz radius (au A)                               
   ENMAX  =  192.543; ENMIN  =  144.408 eV                                                          
   RCLOC  =    1.779    cutoff for local pot                                                        
   LCOR   =        T    correct aug charges                                                         
   LPAW   =        T    paw PP                                                                      
   EAUG   =  358.662                                                                                
   DEXC   =    0.000                                                                                
   RMAX   =    2.768    core radius for proj-oper                                                   
   RAUG   =    1.300    factor for augmentation sphere                                              
   RDEP   =    2.762    radius for radial grids                                                     
   RDEPT  =    2.240    core radius for aug-charge                                                  
                                                                                                    
   Atomic configuration                                                                             
    9 entries                                                                                       
     n  l   j            E        occ.                                                              
     1  0  0.50     -5360.7193   2.0000                                                             
     2  0  0.50      -598.4546   2.0000                                                             
     2  1  1.50      -499.0155   6.0000                                                             
     3  0  0.50       -66.5711   2.0000                                                             
     3  1  1.50       -40.5282   6.0000                                                             
     3  2  2.50        -2.4291   4.0000                                                             
     4  0  0.50        -3.8743   1.0000                                                             
     4  1  0.50        -2.7212   0.0000                                                             
     4  3  2.50        -1.3606   0.0000                                                             
   Description                                                                                      
     l       E           TYP  RCUT    TYP  RCUT                                                     
     2     -2.4290901     23  2.700                                                                 
     2     -3.7896727     23  2.700                                                                 
     0     -3.8742752     23  2.700                                                                 
     0     27.2116520     23  2.700                                                                 
     1     -2.7211652     23  2.700                                                                 
     1     27.2116520     23  2.700                                                                 
  local pseudopotential read in
  partial core-charges read in
  partial kinetic energy density read in
  atomic valenz-charges read in
  non local Contribution for L=           2  read in
    real space projection operators read in
  non local Contribution for L=           2  read in
    real space projection operators read in
  non local Contribution for L=           0  read in
    real space projection operators read in
  non local Contribution for L=           0  read in
    real space projection operators read in
  non local Contribution for L=           1  read in
    real space projection operators read in
  non local Contribution for L=           1  read in
    real space projection operators read in
    PAW grid and wavefunctions read in
 
   number of l-projection  operators is LMAX  =           6
   number of lm-projection operators is LMMAX =          18
 
 POTCAR:    PAW_PBE H 15Jun2001                   
   VRHFIN =H: ultrasoft test                                                                        
   LEXCH  = PE                                                                                      
   EATOM  =    12.4884 eV,    0.9179 Ry                                                             
                                                                                                    
   TITEL  = PAW_PBE H 15Jun2001                                                                     
   LULTRA =        F    use ultrasoft PP ?                                                          
   IUNSCR =        0    unscreen: 0-lin 1-nonlin 2-no                                               
   RPACOR =    0.000    partial core radius                                                         
   POMASS =    1.000; ZVAL   =    1.000    mass and valenz                                          
   RCORE  =    1.100    outmost cutoff radius                                                       
   RWIGS  =    0.700; RWIGS  =    0.370    wigner-seitz radius (au A)                               
   ENMAX  =  250.000; ENMIN  =  200.000 eV                                                          
   RCLOC  =    0.701    cutoff for local pot                                                        
   LCOR   =        T    correct aug charges                                                         
   LPAW   =        T    paw PP                                                                      
   EAUG   =  400.000                                                                                
   RMAX   =    1.123    core radius for proj-oper                                                   
   RAUG   =    1.200    factor for augmentation sphere                                              
   RDEP   =    1.112    radius for radial grids                                                     
   RDEPT  =    0.926    core radius for aug-charge                                                  
                                                                                                    
   Atomic configuration                                                                             
    2 entries                                                                                       
     n  l   j            E        occ.                                                              
     1  0  0.50        -6.4927   1.0000                                                             
     2  1  0.50        -3.4015   0.0000                                                             
   Description                                                                                      
     l       E           TYP  RCUT    TYP  RCUT                                                     
     0     -6.4927494     23  1.100                                                                 
     0      6.8029130     23  1.100                                                                 
     1     -4.0817478     23  1.100                                                                 
  local pseudopotential read in
  atomic valenz-charges read in
  non local Contribution for L=           0  read in
    real space projection operators read in
  non local Contribution for L=           0  read in
    real space projection operators read in
  non local Contribution for L=           1  read in
    real space projection operators read in
    PAW grid and wavefunctions read in
 
   number of l-projection  operators is LMAX  =           3
   number of lm-projection operators is LMMAX =           5
 
 Optimization of the real space projectors (new method)

 maximal supplied QI-value         = 15.12
 optimisation between [QCUT,QGAM] = [ 11.34, 22.83] = [ 36.00,145.93] Ry 
 Optimized for a Real-space Cutoff    1.43 Angstroem

   l    n(q)    QCUT    max X(q) W(low)/X(q) W(high)/X(q)  e(spline) 
   2      9    11.338    53.897    0.16E-03    0.20E-03    0.28E-06
   2      9    11.338    52.416    0.16E-03    0.20E-03    0.29E-06
   0     10    11.338   122.045    0.31E-04    0.76E-04    0.15E-06
   0     10    11.338    73.629    0.30E-04    0.72E-04    0.15E-06
   1      9    11.338    15.255    0.20E-03    0.19E-04    0.17E-06
   1      9    11.338     9.562    0.16E-03    0.15E-04    0.14E-06
 Optimization of the real space projectors (new method)

 maximal supplied QI-value         = 13.98
 optimisation between [QCUT,QGAM] = [ 11.33, 22.79] = [ 35.93,145.49] Ry 
 Optimized for a Real-space Cutoff    1.56 Angstroem

   l    n(q)    QCUT    max X(q) W(low)/X(q) W(high)/X(q)  e(spline) 
   2     10    11.327    96.114    0.36E-03    0.35E-03    0.42E-06
   2     10    11.327    88.986    0.37E-03    0.35E-03    0.42E-06
   0     11    11.327    20.919    0.40E-04    0.56E-04    0.79E-06
   0     11    11.327     9.593    0.30E-04    0.41E-04    0.60E-06
   1     10    11.327    11.615    0.15E-03    0.10E-03    0.19E-06
   1     10    11.327     7.031    0.11E-03    0.73E-04    0.14E-06
 Optimization of the real space projectors (new method)

 maximal supplied QI-value         = 34.20
 optimisation between [QCUT,QGAM] = [ 11.29, 22.57] = [ 35.68,142.71] Ry 
 Optimized for a Real-space Cutoff    1.16 Angstroem

   l    n(q)    QCUT    max X(q) W(low)/X(q) W(high)/X(q)  e(spline) 
   0      8    11.287    19.460    0.40E-03    0.73E-03    0.16E-06
   0      8    11.287    12.209    0.38E-03    0.70E-03    0.15E-06
   1      7    11.287     4.655    0.22E-03    0.25E-04    0.22E-06
  PAW_PBE Ag 02Apr2005                  :
 energy of atom  1       EATOM=-1037.2675
 kinetic energy error for atom=    0.0052 (will be added to EATOM!!)
  PAW_PBE V 08Apr2002                   :
 energy of atom  2       EATOM= -170.8679
 kinetic energy error for atom=    0.0003 (will be added to EATOM!!)
  PAW_PBE H 15Jun2001                   :
 energy of atom  3       EATOM=  -12.4884
 kinetic energy error for atom=    0.0020 (will be added to EATOM!!)
 
 
 POSCAR: Ag-V-H2
  positions in direct lattice
  velocities in cartesian coordinates
 exchange correlation table for  LEXCH =        8
   RHO(1)=    0.500       N(1)  =     2000
   RHO(2)=  100.500       N(2)  =     4000

 VTST: version 3.2, (02/03/18)

 CHAIN: initializing optimizer
 
 OPT: Using VASP Conjugate-Gradient optimizer
 CHAIN: Read ICHAIN            0
 
 POSCAR: Ag-V-H2
  positions in direct lattice
  velocities in cartesian coordinates
 


--------------------------------------------------------------------------------------------------------


 ion  position               nearest neighbor table
   1  0.000  0.000  0.220-   2 2.93   8 2.93   7 2.93   6 2.93   4 2.93  12 2.93  16 2.93  10 2.93
                             3 2.93
   2  0.333  0.000  0.220-   1 2.93   8 2.93   9 2.93   3 2.93   4 2.93   5 2.93  10 2.93  17 2.93
                            11 2.93
   3  0.667  0.000  0.220-   9 2.93   2 2.93   5 2.93  11 2.93   7 2.93  18 2.93   1 2.93   6 2.93
                            12 2.93
   4  0.000  0.333  0.220-   5 2.93   6 2.93   2 2.93   1 2.93   7 2.93  13 2.93  15 2.93   9 2.93
                            10 2.93
   5  0.333  0.333  0.220-   4 2.93   3 2.93   7 2.93   2 2.93   8 2.93  14 2.93  13 2.93  11 2.93
                             6 2.93
   6  0.667  0.333  0.220-   4 2.93   9 2.93   1 2.93  15 2.93   8 2.93  12 2.93   3 2.93   5 2.93
                            14 2.93
   7  0.000  0.667  0.220-   8 2.93   1 2.93   5 2.93   3 2.93   4 2.93  16 2.93  18 2.93  13 2.93
                             9 2.93
   8  0.333  0.667  0.220-   7 2.93   1 2.93   2 2.93   9 2.93   5 2.93  16 2.93   6 2.93  17 2.93
                            14 2.93
   9  0.667  0.667  0.220-   3 2.93   2 2.93   8 2.93   6 2.93  17 2.93   4 2.93  15 2.93   7 2.93
                            18 2.93
  10  0.111  0.111  0.320-  20 2.91  19 2.92  26 2.92  12 2.93  16 2.93  15 2.93  17 2.93  13 2.93
                            11 2.93   2 2.93   1 2.93   4 2.93
  11  0.444  0.111  0.320-  21 2.90  20 2.90  27 2.92  14 2.93  17 2.93  18 2.93   3 2.93  12 2.93
                            13 2.93  10 2.93   5 2.93   2 2.93
  12  0.778  0.111  0.320-  21 2.91  25 2.92  19 2.92  10 2.93  16 2.93  18 2.93  15 2.93  11 2.93
                             1 2.93  14 2.93   6 2.93   3 2.93
  13  0.111  0.444  0.320-  20 2.90  23 2.90  22 2.92  15 2.93  14 2.93  18 2.93  10 2.93  11 2.93
                            16 2.93   4 2.93   5 2.93   7 2.93
  14  0.444  0.444  0.320-  23 2.90  21 2.90  24 2.92  13 2.93  11 2.93  16 2.93   5 2.93  12 2.93
                            17 2.93   8 2.93  15 2.93   6 2.93
  15  0.778  0.444  0.320-  24 2.92  22 2.92  19 2.92  13 2.93  10 2.93  12 2.93  17 2.93  18 2.93
                             4 2.93   6 2.93   9 2.93  14 2.93
  16  0.111  0.778  0.320-  23 2.91  26 2.92  25 2.92  18 2.93  12 2.93  10 2.93  14 2.93  17 2.93
                            13 2.93   7 2.93   8 2.93   1 2.93
  17  0.444  0.778  0.320-  27 2.92  24 2.92  26 2.92  11 2.93  10 2.93   9 2.93  18 2.93  15 2.93
                            16 2.93   2 2.93  14 2.93   8 2.93
  18  0.778  0.778  0.320-  22 2.92  27 2.92  25 2.92  16 2.93  12 2.93  13 2.93  11 2.93  17 2.93
                            15 2.93   7 2.93   3 2.93   9 2.93
  19  0.889  0.222  0.419-  28 2.91  15 2.92  10 2.92  12 2.92  24 2.93  22 2.93  26 2.93  25 2.93
                            20 2.94  21 2.94  32 2.96  31 2.96
  20  0.223  0.223  0.418-  36 2.75  13 2.90  11 2.90  10 2.91  21 2.92  23 2.92  31 2.92  29 2.92
                            27 2.93  22 2.93  19 2.94  26 2.94
  21  0.555  0.223  0.418-  36 2.75  11 2.90  14 2.90  12 2.91  20 2.92  23 2.92  30 2.92  32 2.92
                            27 2.93  24 2.93  25 2.94  19 2.94
  22  0.889  0.556  0.419-  18 2.92  15 2.92  35 2.92  13 2.92  24 2.93  27 2.93  25 2.93  19 2.93
                            23 2.93  20 2.93  33 2.94  31 2.94
  23  0.223  0.555  0.418-  36 2.75  14 2.90  13 2.90  16 2.91  21 2.92  20 2.92  34 2.92  33 2.92
                            22 2.93  24 2.93  26 2.94  25 2.94
  24  0.556  0.556  0.419-  15 2.92  17 2.92  35 2.92  14 2.92  27 2.93  22 2.93  19 2.93  26 2.93
                            23 2.93  21 2.93  32 2.94  34 2.94
  25  0.889  0.889  0.419-  28 2.91  18 2.92  16 2.92  12 2.92  22 2.93  27 2.93  26 2.93  19 2.93
                            23 2.94  21 2.94  33 2.96  30 2.96
  26  0.222  0.889  0.419-  28 2.91  17 2.92  16 2.92  10 2.92  27 2.93  24 2.93  25 2.93  19 2.93
                            23 2.94  20 2.94  34 2.96  29 2.96
  27  0.556  0.889  0.419-  17 2.92  18 2.92  35 2.92  11 2.92  24 2.93  22 2.93  26 2.93  25 2.93
                            20 2.93  21 2.93  29 2.94  30 2.94
  28  0.000  0.000  0.518-  26 2.91  25 2.91  19 2.91  29 2.96  34 2.96  33 2.96  32 2.96  31 2.96
                            30 2.96
  29  0.334  0.006  0.519-  30 2.87  31 2.88  36 2.89  20 2.92  27 2.94  35 2.96  28 2.96  26 2.96
                            34 3.04
  30  0.660  0.006  0.519-  29 2.87  32 2.88  36 2.89  21 2.92  27 2.94  35 2.96  28 2.96  25 2.96
                            33 3.04
  31  0.006  0.334  0.519-  33 2.87  29 2.88  36 2.89  20 2.92  22 2.94  35 2.96  28 2.96  19 2.96
                            32 3.04
  32  0.660  0.334  0.519-  34 2.87  30 2.88  36 2.89  21 2.92  24 2.94  35 2.96  28 2.96  19 2.96
                            31 3.04
  33  0.006  0.660  0.519-  31 2.87  34 2.88  36 2.89  23 2.92  22 2.94  35 2.96  28 2.96  25 2.96
                            30 3.04
  34  0.334  0.660  0.519-  32 2.87  33 2.88  36 2.89  23 2.92  24 2.94  35 2.96  28 2.96  26 2.96
                            29 3.04
  35  0.667  0.667  0.518-  24 2.92  27 2.92  22 2.92  30 2.96  32 2.96  29 2.96  34 2.96  31 2.96
                            33 2.96
  36  0.333  0.333  0.509-  37 1.79  38 1.79  21 2.75  20 2.75  23 2.75  31 2.89  33 2.89  30 2.89
                            29 2.89  34 2.89  32 2.89
  37  0.284  0.334  0.581-  38 0.87  36 1.79
  38  0.382  0.334  0.581-  37 0.87  36 1.79
 
  LATTYP: Found a hexagonal cell.
 ALAT       =     8.7913665772
 C/A-ratio  =     2.7306349153
  
  Lattice vectors:
  
 A1 = (  -4.3956832886,  -7.6135467898,   0.0000000000)
 A2 = (   8.7913665771,   0.0000000000,   0.0000000000)
 A3 = (   0.0000000000,   0.0000000000,  24.0060125285)


Analysis of symmetry for initial positions (statically):
=====================================================================
 Subroutine PRICEL returns:
 Original cell was already a primitive cell.
 

 Routine SETGRP: Setting up the symmetry group for a 
 hexagonal supercell.


 Subroutine GETGRP returns: Found  2 space group operations
 (whereof  2 operations were pure point group operations)
 out of a pool of 24 trial point group operations.


The static configuration has the point symmetry C_1h.


Analysis of symmetry for dynamics (positions and initial velocities):
=====================================================================
 Subroutine PRICEL returns:
 Original cell was already a primitive cell.
 

 Routine SETGRP: Setting up the symmetry group for a 
 hexagonal supercell.


 Subroutine GETGRP returns: Found  2 space group operations
 (whereof  2 operations were pure point group operations)
 out of a pool of 24 trial point group operations.


The dynamic configuration has the point symmetry C_1h.


Analysis of constrained symmetry for selective dynamics:
=====================================================================
 Subroutine PRICEL returns:
 Original cell was already a primitive cell.
 

 Routine SETGRP: Setting up the symmetry group for a 
 hexagonal supercell.


 Subroutine GETGRP returns: Found  2 space group operations
 (whereof  2 operations were pure point group operations)
 out of a pool of 24 trial point group operations.


The constrained configuration has the point symmetry C_1h.


 Subroutine INISYM returns: Found  2 space group operations
 (whereof  2 operations are pure point group operations),
 and found     1 'primitive' translations


----------------------------------------------------------------------------------------

                                     Primitive cell                                     

  volume of cell :    1606.8060

  direct lattice vectors                    reciprocal lattice vectors
     8.791366577  0.000000000  0.000000000     0.113747958 -0.065672414  0.000000000
     4.395683289  7.613546790  0.000000000     0.000000000  0.131344829  0.000000000
     0.000000000  0.000000000 24.006012529     0.000000000  0.000000000  0.041656231

  length of vectors
     8.791366577  8.791366577 24.006012529     0.131344829  0.131344829  0.041656231

  position of ions in fractional coordinates (direct lattice)
     0.000000000  0.000000000  0.220036049
     0.333333313  0.000000000  0.220036049
     0.666666627  0.000000000  0.220036049
     0.000000000  0.333333343  0.220036049
     0.333333313  0.333333343  0.220036049
     0.666666687  0.333333343  0.220036049
     0.000000000  0.666666687  0.220036049
     0.333333313  0.666666687  0.220036049
     0.666666627  0.666666687  0.220036049
     0.111111104  0.111111112  0.319707212
     0.444444448  0.111111112  0.319707212
     0.777777791  0.111111112  0.319707212
     0.111111097  0.444444448  0.319707212
     0.444444418  0.444444448  0.319707212
     0.777777791  0.444444448  0.319707212
     0.111111104  0.777777791  0.319707212
     0.444444448  0.777777791  0.319707212
     0.777777791  0.777777791  0.319707212
     0.888846587  0.222306843  0.418910024
     0.222644538  0.222644553  0.418160659
     0.554710865  0.222644553  0.418160659
     0.888529527  0.555735267  0.418860099
     0.222644553  0.554710925  0.418160659
     0.555735267  0.555735267  0.418860099
     0.888846587  0.888846587  0.418910024
     0.222306813  0.888846587  0.418910024
     0.555735207  0.888529527  0.418860099
     0.000000000  0.000000000  0.517760839
     0.333575864  0.006111985  0.518761260
     0.660312091  0.006111985  0.518761260
     0.006111985  0.333575894  0.518761260
     0.660312151  0.333575894  0.518761260
     0.006111985  0.660312151  0.518761260
     0.333575864  0.660312151  0.518761260
     0.666666627  0.666666687  0.518068632
     0.333333313  0.333333343  0.508901437
     0.283506907  0.334053019  0.581075428
     0.382440043  0.334053019  0.581075428

  ion indices of the primitive-cell ions
   primitive index   ion index
                 1           1
                 2           2
                 3           3
                 4           4
                 5           5
                 6           6
                 7           7
                 8           8
                 9           9
                10          10
                11          11
                12          12
                13          13
                14          14
                15          15
                16          16
                17          17
                18          18
                19          19
                20          20
                21          21
                22          22
                23          23
                24          24
                25          25
                26          26
                27          27
                28          28
                29          29
                30          30
                31          31
                32          32
                33          33
                34          34
                35          35
                36          36
                37          37
                38          38

----------------------------------------------------------------------------------------

 
 
 KPOINTS: Automatic mesh                          

Automatic generation of k-mesh.
 Grid dimensions read from file:
 generate k-points for:    8    8    1

 Generating k-lattice:

  Cartesian coordinates                     Fractional coordinates (reciprocal lattice)
     0.014218495 -0.008209052  0.000000000     0.125000000  0.000000000  0.000000000
     0.000000000  0.016418104  0.000000000     0.000000000  0.125000000  0.000000000
     0.000000000  0.000000000  0.041656231     0.000000000  0.000000000  1.000000000

  Length of vectors
     0.016418104  0.016418104  0.041656231

  Shift w.r.t. Gamma in fractional coordinates (k-lattice)
     0.000000000  0.000000000  0.000000000

 TETIRR: Found    100 inequivalent tetrahedra from      384
 
 Subroutine IBZKPT returns following result:
 ===========================================
 
 Found     21 irreducible k-points:
 
 Following reciprocal coordinates:
            Coordinates               Weight
  0.000000  0.000000  0.000000      1.000000
  0.125000 -0.000000  0.000000      4.000000
  0.000000  0.125000  0.000000      2.000000
  0.250000 -0.000000  0.000000      4.000000
  0.000000  0.250000  0.000000      2.000000
  0.375000 -0.000000  0.000000      4.000000
  0.000000  0.375000  0.000000      2.000000
  0.500000 -0.000000  0.000000      2.000000
  0.000000  0.500000  0.000000      1.000000
  0.250000  0.125000  0.000000      2.000000
  0.125000  0.250000  0.000000      4.000000
  0.375000  0.125000  0.000000      4.000000
  0.250000  0.375000  0.000000      4.000000
 -0.125000  0.250000  0.000000      4.000000
  0.500000  0.125000  0.000000      4.000000
  0.375000  0.500000  0.000000      4.000000
 -0.125000  0.375000  0.000000      4.000000
  0.500000  0.250000  0.000000      2.000000
  0.250000  0.500000  0.000000      4.000000
 -0.375000  0.250000  0.000000      4.000000
 -0.250000  0.375000  0.000000      2.000000
 
 Following cartesian coordinates:
            Coordinates               Weight
  0.000000  0.000000  0.000000      1.000000
  0.014218 -0.008209  0.000000      4.000000
  0.000000  0.016418  0.000000      2.000000
  0.028437 -0.016418  0.000000      4.000000
  0.000000  0.032836  0.000000      2.000000
  0.042655 -0.024627  0.000000      4.000000
  0.000000  0.049254  0.000000      2.000000
  0.056874 -0.032836  0.000000      2.000000
  0.000000  0.065672  0.000000      1.000000
  0.028437 -0.000000  0.000000      2.000000
  0.014218  0.024627  0.000000      4.000000
  0.042655 -0.008209  0.000000      4.000000
  0.028437  0.032836  0.000000      4.000000
 -0.014218  0.041045  0.000000      4.000000
  0.056874 -0.016418  0.000000      4.000000
  0.042655  0.041045  0.000000      4.000000
 -0.014218  0.057463  0.000000      4.000000
  0.056874 -0.000000  0.000000      2.000000
  0.028437  0.049254  0.000000      4.000000
 -0.042655  0.057463  0.000000      4.000000
 -0.028437  0.065672  0.000000      2.000000
 


--------------------------------------------------------------------------------------------------------




 Dimension of arrays:
   k-points           NKPTS =     21   k-points in BZ     NKDIM =     21   number of bands    NBANDS=    240
   number of dos      NEDOS =    301   number of ions     NIONS =     38
   non local maximal  LDIM  =      6   non local SUM 2l+1 LMDIM =     18
   total plane-waves  NPLWV = 322560
   max r-space proj   IRMAX =   3268   max aug-charges    IRDMAX=  12372
   dimension x,y,z NGX =    48 NGY =   48 NGZ =  140
   dimension x,y,z NGXF=    96 NGYF=   96 NGZF=  280
   support grid    NGXF=    96 NGYF=   96 NGZF=  280
   ions per type =              35   1   2
   NGX,Y,Z   is equivalent  to a cutoff of   9.08,  9.08,  9.70 a.u.
   NGXF,Y,Z  is equivalent  to a cutoff of  18.15, 18.15, 19.39 a.u.

 SYSTEM =  unknown system                          
 POSCAR =  Ag-V-H2                                 

 Startparameter for this run:
   NWRITE =      2    write-flag & timer
   PREC   = normal    normal or accurate (medium, high low for compatibility)
   ISTART =      0    job   : 0-new  1-cont  2-samecut
   ICHARG =     11    charge: 1-file 2-atom 10-const
   ISPIN  =      1    spin polarized calculation?
   LNONCOLLINEAR =      F non collinear calculations
   LSORBIT =      F    spin-orbit coupling
   INIWAV =      1    electr: 0-lowe 1-rand  2-diag
   LASPH  =      F    aspherical Exc in radial PAW
   METAGGA=      F    non-selfconsistent MetaGGA calc.

 Electronic Relaxation 1
   ENCUT  =  500.0 eV  36.75 Ry    6.06 a.u.  16.03 16.03 43.77*2*pi/ulx,y,z
   ENINI  =  500.0     initial cutoff
   ENAUG  =  412.5 eV  augmentation charge cutoff
   NELM   =    150;   NELMIN=  2; NELMDL= -5     # of ELM steps 
   EDIFF  = 0.1E-04   stopping-criterion for ELM
   LREAL  =      T    real-space projection
   NLSPLINE    = F    spline interpolate recip. space projectors
   LCOMPAT=      F    compatible to vasp.4.4
   GGA_COMPAT  = T    GGA compatible to vasp.4.4-vasp.4.6
   LMAXPAW     = -100 max onsite density
   LMAXMIX     =    2 max onsite mixed and CHGCAR
   VOSKOWN=      0    Vosko Wilk Nusair interpolation
   ROPT   =   -0.00050  -0.00050  -0.00050
 Ionic relaxation
   EDIFFG = -.1E-01   stopping-criterion for IOM
   NSW    =      0    number of steps for IOM
   NBLOCK =      1;   KBLOCK =      1    inner block; outer block 
   IBRION =     -1    ionic relax: 0-MD 1-quasi-New 2-CG
   NFREE  =      1    steps in history (QN), initial steepest desc. (CG)
   ISIF   =      2    stress and relaxation
   IWAVPR =     10    prediction:  0-non 1-charg 2-wave 3-comb
   ISYM   =      2    0-nonsym 1-usesym 2-fastsym
   LCORR  =      T    Harris-Foulkes like correction to forces

   POTIM  = 0.5000    time-step for ionic-motion
   TEIN   =    0.0    initial temperature
   TEBEG  =    0.0;   TEEND  =   0.0 temperature during run
   SMASS  =  -3.00    Nose mass-parameter (am)
   estimated Nose-frequenzy (Omega)   =  0.10E-29 period in steps = 0.13E+47 mass=  -0.177E-26a.u.
   SCALEE = 1.0000    scale energy and forces
   NPACO  =    256;   APACO  = 16.0  distance and # of slots for P.C.
   PSTRESS=    0.0 pullay stress

  Mass of Ions in am
   POMASS = 107.87 50.94  1.00
  Ionic Valenz
   ZVAL   =  11.00  5.00  1.00
  Atomic Wigner-Seitz radii
   RWIGS  =  -1.00 -1.00 -1.00
  virtual crystal weights 
   VCA    =   1.00  1.00  1.00
   NELECT =     392.0000    total number of electrons
   NUPDOWN=      -1.0000    fix difference up-down

 DOS related values:
   EMIN   =  10.00;   EMAX   =-10.00  energy-range for DOS
   EFERMI =   0.00
   ISMEAR =    -5;   SIGMA  =   0.10  broadening in eV -4-tet -1-fermi 0-gaus

 Electronic relaxation 2 (details)
   IALGO  =     68    algorithm
   LDIAG  =      T    sub-space diagonalisation (order eigenvalues)
   LSUBROT=      F    optimize rotation matrix (better conditioning)
   TURBO    =      0    0=normal 1=particle mesh
   IRESTART =      0    0=no restart 2=restart with 2 vectors
   NREBOOT  =      0    no. of reboots
   NMIN     =      0    reboot dimension
   EREF     =   0.00    reference energy to select bands
   IMIX   =      4    mixing-type and parameters
     AMIX     =   0.40;   BMIX     =  1.00
     AMIX_MAG =   1.60;   BMIX_MAG =  1.00
     AMIN     =   0.10
     WC   =   100.;   INIMIX=   1;  MIXPRE=   1;  MAXMIX= -45

 Intra band minimization:
   WEIMIN = 0.0000     energy-eigenvalue tresh-hold
   EBREAK =  0.10E-07  absolut break condition
   DEPER  =   0.30     relativ break condition  

   TIME   =   0.40     timestep for ELM

  volume/ion in A,a.u.               =      42.28       285.35
  Fermi-wavevector in a.u.,A,eV,Ry     =   1.022937  1.933071 14.237148  1.046401
  Thomas-Fermi vector in A             =   2.156644
 
 Write flags
   LWAVE        =      F    write WAVECAR
   LDOWNSAMPLE  =      F    k-point downsampling of WAVECAR
   LCHARG       =      F    write CHGCAR
   LVTOT        =      F    write LOCPOT, total local potential
   LVHAR        =      F    write LOCPOT, Hartree potential only
   LELF         =      F    write electronic localiz. function (ELF)
   LORBIT       =     10    0 simple, 1 ext, 2 COOP (PROOUT), +10 PAW based schemes


 Dipole corrections
   LMONO  =      F    monopole corrections only (constant potential shift)
   LDIPOL =      F    correct potential (dipole corrections)
   IDIPOL =      0    1-x, 2-y, 3-z, 4-all directions 
   EPSILON=  1.0000000 bulk dielectric constant

 Exchange correlation treatment:
   GGA     =    --    GGA type
   LEXCH   =     8    internal setting for exchange type
   VOSKOWN=      0    Vosko Wilk Nusair interpolation
   LHFCALC =     F    Hartree Fock is set to
   LHFONE  =     F    Hartree Fock one center treatment
   AEXX    =    0.0000 exact exchange contribution

 Linear response parameters
   LEPSILON=     F    determine dielectric tensor
   LRPA    =     F    only Hartree local field effects (RPA)
   LNABLA  =     F    use nabla operator in PAW spheres
   LVEL    =     F    velocity operator in full k-point grid
   LINTERFAST=   F  fast interpolation
   KINTER  =     0    interpolate to denser k-point grid
   CSHIFT  =0.1000    complex shift for real part using Kramers Kronig
   OMEGAMAX=  -1.0    maximum frequency
   DEG_THRESHOLD= 0.2000000E-02 threshold for treating states as degnerate
   RTIME   =   -0.100 relaxation time in fs
  (WPLASMAI=    0.000 imaginary part of plasma frequency in eV, 0.658/RTIME)
   DFIELD  = 0.0000000 0.0000000 0.0000000 field for delta impulse in time
 
 Orbital magnetization related:
   ORBITALMAG=     F  switch on orbital magnetization
   LCHIMAG   =     F  perturbation theory with respect to B field
   DQ        =  0.001000  dq finite difference perturbation B field
   LLRAUG    =     F  two centre corrections for induced B field



--------------------------------------------------------------------------------------------------------


 Static calculation
 charge density and potential remain constant during run
 non-spin polarized calculation
 RMM-DIIS sequential band-by-band and
  variant of blocked Davidson during initial phase
 perform sub-space diagonalisation
    before iterative eigenvector-optimisation
 no mixing
 using additional bands           44
 real space projection scheme for non local part
 use partial core corrections
 calculate Harris-corrections to forces 
   (improved forces if not selfconsistent)
 use gradient corrections 
 WARNING: stress and forces are not correct
  (second derivative of E(xc) not defined)
 use of overlap-Matrix (Vanderbilt PP)
 Fermi weights with tetrahedron method with Bloechl corrections


--------------------------------------------------------------------------------------------------------


  energy-cutoff  :      500.00
  volume of cell :     1606.81
      direct lattice vectors                 reciprocal lattice vectors
     8.791366577  0.000000000  0.000000000     0.113747958 -0.065672414  0.000000000
     4.395683289  7.613546790  0.000000000     0.000000000  0.131344829  0.000000000
     0.000000000  0.000000000 24.006012529     0.000000000  0.000000000  0.041656231

  length of vectors
     8.791366577  8.791366577 24.006012529     0.131344829  0.131344829  0.041656231


 
 k-points in units of 2pi/SCALE and weight: Automatic mesh                          
   0.00000000  0.00000000  0.00000000       0.016
   0.01421849 -0.00820905  0.00000000       0.062
   0.00000000  0.01641810  0.00000000       0.031
   0.02843699 -0.01641810  0.00000000       0.062
   0.00000000  0.03283621  0.00000000       0.031
   0.04265548 -0.02462716  0.00000000       0.062
   0.00000000  0.04925431  0.00000000       0.031
   0.05687398 -0.03283621  0.00000000       0.031
   0.00000000  0.06567241  0.00000000       0.016
   0.02843699 -0.00000000  0.00000000       0.031
   0.01421849  0.02462716  0.00000000       0.062
   0.04265548 -0.00820905  0.00000000       0.062
   0.02843699  0.03283621  0.00000000       0.062
  -0.01421849  0.04104526  0.00000000       0.062
   0.05687398 -0.01641810  0.00000000       0.062
   0.04265548  0.04104526  0.00000000       0.062
  -0.01421849  0.05746336  0.00000000       0.062
   0.05687398 -0.00000000  0.00000000       0.031
   0.02843699  0.04925431  0.00000000       0.062
  -0.04265548  0.05746336  0.00000000       0.062
  -0.02843699  0.06567241  0.00000000       0.031
 
 k-points in reciprocal lattice and weights: Automatic mesh                          
   0.00000000  0.00000000  0.00000000       0.016
   0.12500000 -0.00000000  0.00000000       0.062
   0.00000000  0.12500000  0.00000000       0.031
   0.25000000 -0.00000000  0.00000000       0.062
   0.00000000  0.25000000  0.00000000       0.031
   0.37500000 -0.00000000  0.00000000       0.062
   0.00000000  0.37500000  0.00000000       0.031
   0.50000000 -0.00000000  0.00000000       0.031
   0.00000000  0.50000000  0.00000000       0.016
   0.25000000  0.12500000  0.00000000       0.031
   0.12500000  0.25000000  0.00000000       0.062
   0.37500000  0.12500000  0.00000000       0.062
   0.25000000  0.37500000  0.00000000       0.062
  -0.12500000  0.25000000  0.00000000       0.062
   0.50000000  0.12500000  0.00000000       0.062
   0.37500000  0.50000000  0.00000000       0.062
  -0.12500000  0.37500000  0.00000000       0.062
   0.50000000  0.25000000  0.00000000       0.031
   0.25000000  0.50000000  0.00000000       0.062
  -0.37500000  0.25000000  0.00000000       0.062
  -0.25000000  0.37500000  0.00000000       0.031
 
 position of ions in fractional coordinates (direct lattice) 
   0.00000000  0.00000000  0.22003605
   0.33333331  0.00000000  0.22003605
   0.66666663  0.00000000  0.22003605
   0.00000000  0.33333334  0.22003605
   0.33333331  0.33333334  0.22003605
   0.66666669  0.33333334  0.22003605
   0.00000000  0.66666669  0.22003605
   0.33333331  0.66666669  0.22003605
   0.66666663  0.66666669  0.22003605
   0.11111110  0.11111111  0.31970721
   0.44444445  0.11111111  0.31970721
   0.77777779  0.11111111  0.31970721
   0.11111110  0.44444445  0.31970721
   0.44444442  0.44444445  0.31970721
   0.77777779  0.44444445  0.31970721
   0.11111110  0.77777779  0.31970721
   0.44444445  0.77777779  0.31970721
   0.77777779  0.77777779  0.31970721
   0.88884659  0.22230684  0.41891002
   0.22264454  0.22264455  0.41816066
   0.55471086  0.22264455  0.41816066
   0.88852953  0.55573527  0.41886010
   0.22264455  0.55471092  0.41816066
   0.55573527  0.55573527  0.41886010
   0.88884659  0.88884659  0.41891002
   0.22230681  0.88884659  0.41891002
   0.55573521  0.88852953  0.41886010
   0.00000000  0.00000000  0.51776084
   0.33357586  0.00611199  0.51876126
   0.66031209  0.00611199  0.51876126
   0.00611199  0.33357589  0.51876126
   0.66031215  0.33357589  0.51876126
   0.00611199  0.66031215  0.51876126
   0.33357586  0.66031215  0.51876126
   0.66666663  0.66666669  0.51806863
   0.33333331  0.33333334  0.50890144
   0.28350691  0.33405302  0.58107543
   0.38244004  0.33405302  0.58107543
 
 position of ions in cartesian coordinates  (Angst):
   0.00000000  0.00000000  5.28218814
   2.93045535  0.00000000  5.28218814
   5.86091070  0.00000000  5.28218814
   1.46522781  2.53784900  5.28218814
   4.39568315  2.53784900  5.28218814
   7.32613904  2.53784900  5.28218814
   2.93045562  5.07569801  5.28218814
   5.86091096  5.07569801  5.28218814
   8.79136632  5.07569801  5.28218814
   1.46522770  0.84594965  7.67489535
   4.39568332  0.84594965  7.67489535
   7.32613893  0.84594965  7.67489535
   2.93045542  3.38379860  7.67489535
   5.86091083  3.38379860  7.67489535
   8.79136671  3.38379860  7.67489535
   4.39568328  5.92164760  7.67489535
   7.32613890  5.92164760  7.67489535
  10.25659451  5.92164760  7.67489535
   8.79136665  1.69254355 10.05635928
   2.93602469  1.69511472 10.03837001
   5.85534150  1.69511472 10.03837001
  10.25422501  4.23111646 10.05516078
   4.39568342  4.22331758 10.03837001
   7.32850867  4.23111646 10.05516078
  11.72126426  6.76727508 10.05635928
   5.86146877  6.76727508 10.05635928
   8.79136631  6.76486113 10.05516078
   0.00000000  0.00000000 12.42937320
   2.95945405  0.04653388 12.45338931
   5.83191200  0.04653388 12.45338931
   1.52002668  2.53969567 12.45338931
   7.27134016  2.53969567 12.45338931
   2.95625579  5.02731746 12.45338931
   5.83511079  5.02731746 12.45338931
   8.79136632  5.07569801 12.43676207
   4.39568315  2.53784900 12.21669427
   3.96080442  2.54332829 13.94930400
   4.83056188  2.54332829 13.94930400
 


--------------------------------------------------------------------------------------------------------


 k-point   1 :   0.0000 0.0000 0.0000  plane waves:   40737
 k-point   2 :   0.1250-0.0000 0.0000  plane waves:   40720
 k-point   3 :   0.0000 0.1250 0.0000  plane waves:   40720
 k-point   4 :   0.2500-0.0000 0.0000  plane waves:   40814
 k-point   5 :   0.0000 0.2500 0.0000  plane waves:   40814
 k-point   6 :   0.3750-0.0000 0.0000  plane waves:   40772
 k-point   7 :   0.0000 0.3750 0.0000  plane waves:   40772
 k-point   8 :   0.5000-0.0000 0.0000  plane waves:   40812
 k-point   9 :   0.0000 0.5000 0.0000  plane waves:   40812
 k-point  10 :   0.2500 0.1250 0.0000  plane waves:   40784
 k-point  11 :   0.1250 0.2500 0.0000  plane waves:   40784
 k-point  12 :   0.3750 0.1250 0.0000  plane waves:   40812
 k-point  13 :   0.2500 0.3750 0.0000  plane waves:   40812
 k-point  14 :  -0.1250 0.2500 0.0000  plane waves:   40812
 k-point  15 :   0.5000 0.1250 0.0000  plane waves:   40812
 k-point  16 :   0.3750 0.5000 0.0000  plane waves:   40812
 k-point  17 :  -0.1250 0.3750 0.0000  plane waves:   40812
 k-point  18 :   0.5000 0.2500 0.0000  plane waves:   40796
 k-point  19 :   0.2500 0.5000 0.0000  plane waves:   40796
 k-point  20 :  -0.3750 0.2500 0.0000  plane waves:   40808
 k-point  21 :  -0.2500 0.3750 0.0000  plane waves:   40808

 maximum and minimum number of plane-waves per node :     40814    40720

 maximum number of plane-waves:     40814
 maximum index in each direction: 
   IXMAX=   16   IYMAX=   16   IZMAX=   43
   IXMIN=  -16   IYMIN=  -16   IZMIN=  -43


 serial   3D FFT for wavefunctions
 parallel 3D FFT for charge:
    minimum data exchange during FFTs selected (reduces bandwidth)


 total amount of memory used by VASP MPI-rank0   285717. kBytes
=======================================================================

   base      :      30000. kBytes
   nonlr-proj:      15957. kBytes
   fftplans  :       6755. kBytes
   grid      :      23316. kBytes
   one-center:        590. kBytes
   wavefun   :     209099. kBytes
 
     INWAV:  cpu time    0.0000: real time    0.0000
 initial charge density was supplied:
 number of electron     391.9999928 magnetization 
 keeping initial charge density in first step


--------------------------------------------------------------------------------------------------------


 Maximum index for non-local projection operator         3108
 Maximum index for augmentation-charges          661 (set IRDMAX)


--------------------------------------------------------------------------------------------------------


 First call to EWALD:  gamma=   0.151
 Maximum number of real-space cells 4x 4x 2
 Maximum number of reciprocal cells 2x 2x 5

    FEWALD:  cpu time    0.0014: real time    0.0014


--------------------------------------- Iteration      1(   1)  ---------------------------------------


    POTLOK:  cpu time    0.0661: real time    0.0665
    SETDIJ:  cpu time    0.0060: real time    0.0060
     EDDAV:  cpu time   20.3982: real time   20.3987
 BZINTS: Fermi energy:    9.694365;  392.000000 electrons
         Band energy: 0.113087E+04;  BLOECHL correction:   -0.034473
       DOS:  cpu time    0.0279: real time    0.0280
    --------------------------------------------
      LOOP:  cpu time   20.4983: real time   20.4992

 eigenvalue-minimisations  : 10080
 total energy-change (2. order) : 0.2459985E+04  (-0.1768574E+05)
 number of electron     391.9999928 magnetization 
 augmentation part      391.9999928 magnetization 

 Free energy of the ion-electron system (eV)
  ---------------------------------------------------
  alpha Z        PSCENC =       676.56856197
  Ewald energy   TEWEN  =    123279.35347867
  -Hartree energ DENC   =   -160280.86451839
  -exchange      EXHF   =         0.00000000
  -V(xc)+E(xc)   XCENC  =      -430.17695050
  PAW double counting   =     38580.04157174   -36995.83182638
  entropy T*S    EENTRO =         0.00000000
  eigenvalues    EBANDS =      1130.87327187
  atomic energy  EATOM  =     36500.02131850
  Solvation  Ediel_sol  =         0.00000000
  ---------------------------------------------------
  free energy    TOTEN  =      2459.98490747 eV

  energy without entropy =     2459.98490747  energy(sigma->0) =     2459.98490747


--------------------------------------------------------------------------------------------------------




--------------------------------------- Iteration      1(   2)  ---------------------------------------


     EDDAV:  cpu time   20.8134: real time   20.8135
 BZINTS: Fermi energy:    1.458344;  392.000000 electrons
         Band energy:-0.131700E+04;  BLOECHL correction:   -0.024767
       DOS:  cpu time    0.0257: real time    0.0257
    --------------------------------------------
      LOOP:  cpu time   20.8391: real time   20.8392

 eigenvalue-minimisations  : 10384
 total energy-change (2. order) :-0.2447869E+04  (-0.2322012E+04)
 number of electron     391.9999928 magnetization 
 augmentation part      391.9999928 magnetization 

 Free energy of the ion-electron system (eV)
  ---------------------------------------------------
  alpha Z        PSCENC =       676.56856197
  Ewald energy   TEWEN  =    123279.35347867
  -Hartree energ DENC   =   -160280.86451839
  -exchange      EXHF   =         0.00000000
  -V(xc)+E(xc)   XCENC  =      -430.17695050
  PAW double counting   =     38580.04157174   -36995.83182638
  entropy T*S    EENTRO =         0.00000000
  eigenvalues    EBANDS =     -1316.99562780
  atomic energy  EATOM  =     36500.02131850
  Solvation  Ediel_sol  =         0.00000000
  ---------------------------------------------------
  free energy    TOTEN  =        12.11600779 eV

  energy without entropy =       12.11600779  energy(sigma->0) =       12.11600779


--------------------------------------------------------------------------------------------------------




--------------------------------------- Iteration      1(   3)  ---------------------------------------


     EDDAV:  cpu time   21.9163: real time   21.9163
 BZINTS: Fermi energy:    0.476719;  392.000000 electrons
         Band energy:-0.142907E+04;  BLOECHL correction:   -0.019502
       DOS:  cpu time    0.0271: real time    0.0271
    --------------------------------------------
      LOOP:  cpu time   21.9434: real time   21.9435

 eigenvalue-minimisations  : 11056
 total energy-change (2. order) :-0.1120784E+03  (-0.1076534E+03)
 number of electron     391.9999928 magnetization 
 augmentation part      391.9999928 magnetization 

 Free energy of the ion-electron system (eV)
  ---------------------------------------------------
  alpha Z        PSCENC =       676.56856197
  Ewald energy   TEWEN  =    123279.35347867
  -Hartree energ DENC   =   -160280.86451839
  -exchange      EXHF   =         0.00000000
  -V(xc)+E(xc)   XCENC  =      -430.17695050
  PAW double counting   =     38580.04157174   -36995.83182638
  entropy T*S    EENTRO =         0.00000000
  eigenvalues    EBANDS =     -1429.07403333
  atomic energy  EATOM  =     36500.02131850
  Solvation  Ediel_sol  =         0.00000000
  ---------------------------------------------------
  free energy    TOTEN  =       -99.96239773 eV

  energy without entropy =      -99.96239773  energy(sigma->0) =      -99.96239773


--------------------------------------------------------------------------------------------------------




--------------------------------------- Iteration      1(   4)  ---------------------------------------


     EDDAV:  cpu time   21.9373: real time   21.9373
 BZINTS: Fermi energy:    0.440078;  392.000000 electrons
         Band energy:-0.143170E+04;  BLOECHL correction:   -0.019941
       DOS:  cpu time    0.0280: real time    0.0280
    --------------------------------------------
      LOOP:  cpu time   21.9654: real time   21.9654

 eigenvalue-minimisations  : 11088
 total energy-change (2. order) :-0.2629445E+01  (-0.2614722E+01)
 number of electron     391.9999928 magnetization 
 augmentation part      391.9999928 magnetization 

 Free energy of the ion-electron system (eV)
  ---------------------------------------------------
  alpha Z        PSCENC =       676.56856197
  Ewald energy   TEWEN  =    123279.35347867
  -Hartree energ DENC   =   -160280.86451839
  -exchange      EXHF   =         0.00000000
  -V(xc)+E(xc)   XCENC  =      -430.17695050
  PAW double counting   =     38580.04157174   -36995.83182638
  entropy T*S    EENTRO =         0.00000000
  eigenvalues    EBANDS =     -1431.70347882
  atomic energy  EATOM  =     36500.02131850
  Solvation  Ediel_sol  =         0.00000000
  ---------------------------------------------------
  free energy    TOTEN  =      -102.59184322 eV

  energy without entropy =     -102.59184322  energy(sigma->0) =     -102.59184322


--------------------------------------------------------------------------------------------------------




--------------------------------------- Iteration      1(   5)  ---------------------------------------


     EDDAV:  cpu time   24.1945: real time   24.1946
 BZINTS: Fermi energy:    0.439116;  392.000000 electrons
         Band energy:-0.143179E+04;  BLOECHL correction:   -0.019945
       DOS:  cpu time    0.0281: real time    0.0280
    --------------------------------------------
      LOOP:  cpu time   24.2226: real time   24.2226

 eigenvalue-minimisations  : 12544
 total energy-change (2. order) :-0.8279146E-01  (-0.8277013E-01)
 number of electron     391.9999928 magnetization 
 augmentation part      391.9999928 magnetization 

 Free energy of the ion-electron system (eV)
  ---------------------------------------------------
  alpha Z        PSCENC =       676.56856197
  Ewald energy   TEWEN  =    123279.35347867
  -Hartree energ DENC   =   -160280.86451839
  -exchange      EXHF   =         0.00000000
  -V(xc)+E(xc)   XCENC  =      -430.17695050
  PAW double counting   =     38580.04157174   -36995.83182638
  entropy T*S    EENTRO =         0.00000000
  eigenvalues    EBANDS =     -1431.78627028
  atomic energy  EATOM  =     36500.02131850
  Solvation  Ediel_sol  =         0.00000000
  ---------------------------------------------------
  free energy    TOTEN  =      -102.67463468 eV

  energy without entropy =     -102.67463468  energy(sigma->0) =     -102.67463468


--------------------------------------------------------------------------------------------------------




--------------------------------------- Iteration      1(   6)  ---------------------------------------


    EDDIAG:  cpu time    3.7702: real time    3.7703
  RMM-DIIS:  cpu time   10.8399: real time   10.8399
    ORTHCH:  cpu time    0.8002: real time    0.8002
 BZINTS: Fermi energy:    0.439081;  392.000000 electrons
         Band energy:-0.143179E+04;  BLOECHL correction:   -0.019945
       DOS:  cpu time    0.0256: real time    0.0256
    --------------------------------------------
      LOOP:  cpu time   15.4359: real time   15.4360

 eigenvalue-minimisations  : 10378
 total energy-change (2. order) :-0.2218515E-02  (-0.2218720E-02)
 number of electron     391.9999928 magnetization 
 augmentation part      391.9999928 magnetization 

 Free energy of the ion-electron system (eV)
  ---------------------------------------------------
  alpha Z        PSCENC =       676.56856197
  Ewald energy   TEWEN  =    123279.35347867
  -Hartree energ DENC   =   -160280.86451839
  -exchange      EXHF   =         0.00000000
  -V(xc)+E(xc)   XCENC  =      -430.17695050
  PAW double counting   =     38580.04157174   -36995.83182638
  entropy T*S    EENTRO =         0.00000000
  eigenvalues    EBANDS =     -1431.78848879
  atomic energy  EATOM  =     36500.02131850
  Solvation  Ediel_sol  =         0.00000000
  ---------------------------------------------------
  free energy    TOTEN  =      -102.67685320 eV

  energy without entropy =     -102.67685320  energy(sigma->0) =     -102.67685320


--------------------------------------------------------------------------------------------------------




--------------------------------------- Iteration      1(   7)  ---------------------------------------


    EDDIAG:  cpu time    3.7687: real time    3.7687
  RMM-DIIS:  cpu time   15.2826: real time   15.2826
    ORTHCH:  cpu time    0.7993: real time    0.7993
 BZINTS: Fermi energy:    0.439063;  392.000000 electrons
         Band energy:-0.143179E+04;  BLOECHL correction:   -0.019945
       DOS:  cpu time    0.0268: real time    0.0268
    --------------------------------------------
      LOOP:  cpu time   19.8775: real time   19.8775

 eigenvalue-minimisations  : 15019
 total energy-change (2. order) :-0.1259760E-02  (-0.1201592E-02)
 number of electron     391.9999928 magnetization 
 augmentation part      391.9999928 magnetization 

 Free energy of the ion-electron system (eV)
  ---------------------------------------------------
  alpha Z        PSCENC =       676.56856197
  Ewald energy   TEWEN  =    123279.35347867
  -Hartree energ DENC   =   -160280.86451839
  -exchange      EXHF   =         0.00000000
  -V(xc)+E(xc)   XCENC  =      -430.17695050
  PAW double counting   =     38580.04157174   -36995.83182638
  entropy T*S    EENTRO =         0.00000000
  eigenvalues    EBANDS =     -1431.78974855
  atomic energy  EATOM  =     36500.02131850
  Solvation  Ediel_sol  =         0.00000000
  ---------------------------------------------------
  free energy    TOTEN  =      -102.67811296 eV

  energy without entropy =     -102.67811296  energy(sigma->0) =     -102.67811296


--------------------------------------------------------------------------------------------------------




--------------------------------------- Iteration      1(   8)  ---------------------------------------


    EDDIAG:  cpu time    3.7667: real time    3.7667
  RMM-DIIS:  cpu time   14.5610: real time   14.5610
    ORTHCH:  cpu time    0.7997: real time    0.7997
 BZINTS: Fermi energy:    0.439062;  392.000000 electrons
         Band energy:-0.143179E+04;  BLOECHL correction:   -0.019945
       DOS:  cpu time    0.0280: real time    0.0280
    --------------------------------------------
      LOOP:  cpu time   19.1555: real time   19.1554

 eigenvalue-minimisations  : 13833
 total energy-change (2. order) :-0.1573063E-03  (-0.1569461E-03)
 number of electron     391.9999928 magnetization 
 augmentation part      391.9999928 magnetization 

 Free energy of the ion-electron system (eV)
  ---------------------------------------------------
  alpha Z        PSCENC =       676.56856197
  Ewald energy   TEWEN  =    123279.35347867
  -Hartree energ DENC   =   -160280.86451839
  -exchange      EXHF   =         0.00000000
  -V(xc)+E(xc)   XCENC  =      -430.17695050
  PAW double counting   =     38580.04157174   -36995.83182638
  entropy T*S    EENTRO =         0.00000000
  eigenvalues    EBANDS =     -1431.78990586
  atomic energy  EATOM  =     36500.02131850
  Solvation  Ediel_sol  =         0.00000000
  ---------------------------------------------------
  free energy    TOTEN  =      -102.67827026 eV

  energy without entropy =     -102.67827026  energy(sigma->0) =     -102.67827026


--------------------------------------------------------------------------------------------------------




--------------------------------------- Iteration      1(   9)  ---------------------------------------


    EDDIAG:  cpu time    3.7690: real time    3.7691
  RMM-DIIS:  cpu time   12.4917: real time   12.4916
    ORTHCH:  cpu time    0.7990: real time    0.7990
 BZINTS: Fermi energy:    0.439062;  392.000000 electrons
         Band energy:-0.143179E+04;  BLOECHL correction:   -0.019945
       DOS:  cpu time    0.0280: real time    0.0280
    --------------------------------------------
      LOOP:  cpu time   17.0877: real time   17.0877

 eigenvalue-minimisations  : 11614
 total energy-change (2. order) :-0.2149094E-04  (-0.2135820E-04)
 number of electron     391.9999928 magnetization 
 augmentation part      391.9999928 magnetization 

 Free energy of the ion-electron system (eV)
  ---------------------------------------------------
  alpha Z        PSCENC =       676.56856197
  Ewald energy   TEWEN  =    123279.35347867
  -Hartree energ DENC   =   -160280.86451839
  -exchange      EXHF   =         0.00000000
  -V(xc)+E(xc)   XCENC  =      -430.17695050
  PAW double counting   =     38580.04157174   -36995.83182638
  entropy T*S    EENTRO =         0.00000000
  eigenvalues    EBANDS =     -1431.78992735
  atomic energy  EATOM  =     36500.02131850
  Solvation  Ediel_sol  =         0.00000000
  ---------------------------------------------------
  free energy    TOTEN  =      -102.67829175 eV

  energy without entropy =     -102.67829175  energy(sigma->0) =     -102.67829175


--------------------------------------------------------------------------------------------------------




--------------------------------------- Iteration      1(  10)  ---------------------------------------


    EDDIAG:  cpu time    3.7677: real time    3.7677
  RMM-DIIS:  cpu time    8.5831: real time    8.5831
    ORTHCH:  cpu time    0.8000: real time    0.8000
 BZINTS: Fermi energy:    0.439062;  392.000000 electrons
         Band energy:-0.143179E+04;  BLOECHL correction:   -0.019945
       DOS:  cpu time    0.0268: real time    0.0268
    --------------------------------------------
      LOOP:  cpu time   13.1775: real time   13.1775

 eigenvalue-minimisations  :  7251
 total energy-change (2. order) :-0.2952293E-05  (-0.2882719E-05)
 number of electron     391.9999928 magnetization 
 augmentation part      391.9999928 magnetization 

 Free energy of the ion-electron system (eV)
  ---------------------------------------------------
  alpha Z        PSCENC =       676.56856197
  Ewald energy   TEWEN  =    123279.35347867
  -Hartree energ DENC   =   -160280.86451839
  -exchange      EXHF   =         0.00000000
  -V(xc)+E(xc)   XCENC  =      -430.17695050
  PAW double counting   =     38580.04157174   -36995.83182638
  entropy T*S    EENTRO =         0.00000000
  eigenvalues    EBANDS =     -1431.78993030
  atomic energy  EATOM  =     36500.02131850
  Solvation  Ediel_sol  =         0.00000000
  ---------------------------------------------------
  free energy    TOTEN  =      -102.67829471 eV

  energy without entropy =     -102.67829471  energy(sigma->0) =     -102.67829471


--------------------------------------------------------------------------------------------------------




 average (electrostatic) potential at core
  the test charge radii are     1.1249  1.2064  0.5201
  (the norm of the test charge is              1.0000)
       1 -78.4610       2 -78.4477       3 -78.4477       4 -78.4509       5 -78.4377
       6 -78.4507       7 -78.4496       8 -78.4494       9 -78.4591      10 -78.6949
      11 -78.6730      12 -78.6947      13 -78.6736      14 -78.6733      15 -78.6787
      16 -78.6956      17 -78.6752      18 -78.6752      19 -78.6766      20 -78.8208
      21 -78.8206      22 -78.6589      23 -78.8185      24 -78.6589      25 -78.6742
      26 -78.6744      27 -78.6474      28 -78.4665      29 -78.4645      30 -78.4644
      31 -78.4651      32 -78.4650      33 -78.4753      34 -78.4752      35 -78.4431
      36 -45.7878      37 -37.5893      38 -37.5892
 
 
 
 E-fermi :   0.4391     XC(G=0):  -5.4847     alpha+bet : -5.1618

 Fermi energy:         0.4390620710

 k-point     1 :       0.0000    0.0000    0.0000
  band No.  band energies     occupation 
      1      -7.3099      2.00000
      2      -6.6446      2.00000
      3      -5.7961      2.00000
      4      -5.5166      2.00000
      5      -5.4260      2.00000
      6      -5.4146      2.00000
      7      -5.4145      2.00000
      8      -5.4096      2.00000
      9      -5.4088      2.00000
     10      -5.4073      2.00000
     11      -5.3883      2.00000
     12      -5.3697      2.00000
     13      -5.3696      2.00000
     14      -5.3655      2.00000
     15      -5.3566      2.00000
     16      -5.3564      2.00000
     17      -5.3093      2.00000
     18      -5.2139      2.00000
     19      -5.2086      2.00000
     20      -5.2077      2.00000
     21      -5.1991      2.00000
     22      -5.1907      2.00000
     23      -5.1904      2.00000
     24      -5.0240      2.00000
     25      -5.0092      2.00000
     26      -5.0089      2.00000
     27      -4.9952      2.00000
     28      -4.9866      2.00000
     29      -4.9770      2.00000
     30      -4.9765      2.00000
     31      -4.9760      2.00000
     32      -4.9565      2.00000
     33      -4.9564      2.00000
     34      -4.9475      2.00000
     35      -4.9475      2.00000
     36      -4.8719      2.00000
     37      -4.8534      2.00000
     38      -4.8531      2.00000
     39      -4.7988      2.00000
     40      -4.7390      2.00000
     41      -4.7383      2.00000
     42      -4.6269      2.00000
     43      -4.6265      2.00000
     44      -4.6116      2.00000
     45      -4.6109      2.00000
     46      -4.6102      2.00000
     47      -4.5956      2.00000
     48      -4.5942      2.00000
     49      -4.5885      2.00000
     50      -4.5660      2.00000
     51      -4.5648      2.00000
     52      -4.4596      2.00000
     53      -4.4554      2.00000
     54      -4.4373      2.00000
     55      -4.4260      2.00000
     56      -4.2411      2.00000
     57      -4.2343      2.00000
     58      -4.2343      2.00000
     59      -4.2235      2.00000
     60      -4.2229      2.00000
     61      -4.2207      2.00000
     62      -4.1999      2.00000
     63      -4.1951      2.00000
     64      -4.1950      2.00000
     65      -4.1641      2.00000
     66      -4.1640      2.00000
     67      -4.0723      2.00000
     68      -4.0719      2.00000
     69      -4.0591      2.00000
     70      -4.0559      2.00000
     71      -4.0557      2.00000
     72      -4.0469      2.00000
     73      -4.0451      2.00000
     74      -4.0445      2.00000
     75      -4.0260      2.00000
     76      -4.0257      2.00000
     77      -4.0146      2.00000
     78      -3.9887      2.00000
     79      -3.9860      2.00000
     80      -3.9856      2.00000
     81      -3.9718      2.00000
     82      -3.9710      2.00000
     83      -3.9599      2.00000
     84      -3.9065      2.00000
     85      -3.9062      2.00000
     86      -3.8459      2.00000
     87      -3.8456      2.00000
     88      -3.8408      2.00000
     89      -3.8332      2.00000
     90      -3.8323      2.00000
     91      -3.8121      2.00000
     92      -3.8115      2.00000
     93      -3.7553      2.00000
     94      -3.7551      2.00000
     95      -3.7426      2.00000
     96      -3.7412      2.00000
     97      -3.7357      2.00000
     98      -3.7234      2.00000
     99      -3.7172      2.00000
    100      -3.5265      2.00000
    101      -3.5134      2.00000
    102      -3.5125      2.00000
    103      -3.5045      2.00000
    104      -3.5045      2.00000
    105      -3.4801      2.00000
    106      -3.4786      2.00000
    107      -3.4778      2.00000
    108      -3.4551      2.00000
    109      -3.4350      2.00000
    110      -3.4341      2.00000
    111      -3.3939      2.00000
    112      -3.3861      2.00000
    113      -3.3417      2.00000
    114      -3.3375      2.00000
    115      -3.3010      2.00000
    116      -3.2586      2.00000
    117      -3.2576      2.00000
    118      -3.2217      2.00000
    119      -3.2213      2.00000
    120      -3.2072      2.00000
    121      -3.2063      2.00000
    122      -3.1740      2.00000
    123      -3.1668      2.00000
    124      -3.1557      2.00000
    125      -3.1405      2.00000
    126      -3.1402      2.00000
    127      -3.1295      2.00000
    128      -3.1248      2.00000
    129      -3.1246      2.00000
    130      -3.1150      2.00000
    131      -3.1136      2.00000
    132      -3.1093      2.00000
    133      -3.1081      2.00000
    134      -3.0152      2.00000
    135      -3.0134      2.00000
    136      -2.9421      2.00000
    137      -2.9408      2.00000
    138      -2.9380      2.00000
    139      -2.9264      2.00000
    140      -2.9216      2.00000
    141      -2.9215      2.00000
    142      -2.9090      2.00000
    143      -2.9082      2.00000
    144      -2.8937      2.00000
    145      -2.8918      2.00000
    146      -2.8849      2.00000
    147      -2.8837      2.00000
    148      -2.8498      2.00000
    149      -2.8323      2.00000
    150      -2.8207      2.00000
    151      -2.8165      2.00000
    152      -2.8164      2.00000
    153      -2.8125      2.00000
    154      -2.8100      2.00000
    155      -2.7790      2.00000
    156      -2.7783      2.00000
    157      -2.7655      2.00000
    158      -2.7480      2.00000
    159      -2.7380      2.00000
    160      -2.7378      2.00000
    161      -2.7331      2.00000
    162      -2.7229      2.00000
    163      -2.7149      2.00000
    164      -2.7112      2.00000
    165      -2.7110      2.00000
    166      -2.6971      2.00000
    167      -2.6791      2.00000
    168      -2.6784      2.00000
    169      -2.6603      2.00000
    170      -2.6540      2.00000
    171      -2.6539      2.00000
    172      -2.6218      2.00000
    173      -2.6215      2.00000
    174      -2.5540      2.00000
    175      -2.5537      2.00000
    176      -2.5375      2.00000
    177      -2.5269      2.00000
    178      -2.5256      2.00000
    179      -2.5094      2.00000
    180      -2.4402      2.00000
    181      -2.4378      2.00000
    182      -2.4300      2.00000
    183      -2.4207      2.00000
    184      -2.4206      2.00000
    185      -2.3732      2.00000
    186      -1.7159      2.00000
    187      -1.6917      2.00000
    188      -1.6623      2.00000
    189      -1.6576      2.00000
    190      -1.6413      2.00000
    191      -1.4289      2.00000
    192      -0.3769      2.00000
    193      -0.3107      2.00000
    194      -0.0818      2.00000
    195      -0.0449      2.00000
    196       0.0272      2.00000
    197       0.0275      2.00000
    198       0.1019      2.85398
    199       0.4806      0.00000
    200       0.5876      0.00000
    201       0.6982      0.00000
    202       0.7086      0.00000
    203       0.8342      0.00000
    204       1.5805      0.00000
    205       2.3034      0.00000
    206       2.3306      0.00000
    207       2.3319      0.00000
    208       2.5242      0.00000
    209       2.5264      0.00000
    210       3.6054      0.00000
    211       3.6805      0.00000
    212       3.7573      0.00000
    213       3.7782      0.00000
    214       3.8531      0.00000
    215       3.8908      0.00000
    216       3.8939      0.00000
    217       4.4181      0.00000
    218       4.4528      0.00000
    219       4.6227      0.00000
    220       4.6437      0.00000
    221       4.6629      0.00000
    222       4.6684      0.00000
    223       4.6702      0.00000
    224       4.6833      0.00000
    225       4.6834      0.00000
    226       4.7685      0.00000
    227       4.7759      0.00000
    228       4.9538      0.00000
    229       5.0728      0.00000
    230       5.4400      0.00000
    231       5.6595      0.00000
    232       5.9635      0.00000
    233       6.0181      0.00000
    234       6.2580      0.00000
    235       6.2833      0.00000
    236       6.3029      0.00000
    237       6.4527      0.00000
    238       6.4788      0.00000
    239       6.5484      0.00000
    240       6.5879      0.00000

 k-point     2 :       0.1250   -0.0000    0.0000
  band No.  band energies     occupation 
      1      -7.3047      2.00000
      2      -6.6021      2.00000
      3      -5.7578      2.00000
      4      -5.4841      2.00000
      5      -5.4747      2.00000
      6      -5.4397      2.00000
      7      -5.4140      2.00000
      8      -5.4121      2.00000
      9      -5.4065      2.00000
     10      -5.3916      2.00000
     11      -5.3862      2.00000
     12      -5.3721      2.00000
     13      -5.3656      2.00000
     14      -5.3094      2.00000
     15      -5.3033      2.00000
     16      -5.2952      2.00000
     17      -5.2858      2.00000
     18      -5.2726      2.00000
     19      -5.2489      2.00000
     20      -5.2474      2.00000
     21      -5.1429      2.00000
     22      -5.1364      2.00000
     23      -5.0911      2.00000
     24      -5.0767      2.00000
     25      -5.0715      2.00000
     26      -5.0648      2.00000
     27      -5.0186      2.00000
     28      -5.0100      2.00000
     29      -4.9733      2.00000
     30      -4.9697      2.00000
     31      -4.9436      2.00000
     32      -4.9314      2.00000
     33      -4.9264      2.00000
     34      -4.8841      2.00000
     35      -4.8677      2.00000
     36      -4.8662      2.00000
     37      -4.8492      2.00000
     38      -4.8350      2.00000
     39      -4.7501      2.00000
     40      -4.7153      2.00000
     41      -4.7122      2.00000
     42      -4.6873      2.00000
     43      -4.6824      2.00000
     44      -4.6698      2.00000
     45      -4.6427      2.00000
     46      -4.6330      2.00000
     47      -4.6239      2.00000
     48      -4.6198      2.00000
     49      -4.5628      2.00000
     50      -4.5502      2.00000
     51      -4.5195      2.00000
     52      -4.4494      2.00000
     53      -4.4395      2.00000
     54      -4.4213      2.00000
     55      -4.4138      2.00000
     56      -4.2640      2.00000
     57      -4.2520      2.00000
     58      -4.2502      2.00000
     59      -4.2384      2.00000
     60      -4.2211      2.00000
     61      -4.2206      2.00000
     62      -4.2118      2.00000
     63      -4.2055      2.00000
     64      -4.1892      2.00000
     65      -4.1837      2.00000
     66      -4.1468      2.00000
     67      -4.1196      2.00000
     68      -4.0886      2.00000
     69      -4.0867      2.00000
     70      -4.0830      2.00000
     71      -4.0800      2.00000
     72      -4.0474      2.00000
     73      -4.0465      2.00000
     74      -4.0405      2.00000
     75      -4.0356      2.00000
     76      -4.0138      2.00000
     77      -4.0131      2.00000
     78      -3.9970      2.00000
     79      -3.9916      2.00000
     80      -3.9856      2.00000
     81      -3.9591      2.00000
     82      -3.9542      2.00000
     83      -3.9449      2.00000
     84      -3.9377      2.00000
     85      -3.9205      2.00000
     86      -3.9126      2.00000
[...]
  0.000   0.000   0.000   0.000   0.000   0.000   0.000   0.000   0.000   0.000   0.000   0.000   0.000   0.000   0.000   0.000
  0.000   0.000   0.000   0.000   0.000   0.000   0.000   0.000   0.000   0.000   0.000   0.000   0.000   0.000   0.000   0.000
  0.000   0.000   0.000   0.000   0.000   0.000   0.000   0.000   0.000   0.000   1.000   0.000   0.000   0.000   0.000   0.000
  0.000   0.000   0.000   0.000   0.000   0.000   0.000   0.000   0.000   0.000   0.000   0.000   0.000   0.000   0.000   0.000
  0.000   0.000   0.000   0.000   0.000   0.000   0.000   0.000   0.000   0.000   0.000   0.000   0.000   0.000   0.000   0.000
  0.000   0.000   0.000   0.000   0.000   0.000   0.000   0.000   0.000   0.000   0.000   0.000   0.000   0.000   0.000   0.000
  0.000   0.000   0.000   0.000   0.000   0.000   0.000   0.000   0.000   0.000   0.000   0.000   0.000   0.000   0.000   0.000
  0.000   0.000   0.000   0.000   0.000   0.000   0.000   0.000   0.000   0.000   0.000   0.000   0.000   0.000   0.000   0.000
  0.000   0.000   0.000   0.000   0.000   0.000   0.000   0.000   0.000   0.000   0.000   0.000   0.000   0.000   0.000   0.000
  0.000   0.000   0.000   0.000   0.000   0.000   0.000   0.000   0.000   0.000   0.000   0.000   0.000   0.000   0.000   0.000


------------------------ aborting loop because EDIFF is reached ----------------------------------------





 total charge

# of ion       s       p       d       tot
------------------------------------------
    1        0.419   0.201   9.178   9.798
    2        0.415   0.204   9.177   9.796
    3        0.415   0.204   9.177   9.796
    4        0.415   0.203   9.178   9.796
    5        0.422   0.202   9.175   9.798
    6        0.415   0.203   9.178   9.796
    7        0.414   0.204   9.178   9.795
    8        0.414   0.204   9.178   9.795
    9        0.416   0.201   9.179   9.796
   10        0.409   0.269   9.162   9.839
   11        0.409   0.266   9.168   9.843
   12        0.409   0.269   9.162   9.839
   13        0.407   0.267   9.169   9.842
   14        0.407   0.267   9.169   9.842
   15        0.403   0.269   9.163   9.836
   16        0.410   0.269   9.161   9.840
   17        0.404   0.269   9.164   9.837
   18        0.404   0.269   9.164   9.837
   19        0.402   0.266   9.165   9.833
   20        0.436   0.297   9.137   9.870
   21        0.436   0.297   9.137   9.870
   22        0.395   0.275   9.165   9.835
   23        0.440   0.295   9.139   9.874
   24        0.395   0.275   9.165   9.835
   25        0.404   0.265   9.166   9.835
   26        0.404   0.265   9.166   9.835
   27        0.397   0.273   9.167   9.837
   28        0.408   0.198   9.177   9.783
   29        0.436   0.211   9.160   9.807
   30        0.436   0.211   9.160   9.807
   31        0.432   0.213   9.159   9.803
   32        0.432   0.213   9.159   9.803
   33        0.435   0.210   9.161   9.807
   34        0.435   0.210   9.161   9.807
   35        0.408   0.199   9.179   9.785
   36        0.409   0.466   3.366   4.242
   37        0.551   0.029   0.000   0.580
   38        0.551   0.029   0.000   0.580
--------------------------------------------------
tot         16.050   8.936 324.166 349.151
 
    CHARGE:  cpu time    0.8943: real time    0.8944
    FORLOC:  cpu time    0.0197: real time    0.0197
    FORNL :  cpu time    4.1238: real time    4.1239
    STRESS:  cpu time   12.5054: real time   12.5055
    FORCOR:  cpu time    0.0702: real time    0.0703
    FORHAR:  cpu time    0.0300: real time    0.0301
    OFIELD:  cpu time    0.0004: real time    0.0004

  FORCE on cell =-STRESS in cart. coord.  units (eV):
  Direction    XX          YY          ZZ          XY          YZ          ZX
  --------------------------------------------------------------------------------------
  Alpha Z   676.56856   676.56856   676.56856
  Ewald  145698.61923145680.84935************    -0.00001    -0.02343    -0.00001
  Hartree155513.42994155510.40111************    -0.00000     0.06429    -0.00000
  E(xc)   -2055.70733 -2055.75839 -2062.64015    -0.00002     0.09011     0.00000
  Local  ************************312461.50545     0.00032     0.30371    -0.00004
  n-local  -322.59336  -321.36796  -325.01982     2.31896     0.00747     0.09322
  augment  3238.89925  3238.13180  3253.10213    -0.00014    -0.19703     0.00005
  Kinetic  4811.43317  4815.28782  4848.31286     1.08137    -0.33880     0.04048
  Fock        0.00000     0.00000     0.00000     0.00000     0.00000     0.00000
  -------------------------------------------------------------------------------------
  Total      -9.42801    -9.29316     0.09425    -0.00000    -0.09368    -0.00000
  in kB      -9.40085    -9.26639     0.09397    -0.00000    -0.09341    -0.00000
  external pressure =       -6.19 kB  Pullay stress =        0.00 kB


 VOLUME and BASIS-vectors are now :
 -----------------------------------------------------------------------------
  energy-cutoff  :      500.00
  volume of cell :     1606.81
      direct lattice vectors                 reciprocal lattice vectors
     8.791366577  0.000000000  0.000000000     0.113747958 -0.065672414  0.000000000
     4.395683289  7.613546790  0.000000000     0.000000000  0.131344829  0.000000000
     0.000000000  0.000000000 24.006012529     0.000000000  0.000000000  0.041656231

  length of vectors
     8.791366577  8.791366577 24.006012529     0.131344829  0.131344829  0.041656231


 FORCES acting on ions
    electron-ion (+dipol)            ewald-force                    non-local-force                 convergence-correction
 -----------------------------------------------------------------------------------------------
   0.460E-04 0.422E-01 0.262E+04   -.953E-04 -.172E-02 -.262E+04   -.106E-12 -.162E-01 -.193E+01   -.141E-03 -.268E-01 0.127E+00
   -.145E+00 -.437E-01 0.262E+04   0.111E-01 0.705E-01 -.262E+04   0.135E+00 0.123E+00 -.155E+01   -.627E-04 -.142E+00 0.228E+00
   0.145E+00 -.437E-01 0.262E+04   -.109E-01 0.706E-01 -.262E+04   -.135E+00 0.123E+00 -.155E+01   -.449E-03 -.140E+00 0.229E+00
   -.103E+00 -.866E-01 0.262E+04   0.680E-01 -.269E-01 -.262E+04   0.145E+00 0.112E-02 -.160E+01   -.101E+00 0.104E+00 0.250E+00
   -.761E-05 -.161E+00 0.262E+04   0.981E-04 -.317E-03 -.262E+04   0.291E-12 0.443E-01 -.109E+01   0.622E-02 0.111E+00 0.440E+00
   0.103E+00 -.865E-01 0.262E+04   -.682E-01 -.269E-01 -.262E+04   -.145E+00 0.112E-02 -.160E+01   0.993E-01 0.105E+00 0.251E+00
   -.716E-01 0.189E+00 0.262E+04   0.570E-01 -.436E-01 -.262E+04   0.984E-01 -.153E+00 -.159E+01   -.825E-01 0.948E-02 0.148E+00
   0.716E-01 0.189E+00 0.262E+04   -.571E-01 -.437E-01 -.262E+04   -.984E-01 -.153E+00 -.159E+01   0.841E-01 0.848E-02 0.148E+00
   0.365E-04 0.357E-01 0.262E+04   0.791E-04 0.202E-02 -.262E+04   0.131E-13 0.199E-02 -.176E+01   -.661E-02 -.380E-01 0.158E+00
   0.232E+00 0.885E-01 0.851E+03   0.426E-01 0.880E-02 -.850E+03   -.293E+00 -.169E+00 -.762E+00   0.716E-02 0.664E-01 0.114E+00
   -.286E-04 -.335E+00 0.849E+03   0.408E-04 0.279E+00 -.849E+03   0.554E-12 0.843E-01 -.229E+00   0.653E-02 -.629E-01 0.768E-01
   -.232E+00 0.885E-01 0.851E+03   -.427E-01 0.888E-02 -.850E+03   0.293E+00 -.169E+00 -.762E+00   -.877E-02 0.671E-01 0.114E+00
   -.298E+00 0.242E+00 0.849E+03   0.256E+00 -.138E+00 -.849E+03   0.139E+00 -.762E-01 -.263E+00   -.114E+00 -.244E-02 0.329E-01
   0.298E+00 0.242E+00 0.849E+03   -.256E+00 -.138E+00 -.849E+03   -.139E+00 -.762E-01 -.263E+00   0.125E+00 -.365E-02 0.314E-01
   0.159E-04 0.663E+00 0.852E+03   -.108E-03 -.751E+00 -.851E+03   0.312E-12 0.475E-01 -.774E+00   -.147E-02 0.158E-01 0.756E-01
   -.786E-05 -.385E+00 0.851E+03   0.206E-04 -.429E-01 -.850E+03   0.267E-11 0.407E+00 -.659E+00   -.197E-03 0.360E-01 0.556E-01
   0.479E+00 -.302E+00 0.852E+03   -.658E+00 0.387E+00 -.851E+03   0.812E-01 -.282E-01 -.717E+00   0.747E-01 -.531E-01 0.674E-01
   -.479E+00 -.302E+00 0.852E+03   0.658E+00 0.388E+00 -.851E+03   -.812E-01 -.282E-01 -.717E+00   -.743E-01 -.512E-01 0.689E-01
   0.385E-04 -.413E+01 -.934E+03   -.125E-03 0.411E+01 0.933E+03   0.340E-12 0.518E-01 0.773E+00   -.498E-02 -.229E-01 0.161E-01
   -.203E+02 -.118E+02 -.952E+03   0.220E+02 0.126E+02 0.953E+03   -.125E+01 -.614E+00 -.104E+01   -.405E+00 -.166E+00 -.240E+00
   0.203E+02 -.118E+02 -.952E+03   -.220E+02 0.126E+02 0.953E+03   0.125E+01 -.614E+00 -.104E+01   0.395E+00 -.167E+00 -.241E+00
   -.108E+02 0.626E+01 -.931E+03   0.108E+02 -.611E+01 0.931E+03   0.218E+00 -.147E+00 0.363E+00   -.167E+00 -.175E-02 -.124E+00
   -.527E-04 0.234E+02 -.951E+03   0.371E-04 -.252E+02 0.953E+03   0.970E-11 0.148E+01 -.105E+01   -.544E-02 0.363E+00 -.426E+00
   0.108E+02 0.626E+01 -.931E+03   -.108E+02 -.612E+01 0.931E+03   -.218E+00 -.147E+00 0.363E+00   0.169E+00 -.263E-02 -.124E+00
   0.370E+01 0.204E+01 -.934E+03   -.362E+01 -.212E+01 0.933E+03   -.853E-01 -.230E-01 0.779E+00   -.125E-01 0.997E-01 -.268E-01
   -.370E+01 0.204E+01 -.934E+03   0.362E+01 -.212E+01 0.933E+03   0.853E-01 -.230E-01 0.779E+00   0.182E-02 0.100E+00 -.264E-01
   0.191E-04 -.125E+02 -.932E+03   0.110E-03 0.124E+02 0.931E+03   0.173E-11 0.264E+00 0.364E+00   0.110E-02 -.144E+00 -.182E+00
   0.536E-04 0.171E+00 -.264E+04   -.113E-03 -.333E+00 0.263E+04   0.272E-12 0.413E-01 0.196E+01   -.476E-05 0.103E+00 -.142E+00
   -.140E+02 -.284E+02 -.264E+04   0.152E+02 0.299E+02 0.264E+04   -.995E+00 -.141E+01 0.126E+01   -.224E+00 -.680E-01 -.129E+00
   0.140E+02 -.284E+02 -.264E+04   -.152E+02 0.299E+02 0.264E+04   0.995E+00 -.141E+01 0.126E+01   0.224E+00 -.673E-01 -.130E+00
   -.306E+02 0.249E+01 -.264E+04   0.324E+02 -.243E+01 0.264E+04   -.174E+01 -.412E-01 0.138E+01   -.396E-01 -.732E-02 -.490E-01
   0.306E+02 0.249E+01 -.264E+04   -.324E+02 -.243E+01 0.264E+04   0.174E+01 -.412E-01 0.138E+01   0.397E-01 -.678E-02 -.490E-01
   -.183E+02 0.259E+02 -.264E+04   0.192E+02 -.274E+02 0.264E+04   -.831E+00 0.146E+01 0.133E+01   -.153E+00 0.659E-01 -.666E-03
   0.183E+02 0.259E+02 -.264E+04   -.192E+02 -.274E+02 0.264E+04   0.831E+00 0.146E+01 0.133E+01   0.154E+00 0.657E-01 0.121E-03
   0.261E-04 -.246E+00 -.264E+04   0.104E-03 0.379E+00 0.264E+04   0.482E-13 0.734E-02 0.207E+01   -.612E-02 -.117E+00 -.122E+00
   -.284E-04 0.887E-01 -.112E+04   0.479E-04 -.133E+00 0.112E+04   -.328E-12 -.500E-01 0.359E-02   0.668E-03 -.567E-02 0.667E-01
   0.135E+02 0.116E-01 -.282E+03   -.168E+02 -.268E-01 0.283E+03   0.330E+01 0.232E-03 -.108E+01   -.306E-01 0.154E-01 0.273E-01
   -.135E+02 0.116E-01 -.282E+03   0.168E+02 -.268E-01 0.283E+03   -.330E+01 0.232E-03 -.108E+01   0.307E-01 0.154E-01 0.272E-01
 -----------------------------------------------------------------------------------------------
   0.300E-03 -.252E+00 0.848E+01   0.675E-13 0.398E-14 0.193E-11   0.128E-11 0.194E+00 -.928E+01   -.189E-01 0.546E-01 0.742E+00
 
 
 POSITION                                       TOTAL-FORCE (eV/Angst)
 -----------------------------------------------------------------------------------
      0.00000      0.00000      5.28219        -0.000000     -0.002417     -0.031178
      2.93046      0.00000      5.28219         0.000707      0.008571      0.025848
      5.86091      0.00000      5.28219        -0.000707      0.008571      0.025848
      1.46523      2.53785      5.28219         0.010020     -0.007645      0.017735
      4.39568      2.53785      5.28219        -0.000000     -0.006698     -0.017377
      7.32614      2.53785      5.28219        -0.010020     -0.007645      0.017735
      2.93046      5.07570      5.28219         0.000554      0.000746      0.033244
      5.86091      5.07570      5.28219        -0.000554      0.000746      0.033244
      8.79137      5.07570      5.28219         0.000000      0.001848      0.011597
      1.46523      0.84595      7.67490        -0.010555     -0.004601     -0.037346
      4.39568      0.84595      7.67490        -0.000000     -0.035018     -0.062941
      7.32614      0.84595      7.67490         0.010555     -0.004601     -0.037346
      2.93046      3.38380      7.67490        -0.022738      0.024463     -0.062774
      5.86091      3.38380      7.67490         0.022738      0.024463     -0.062774
      8.79137      3.38380      7.67490        -0.000000     -0.025368     -0.010779
      4.39568      5.92165      7.67490         0.000000      0.015046     -0.035183
      7.32614      5.92165      7.67490        -0.022641      0.005390     -0.006520
     10.25659      5.92165      7.67490         0.022641      0.005390     -0.006520
      8.79137      1.69254     10.05636         0.000000      0.006350      0.038448
      2.93602      1.69511     10.03837        -0.009692      0.003374     -0.042886
      5.85534      1.69511     10.03837         0.009692      0.003374     -0.042886
     10.25423      4.23112     10.05516        -0.000978     -0.004851      0.020264
      4.39568      4.22332     10.03837         0.000000      0.045299     -0.027862
      7.32851      4.23112     10.05516         0.000978     -0.004851      0.020264
     11.72126      6.76728     10.05636        -0.006991      0.001086      0.011879
      5.86147      6.76728     10.05636         0.006991      0.001086      0.011879
      8.79137      6.76486     10.05516         0.000000      0.018912      0.018955
      0.00000      0.00000     12.42937        -0.000000     -0.017682      0.011523
      2.95945      0.04653     12.45339        -0.010565     -0.020659      0.005789
      5.83191      0.04653     12.45339         0.010565     -0.020659      0.005789
      1.52003      2.53970     12.45339         0.038502      0.006295      0.059783
      7.27134      2.53970     12.45339        -0.038502      0.006295      0.059783
      2.95626      5.02732     12.45339        -0.025849      0.025303     -0.019266
      5.83511      5.02732     12.45339         0.025849      0.025303     -0.019266
      8.79137      5.07570     12.43676         0.000000      0.023327      0.008133
      4.39568      2.53785     12.21669        -0.000000     -0.099531      0.139123
      3.96080      2.54333     13.94930         0.013906      0.000492     -0.026980
      4.83056      2.54333     13.94930        -0.013906      0.000492     -0.026980
 -----------------------------------------------------------------------------------
    total drift:                               -0.018572     -0.002637     -0.059411


--------------------------------------------------------------------------------------------------------



  FREE ENERGIE OF THE ION-ELECTRON SYSTEM (eV)
  ---------------------------------------------------
  free  energy   TOTEN  =      -102.67829471 eV

  energy  without entropy=     -102.67829471  energy(sigma->0) =     -102.67829471
 


--------------------------------------------------------------------------------------------------------


    POTLOK:  cpu time    0.0656: real time    0.0656


--------------------------------------------------------------------------------------------------------


 stress matrix after NEB project (eV)
     -9.42801     -0.00000     -0.00000
     -0.00000     -9.29316     -0.09368
     -0.00000     -0.09368      0.09425
  FORCES: max atom, RMS     0.030357    0.006964
  FORCE total and by dimension    0.042931    0.026980
  Stress total and by dimension   13.239210    9.428008
     LOOP+:  cpu time  211.9889: real time  211.9977
 -----------------------------------------------------------------------------
|                                                                             |
|           W    W    AA    RRRRR   N    N  II  N    N   GGGG   !!!           |
|           W    W   A  A   R    R  NN   N  II  NN   N  G    G  !!!           |
|           W    W  A    A  R    R  N N  N  II  N N  N  G       !!!           |
|           W WW W  AAAAAA  RRRRR   N  N N  II  N  N N  G  GGG   !            |
|           WW  WW  A    A  R   R   N   NN  II  N   NN  G    G                |
|           W    W  A    A  R    R  N    N  II  N    N   GGGG   !!!           |
|                                                                             |
|     Tetrahedron method does not include variations of the Fermi             |
|     occupations, so forces and stress will be inaccurate. We suggest        |
|     using a different smearing scheme ISMEAR = 1 or 2 for metals in         |
|     relaxations.                                                            |
|                                                                             |
 -----------------------------------------------------------------------------

    4ORBIT:  cpu time    0.0000: real time    0.0000



 total charge

# of ion       s       p       d       tot
------------------------------------------
    1        0.419   0.201   9.178   9.798
    2        0.415   0.204   9.177   9.796
    3        0.415   0.204   9.177   9.796
    4        0.415   0.203   9.178   9.796
    5        0.422   0.202   9.175   9.798
    6        0.415   0.203   9.178   9.796
    7        0.414   0.204   9.178   9.795
    8        0.414   0.204   9.178   9.795
    9        0.416   0.201   9.179   9.796
   10        0.409   0.269   9.162   9.839
   11        0.409   0.266   9.168   9.843
   12        0.409   0.269   9.162   9.839
   13        0.407   0.267   9.169   9.842
   14        0.407   0.267   9.169   9.842
   15        0.403   0.269   9.163   9.836
   16        0.410   0.269   9.161   9.840
   17        0.404   0.269   9.164   9.837
   18        0.404   0.269   9.164   9.837
   19        0.402   0.266   9.165   9.833
   20        0.436   0.297   9.137   9.870
   21        0.436   0.297   9.137   9.870
   22        0.395   0.275   9.165   9.835
   23        0.440   0.295   9.139   9.874
   24        0.395   0.275   9.165   9.835
   25        0.404   0.265   9.166   9.835
   26        0.404   0.265   9.166   9.835
   27        0.397   0.273   9.167   9.837
   28        0.408   0.198   9.177   9.783
   29        0.436   0.211   9.160   9.807
   30        0.436   0.211   9.160   9.807
   31        0.432   0.213   9.159   9.803
   32        0.432   0.213   9.159   9.803
   33        0.435   0.210   9.161   9.807
   34        0.435   0.210   9.161   9.807
   35        0.408   0.199   9.179   9.785
   36        0.409   0.466   3.366   4.242
   37        0.551   0.029   0.000   0.580
   38        0.551   0.029   0.000   0.580
--------------------------------------------------
tot         16.050   8.936 324.166 349.151
 
 BZINTS: Fermi energy:    0.439062;  392.000000 electrons
         Band energy:-0.143179E+04;  BLOECHL correction:   -0.019945

 total amount of memory used by VASP MPI-rank0   285717. kBytes
=======================================================================

   base      :      30000. kBytes
   nonlr-proj:      15957. kBytes
   fftplans  :       6755. kBytes
   grid      :      23316. kBytes
   one-center:        590. kBytes
   wavefun   :     209099. kBytes
 
  
  
 General timing and accounting informations for this job:
 ========================================================
  
                  Total CPU time used (sec):      226.554
                            User time (sec):      219.552
                          System time (sec):        7.002
                         Elapsed time (sec):      226.855
  
                   Maximum memory used (kb):      551324.
                   Average memory used (kb):          N/A
  
                          Minor page faults:       100087
                          Major page faults:            0
                 Voluntary context switches:         4814
